<event>
 6    1  0.9562506E-007  0.3120356E+04  0.7818608E-02  0.8210173E-01
          2   -1    0    0  501    0  0.00000000000E+00  0.00000000000E+00  0.22402421745E+04  0.22402421745E+04  0.00000000000E+00 0. -1.
         -2   -1    0    0    0  501 -0.00000000000E+00 -0.00000000000E+00 -0.10865592105E+04  0.10865592105E+04  0.00000000000E+00 0.  1.
         23    2    1    2    0    0  0.22811717269E+03 -0.12211399278E+04 -0.42660143498E+03  0.13166971715E+04  0.92100430701E+02 0.  0.
         13    1    3    3    0    0  0.49825863970E+02 -0.51031763982E+03 -0.18332454543E+03  0.54453154105E+03  0.00000000000E+00 0.  1.
        -13    1    3    3    0    0  0.17829130872E+03 -0.71082228797E+03 -0.24327688955E+03  0.77216563044E+03  0.00000000000E+00 0. -1.
         22    1    1    2    0    0 -0.22811717269E+03  0.12211399278E+04  0.15802843990E+04  0.20101042136E+04  0.00000000000E+00 0. -1.
<mgrwt>
<rscale>  0 0.31203562E+04</rscale>
<asrwt>0</asrwt>
<pdfrwt beam="1">  1        2 0.34465264E+00 0.31203562E+04</pdfrwt>
<pdfrwt beam="2">  1       -2 0.16716296E+00 0.31203562E+04</pdfrwt>
<totfact> 0.92771783E-01</totfact>
</mgrwt>
</event>
<event>
 6    1  0.9562506E-007  0.1026631E+04  0.7818608E-02  0.9279809E-01
         -1   -1    0    0    0  501 -0.00000000000E+00  0.00000000000E+00  0.35366204246E+03  0.35366204246E+03  0.00000000000E+00 0.  1.
          1   -1    0    0  501    0  0.00000000000E+00 -0.00000000000E+00 -0.74504190408E+03  0.74504190408E+03  0.00000000000E+00 0. -1.
         23    2    1    2    0    0 -0.44430852381E+03 -0.48482689903E+02  0.60454929782E+02  0.46316062444E+03  0.10536759442E+03 0.  0.
         11    1    3    3    0    0 -0.13545577700E+03  0.19330777378E+02  0.53378993557E+02  0.14687158823E+03  0.00000000000E+00 0. -1.
        -11    1    3    3    0    0 -0.30885274680E+03 -0.67813467281E+02  0.70759362244E+01  0.31628903621E+03  0.00000000000E+00 0.  1.
         22    1    1    2    0    0  0.44430852381E+03  0.48482689903E+02 -0.45183479139E+03  0.63554332210E+03  0.00000000000E+00 0.  1.
<mgrwt>
<rscale>  0 0.10266315E+04</rscale>
<asrwt>0</asrwt>
<pdfrwt beam="1">  1        1 0.11462183E+00 0.10266315E+04</pdfrwt>
<pdfrwt beam="2">  1       -1 0.54409546E-01 0.10266315E+04</pdfrwt>
<totfact> 0.84513834E+01</totfact>
</mgrwt>
</event>
<event>
 6    1  0.9562506E-007  0.1628843E+04  0.7818608E-02  0.8803022E-01
          1   -1    0    0  501    0  0.00000000000E+00  0.00000000000E+00  0.15769618765E+04  0.15769618765E+04  0.00000000000E+00 0. -1.
         -1   -1    0    0    0  501 -0.00000000000E+00 -0.00000000000E+00 -0.42060768785E+03  0.42060768785E+03  0.00000000000E+00 0.  1.
         23    2    1    2    0    0 -0.59449312547E+03 -0.54079828463E+02  0.12547275313E+04  0.13925703754E+04  0.92543873764E+02 0.  0.
         13    1    3    3    0    0 -0.58872402367E+02 -0.28705152865E+02  0.17893703609E+03  0.19054765400E+03  0.00000000000E+00 0. -1.
        -13    1    3    3    0    0 -0.53562072310E+03 -0.25374675598E+02  0.10757904953E+04  0.12020227214E+04  0.00000000000E+00 0.  1.
         22    1    1    2    0    0  0.59449312547E+03  0.54079828463E+02 -0.98373342665E+02  0.60499918895E+03  0.00000000000E+00 0.  1.
<mgrwt>
<rscale>  0 0.16288429E+04</rscale>
<asrwt>0</asrwt>
<pdfrwt beam="1">  1        1 0.24260952E+00 0.16288429E+04</pdfrwt>
<pdfrwt beam="2">  1       -1 0.64708876E-01 0.16288429E+04</pdfrwt>
<totfact> 0.13415123E+01</totfact>
</mgrwt>
</event>
<event>
 6    1  0.9562506E-007  0.2088789E+04  0.7818608E-02  0.8566198E-01
         -1   -1    0    0    0  501 -0.00000000000E+00  0.00000000000E+00  0.38091054147E+03  0.38091054147E+03  0.00000000000E+00 0.  1.
          1   -1    0    0  501    0  0.00000000000E+00 -0.00000000000E+00 -0.28635596152E+04  0.28635596152E+04  0.00000000000E+00 0. -1.
         23    2    1    2    0    0  0.52776321780E+03 -0.50020805550E+03 -0.83564082541E+02  0.73760938913E+03  0.91337517962E+02 0.  0.
         11    1    3    3    0    0  0.44829564908E+03 -0.39370902494E+03 -0.95347907596E+02  0.60420775300E+03  0.00000000000E+00 0.  1.
        -11    1    3    3    0    0  0.79467568729E+02 -0.10649903056E+03  0.11783825055E+02  0.13340163613E+03  0.00000000000E+00 0. -1.
         22    1    1    2    0    0 -0.52776321780E+03  0.50020805550E+03 -0.23990849912E+04  0.25068607675E+04  0.00000000000E+00 0. -1.
<mgrwt>
<rscale>  0 0.20887892E+04</rscale>
<asrwt>0</asrwt>
<pdfrwt beam="1">  1        1 0.44054763E+00 0.20887892E+04</pdfrwt>
<pdfrwt beam="2">  1       -1 0.58601622E-01 0.20887892E+04</pdfrwt>
<totfact> 0.20408465E+00</totfact>
</mgrwt>
</event>
<event>
 6    1  0.9562506E-007  0.6668252E+03  0.7818608E-02  0.9775710E-01
          2   -1    0    0  501    0  0.00000000000E+00  0.00000000000E+00  0.63032819167E+02  0.63032819167E+02  0.00000000000E+00 0. -1.
         -2   -1    0    0    0  501 -0.00000000000E+00 -0.00000000000E+00 -0.17635885013E+04  0.17635885013E+04  0.00000000000E+00 0.  1.
         23    2    1    2    0    0  0.26591225207E+03  0.46169647423E+02 -0.13746592915E+04  0.14034790045E+04  0.84995212717E+02 0.  0.
         11    1    3    3    0    0  0.12172140596E+03 -0.19043982980E+02 -0.53095860015E+03  0.54506495854E+03  0.00000000000E+00 0. -1.
        -11    1    3    3    0    0  0.14419084611E+03  0.65213630403E+02 -0.84370069135E+03  0.85841404594E+03  0.00000000000E+00 0.  1.
         22    1    1    2    0    0 -0.26591225207E+03 -0.46169647423E+02 -0.32589639061E+03  0.42314231596E+03  0.00000000000E+00 0. -1.
<mgrwt>
<rscale>  0 0.66682518E+03</rscale>
<asrwt>0</asrwt>
<pdfrwt beam="1">  1        2 0.96973560E-02 0.66682518E+03</pdfrwt>
<pdfrwt beam="2">  1       -2 0.27132133E+00 0.66682518E+03</pdfrwt>
<totfact> 0.34220367E+01</totfact>
</mgrwt>
</event>
<event>
 6    1  0.9562506E-007  0.3837651E+03  0.7818608E-02  0.1049551E+00
         -3   -1    0    0    0  501 -0.00000000000E+00  0.00000000000E+00  0.71092527836E+03  0.71092527836E+03  0.00000000000E+00 0.  1.
          3   -1    0    0  501    0  0.00000000000E+00 -0.00000000000E+00 -0.51790120829E+02  0.51790120829E+02  0.00000000000E+00 0. -1.
         23    2    1    2    0    0 -0.67642646641E+02 -0.15765740374E+03  0.24150437289E+03  0.31122137168E+03  0.95409619359E+02 0.  0.
         11    1    3    3    0    0 -0.56457076840E+02 -0.49466551671E+02  0.15510758794E+03  0.17231571343E+03  0.00000000000E+00 0. -1.
        -11    1    3    3    0    0 -0.11185569801E+02 -0.10819085207E+03  0.86396784949E+02  0.13890565824E+03  0.00000000000E+00 0.  1.
         22    1    1    2    0    0  0.67642646641E+02  0.15765740374E+03  0.41763078464E+03  0.45149402751E+03  0.00000000000E+00 0.  1.
<mgrwt>
<rscale>  0 0.38376506E+03</rscale>
<asrwt>0</asrwt>
<pdfrwt beam="1">  1        3 0.79677114E-02 0.38376506E+03</pdfrwt>
<pdfrwt beam="2">  1       -3 0.10937311E+00 0.38376506E+03</pdfrwt>
<totfact> 0.20442836E+02</totfact>
</mgrwt>
</event>
<event>
 6    1  0.1345541E-006  0.4362330E+04  0.7818608E-02  0.7935192E-01
          2   -1    0    0  501    0  0.00000000000E+00  0.00000000000E+00  0.22092961586E+04  0.22092961586E+04  0.00000000000E+00 0. -1.
         -2   -1    0    0    0  501 -0.00000000000E+00 -0.00000000000E+00 -0.21533925186E+04  0.21533925186E+04  0.00000000000E+00 0.  1.
         23    2    1    2    0    0 -0.58019741543E+03  0.17070265307E+04 -0.11981119817E+04  0.21665275273E+04  0.88320939129E+02 0.  0.
         13    1    3    3    0    0 -0.29062080111E+03  0.98894119096E+03 -0.69300543218E+03  0.12420634679E+04  0.00000000000E+00 0.  1.
        -13    1    3    3    0    0 -0.28957661432E+03  0.71808533977E+03 -0.50510654949E+03  0.92446405938E+03  0.00000000000E+00 0. -1.
         22    1    1    2    0    0  0.58019741543E+03 -0.17070265307E+04  0.12540156217E+04  0.21961611500E+04  0.00000000000E+00 0. -1.
<mgrwt>
<rscale>  0 0.43623305E+04</rscale>
<asrwt>0</asrwt>
<pdfrwt beam="1">  1        2 0.33989171E+00 0.43623305E+04</pdfrwt>
<pdfrwt beam="2">  1       -2 0.33129116E+00 0.43623305E+04</pdfrwt>
<totfact> 0.79655752E-02</totfact>
</mgrwt>
</event>
<event>
 6    1  0.9562506E-007  0.2579471E+03  0.7818608E-02  0.1108383E+00
          2   -1    0    0  501    0  0.00000000000E+00  0.00000000000E+00  0.62640535221E+02  0.62640535221E+02  0.00000000000E+00 0. -1.
         -2   -1    0    0    0  501 -0.00000000000E+00 -0.00000000000E+00 -0.26554967092E+03  0.26554967092E+03  0.00000000000E+00 0.  1.
         23    2    1    2    0    0  0.31837696481E+02  0.51264341027E+02 -0.23537049650E+03  0.25966713322E+03  0.91575530976E+02 0.  0.
         13    1    3    3    0    0  0.34462527493E+02  0.19849864498E+02 -0.22181523989E+03  0.22535235426E+03  0.00000000000E+00 0. -1.
        -13    1    3    3    0    0 -0.26248310115E+01  0.31414476530E+02 -0.13555256610E+02  0.34314778962E+02  0.00000000000E+00 0.  1.
         22    1    1    2    0    0 -0.31837696481E+02 -0.51264341027E+02  0.32461360798E+02  0.68523072925E+02  0.00000000000E+00 0. -1.
<mgrwt>
<rscale>  0 0.25794708E+03</rscale>
<asrwt>0</asrwt>
<pdfrwt beam="1">  1        2 0.96370055E-02 0.25794708E+03</pdfrwt>
<pdfrwt beam="2">  1       -2 0.40853795E-01 0.25794708E+03</pdfrwt>
<totfact> 0.38086296E+03</totfact>
</mgrwt>
</event>
<event>
 6    1  0.9562506E-007  0.4006376E+04  0.7818608E-02  0.8003262E-01
          1   -1    0    0  501    0  0.00000000000E+00  0.00000000000E+00  0.23466249569E+04  0.23466249569E+04  0.00000000000E+00 0. -1.
         -1   -1    0    0    0  501 -0.00000000000E+00 -0.00000000000E+00 -0.17100140364E+04  0.17100140364E+04  0.00000000000E+00 0.  1.
         23    2    1    2    0    0  0.16686637620E+04  0.10402471631E+04  0.69982239124E+03  0.20892680061E+04  0.93469307191E+02 0.  0.
         13    1    3    3    0    0  0.32205846879E+03  0.22291617407E+03  0.10546944022E+03  0.40563170586E+03  0.00000000000E+00 0. -1.
        -13    1    3    3    0    0  0.13466052932E+04  0.81733098899E+03  0.59435295103E+03  0.16836363003E+04  0.00000000000E+00 0.  1.
         22    1    1    2    0    0 -0.16686637620E+04 -0.10402471631E+04 -0.63211470718E+02  0.19673709871E+04  0.00000000000E+00 0. -1.
<mgrwt>
<rscale>  0 0.40063757E+04</rscale>
<asrwt>0</asrwt>
<pdfrwt beam="1">  1        1 0.36101923E+00 0.40063757E+04</pdfrwt>
<pdfrwt beam="2">  1       -1 0.26307908E+00 0.40063757E+04</pdfrwt>
<totfact> 0.77500337E-02</totfact>
</mgrwt>
</event>
<event>
 6    1  0.9562506E-007  0.1472434E+04  0.7818608E-02  0.8902994E-01
         -1   -1    0    0    0  501 -0.00000000000E+00  0.00000000000E+00  0.32232201616E+03  0.32232201616E+03  0.00000000000E+00 0.  1.
          1   -1    0    0  501    0  0.00000000000E+00 -0.00000000000E+00 -0.16815958167E+04  0.16815958167E+04  0.00000000000E+00 0. -1.
         23    2    1    2    0    0 -0.29428599194E+03 -0.37120543842E+02 -0.15950786069E+04  0.16249902850E+04  0.91298874185E+02 0.  0.
         13    1    3    3    0    0 -0.41102946549E+02 -0.38919469342E+02 -0.33087939056E+03  0.33568638400E+03  0.00000000000E+00 0.  1.
        -13    1    3    3    0    0 -0.25318304539E+03  0.17989254996E+01 -0.12641992163E+04  0.12893039010E+04  0.00000000000E+00 0. -1.
         22    1    1    2    0    0  0.29428599194E+03  0.37120543842E+02  0.23580480634E+03  0.37892754785E+03  0.00000000000E+00 0.  1.
<mgrwt>
<rscale>  0 0.14724338E+04</rscale>
<asrwt>0</asrwt>
<pdfrwt beam="1">  1        1 0.25870706E+00 0.14724338E+04</pdfrwt>
<pdfrwt beam="2">  1       -1 0.49588001E-01 0.14724338E+04</pdfrwt>
<totfact> 0.19395997E+01</totfact>
</mgrwt>
</event>
<event>
 6    1  0.9562506E-007  0.1713397E+04  0.7818608E-02  0.8753760E-01
         -1   -1    0    0    0  501 -0.00000000000E+00  0.00000000000E+00  0.10764148751E+04  0.10764148751E+04  0.00000000000E+00 0.  1.
          1   -1    0    0  501    0  0.00000000000E+00 -0.00000000000E+00 -0.68183072008E+03  0.68183072008E+03  0.00000000000E+00 0. -1.
         23    2    1    2    0    0  0.47671664664E+03  0.20207993604E+03 -0.49942399240E+03  0.72512138707E+03  0.91003516762E+02 0.  0.
         13    1    3    3    0    0  0.16239574176E+03  0.28801455562E+02 -0.12952762805E+03  0.20971243934E+03  0.00000000000E+00 0. -1.
        -13    1    3    3    0    0  0.31432090488E+03  0.17327848047E+03 -0.36989636434E+03  0.51540894773E+03  0.00000000000E+00 0.  1.
         22    1    1    2    0    0 -0.47671664664E+03 -0.20207993604E+03  0.89400814746E+03  0.10331242081E+04  0.00000000000E+00 0.  1.
<mgrwt>
<rscale>  0 0.17133975E+04</rscale>
<asrwt>0</asrwt>
<pdfrwt beam="1">  1        1 0.10489703E+00 0.17133975E+04</pdfrwt>
<pdfrwt beam="2">  1       -1 0.16560229E+00 0.17133975E+04</pdfrwt>
<totfact> 0.71477650E+00</totfact>
</mgrwt>
</event>
<event>
 6    1  0.9562506E-007  0.3859486E+04  0.7818608E-02  0.8033509E-01
          1   -1    0    0  501    0  0.00000000000E+00  0.00000000000E+00  0.24222622069E+04  0.24222622069E+04  0.00000000000E+00 0. -1.
         -1   -1    0    0    0  501 -0.00000000000E+00 -0.00000000000E+00 -0.15373676568E+04  0.15373676568E+04  0.00000000000E+00 0.  1.
         23    2    1    2    0    0  0.50371717851E+03  0.17350495444E+04  0.11351461522E+04  0.21356907798E+04  0.92143381857E+02 0.  0.
         13    1    3    3    0    0  0.39443247429E+03  0.12719309883E+04  0.87435387336E+03  0.15930725381E+04  0.00000000000E+00 0.  1.
        -13    1    3    3    0    0  0.10928470422E+03  0.46311855604E+03  0.26079227880E+03  0.54261824168E+03  0.00000000000E+00 0. -1.
         22    1    1    2    0    0 -0.50371717851E+03 -0.17350495444E+04 -0.25025160213E+03  0.18239390839E+04  0.00000000000E+00 0.  1.
<mgrwt>
<rscale>  0 0.38594858E+04</rscale>
<asrwt>0</asrwt>
<pdfrwt beam="1">  1        1 0.37265572E+00 0.38594858E+04</pdfrwt>
<pdfrwt beam="2">  1       -1 0.23651810E+00 0.38594858E+04</pdfrwt>
<totfact> 0.10377267E-01</totfact>
</mgrwt>
</event>
<event>
 6    1  0.9562506E-007  0.2672125E+04  0.7818608E-02  0.8344106E-01
         -2   -1    0    0    0  501 -0.00000000000E+00  0.00000000000E+00  0.12199632791E+04  0.12199632791E+04  0.00000000000E+00 0.  1.
          2   -1    0    0  501    0  0.00000000000E+00 -0.00000000000E+00 -0.14632109549E+04  0.14632109549E+04  0.00000000000E+00 0. -1.
         23    2    1    2    0    0 -0.56833708222E+03 -0.12625825738E+03  0.10839864949E+04  0.12338644913E+04  0.91905796038E+02 0.  0.
         13    1    3    3    0    0 -0.99056103038E+02 -0.58417760044E+02  0.19778511859E+03  0.22878745458E+03  0.00000000000E+00 0.  1.
        -13    1    3    3    0    0 -0.46928097918E+03 -0.67840497335E+02  0.88620137626E+03  0.10050770367E+04  0.00000000000E+00 0. -1.
         22    1    1    2    0    0  0.56833708222E+03  0.12625825738E+03 -0.13272341706E+04  0.14493097427E+04  0.00000000000E+00 0. -1.
<mgrwt>
<rscale>  0 0.26721255E+04</rscale>
<asrwt>0</asrwt>
<pdfrwt beam="1">  1        2 0.22510938E+00 0.26721255E+04</pdfrwt>
<pdfrwt beam="2">  1       -2 0.18768666E+00 0.26721255E+04</pdfrwt>
<totfact> 0.18816904E+00</totfact>
</mgrwt>
</event>
<event>
 6    1  0.9562506E-007  0.2556613E+04  0.7818608E-02  0.8383090E-01
         -1   -1    0    0    0  501 -0.00000000000E+00  0.00000000000E+00  0.20462672235E+04  0.20462672235E+04  0.00000000000E+00 0.  1.
          1   -1    0    0  501    0  0.00000000000E+00 -0.00000000000E+00 -0.79856018496E+03  0.79856018496E+03  0.00000000000E+00 0. -1.
         23    2    1    2    0    0 -0.82077959776E+03  0.50492628418E+03 -0.30720208414E+03  0.10155182273E+04  0.90963997892E+02 0.  0.
         13    1    3    3    0    0 -0.51582234334E+03  0.33748025702E+03 -0.23820641451E+03  0.66083879250E+03  0.00000000000E+00 0.  1.
        -13    1    3    3    0    0 -0.30495725442E+03  0.16744602716E+03 -0.68995669638E+02  0.35467943479E+03  0.00000000000E+00 0. -1.
         22    1    1    2    0    0  0.82077959776E+03 -0.50492628418E+03  0.15549091227E+04  0.18293091812E+04  0.00000000000E+00 0.  1.
<mgrwt>
<rscale>  0 0.25566130E+04</rscale>
<asrwt>0</asrwt>
<pdfrwt beam="1">  1        1 0.12285541E+00 0.25566130E+04</pdfrwt>
<pdfrwt beam="2">  1       -1 0.31481034E+00 0.25566130E+04</pdfrwt>
<totfact> 0.51871610E-01</totfact>
</mgrwt>
</event>
<event>
 6    1  0.9562506E-007  0.1603658E+04  0.7818608E-02  0.8818304E-01
          3   -1    0    0  501    0  0.00000000000E+00  0.00000000000E+00  0.10196882537E+04  0.10196882537E+04  0.00000000000E+00 0. -1.
         -3   -1    0    0    0  501 -0.00000000000E+00 -0.00000000000E+00 -0.63051609109E+03  0.63051609109E+03  0.00000000000E+00 0.  1.
         23    2    1    2    0    0 -0.75219017460E+03  0.26291009368E+03  0.25986301857E+03  0.84296669029E+03  0.90289957338E+02 0.  0.
         13    1    3    3    0    0 -0.79347846397E+02  0.56528753158E+02  0.20205618479E+02  0.99497978269E+02  0.00000000000E+00 0.  1.
        -13    1    3    3    0    0 -0.67284232820E+03  0.20638134052E+03  0.23965740009E+03  0.74346871202E+03  0.00000000000E+00 0. -1.
         22    1    1    2    0    0  0.75219017460E+03 -0.26291009368E+03  0.12930914406E+03  0.80723765451E+03  0.00000000000E+00 0.  1.
<mgrwt>
<rscale>  0 0.16036581E+04</rscale>
<asrwt>0</asrwt>
<pdfrwt beam="1">  1        3 0.15687512E+00 0.16036581E+04</pdfrwt>
<pdfrwt beam="2">  1       -3 0.97002476E-01 0.16036581E+04</pdfrwt>
<totfact> 0.67773503E-01</totfact>
</mgrwt>
</event>
<event>
 6    1  0.9562506E-007  0.1115939E+04  0.7818608E-02  0.9189795E-01
          2   -1    0    0  501    0  0.00000000000E+00  0.00000000000E+00  0.13594428088E+04  0.13594428088E+04  0.00000000000E+00 0. -1.
         -2   -1    0    0    0  501 -0.00000000000E+00 -0.00000000000E+00 -0.22901284942E+03  0.22901284942E+03  0.00000000000E+00 0.  1.
         23    2    1    2    0    0 -0.24503214249E+03  0.19630203649E+03 -0.81013884247E+02  0.33698794923E+03  0.91773569750E+02 0.  0.
         13    1    3    3    0    0 -0.16707511594E+03  0.18155387749E+03 -0.72674973835E+02  0.25721111294E+03  0.00000000000E+00 0. -1.
        -13    1    3    3    0    0 -0.77957026546E+02  0.14748159001E+02 -0.83389104121E+01  0.79776836291E+02  0.00000000000E+00 0.  1.
         22    1    1    2    0    0  0.24503214249E+03 -0.19630203649E+03  0.12114438436E+04  0.12514677090E+04  0.00000000000E+00 0. -1.
<mgrwt>
<rscale>  0 0.11159388E+04</rscale>
<asrwt>0</asrwt>
<pdfrwt beam="1">  1        2 0.20914504E+00 0.11159388E+04</pdfrwt>
<pdfrwt beam="2">  1       -2 0.35232747E-01 0.11159388E+04</pdfrwt>
<totfact> 0.11446149E+02</totfact>
</mgrwt>
</event>
<event>
 6    1  0.9562506E-007  0.1298263E+04  0.7818608E-02  0.9030944E-01
          2   -1    0    0  501    0  0.00000000000E+00  0.00000000000E+00  0.21295293116E+04  0.21295293116E+04  0.00000000000E+00 0. -1.
         -2   -1    0    0    0  501 -0.00000000000E+00 -0.00000000000E+00 -0.19787077261E+03  0.19787077261E+03  0.00000000000E+00 0.  1.
         23    2    1    2    0    0  0.50276341723E+03  0.16452182277E+03  0.30649272268E+03  0.61830605100E+03  0.92336881959E+02 0.  0.
         11    1    3    3    0    0  0.39524684967E+03  0.10683484757E+03  0.27186920718E+03  0.49147392875E+03  0.00000000000E+00 0.  1.
        -11    1    3    3    0    0  0.10751656757E+03  0.57686975200E+02  0.34623515502E+02  0.12683212225E+03  0.00000000000E+00 0. -1.
         22    1    1    2    0    0 -0.50276341723E+03 -0.16452182277E+03  0.16251658163E+04  0.17090940332E+04  0.00000000000E+00 0. -1.
<mgrwt>
<rscale>  0 0.12982629E+04</rscale>
<asrwt>0</asrwt>
<pdfrwt beam="1">  1        2 0.32761988E+00 0.12982629E+04</pdfrwt>
<pdfrwt beam="2">  1       -2 0.30441659E-01 0.12982629E+04</pdfrwt>
<totfact> 0.55418477E+01</totfact>
</mgrwt>
</event>
<event>
 6    1  0.9562506E-007  0.4673455E+03  0.7818608E-02  0.1022672E+00
          2   -1    0    0  501    0  0.00000000000E+00  0.00000000000E+00  0.18920657221E+04  0.18920657221E+04  0.00000000000E+00 0. -1.
         -2   -1    0    0    0  501 -0.00000000000E+00 -0.00000000000E+00 -0.28858908766E+02  0.28858908766E+02  0.00000000000E+00 0.  1.
         23    2    1    2    0    0  0.20130211567E+03 -0.53022922026E+02  0.13143444955E+04  0.13339120109E+04  0.92118554098E+02 0.  0.
         11    1    3    3    0    0  0.15139001440E+03 -0.10037643144E+02  0.10755614971E+04  0.10862100279E+04  0.00000000000E+00 0.  1.
        -11    1    3    3    0    0  0.49912101272E+02 -0.42985278882E+02  0.23878299842E+03  0.24770198302E+03  0.00000000000E+00 0. -1.
         22    1    1    2    0    0 -0.20130211567E+03  0.53022922026E+02  0.54886231784E+03  0.58701261994E+03  0.00000000000E+00 0. -1.
<mgrwt>
<rscale>  0 0.46734549E+03</rscale>
<asrwt>0</asrwt>
<pdfrwt beam="1">  1        2 0.29108694E+00 0.46734549E+03</pdfrwt>
<pdfrwt beam="2">  1       -2 0.44398336E-02 0.46734549E+03</pdfrwt>
<totfact> 0.19667369E+03</totfact>
</mgrwt>
</event>
<event>
 6    1  0.9562506E-007  0.4343623E+04  0.7818608E-02  0.7938601E-01
         -1   -1    0    0    0  501 -0.00000000000E+00  0.00000000000E+00  0.12104001668E+04  0.12104001668E+04  0.00000000000E+00 0.  1.
          1   -1    0    0  501    0  0.00000000000E+00 -0.00000000000E+00 -0.38968649259E+04  0.38968649259E+04  0.00000000000E+00 0. -1.
         23    2    1    2    0    0 -0.65214346283E+03 -0.99444016926E+03  0.79162792115E+03  0.14314888429E+04  0.91012062009E+02 0.  0.
         13    1    3    3    0    0 -0.31688992311E+03 -0.46834107105E+03  0.32283343981E+03  0.65114054709E+03  0.00000000000E+00 0.  1.
        -13    1    3    3    0    0 -0.33525353972E+03 -0.52609909821E+03  0.46879448134E+03  0.78034829580E+03  0.00000000000E+00 0. -1.
         22    1    1    2    0    0  0.65214346283E+03  0.99444016926E+03 -0.34780926803E+04  0.36757762498E+04  0.00000000000E+00 0. -1.
<mgrwt>
<rscale>  0 0.43436234E+04</rscale>
<asrwt>0</asrwt>
<pdfrwt beam="1">  1        1 0.59951769E+00 0.43436234E+04</pdfrwt>
<pdfrwt beam="2">  1       -1 0.18621541E+00 0.43436234E+04</pdfrwt>
<totfact> 0.16817935E-02</totfact>
</mgrwt>
</event>
<event>
 6    1  0.9562506E-007  0.2209032E+04  0.7818608E-02  0.8514678E-01
         -1   -1    0    0    0  501 -0.00000000000E+00  0.00000000000E+00  0.26621267574E+04  0.26621267574E+04  0.00000000000E+00 0.  1.
          1   -1    0    0  501    0  0.00000000000E+00 -0.00000000000E+00 -0.45826353828E+03  0.45826353828E+03  0.00000000000E+00 0. -1.
         23    2    1    2    0    0 -0.76201465378E+03 -0.52128171558E+03  0.19550016566E+04  0.21641826629E+04  0.96198553641E+02 0.  0.
         11    1    3    3    0    0 -0.27679807983E+03 -0.20179736239E+03  0.83343353060E+03  0.90108312735E+03  0.00000000000E+00 0. -1.
        -11    1    3    3    0    0 -0.48521657396E+03 -0.31948435319E+03  0.11215681260E+04  0.12630995356E+04  0.00000000000E+00 0.  1.
         22    1    1    2    0    0  0.76201465378E+03  0.52128171558E+03  0.24886156251E+03  0.95620763272E+03  0.00000000000E+00 0. -1.
<mgrwt>
<rscale>  0 0.22090320E+04</rscale>
<asrwt>0</asrwt>
<pdfrwt beam="1">  1        1 0.70502084E-01 0.22090320E+04</pdfrwt>
<pdfrwt beam="2">  1       -1 0.40955795E+00 0.22090320E+04</pdfrwt>
<totfact> 0.28018485E-01</totfact>
</mgrwt>
</event>
<event>
 6    1  0.9562506E-007  0.1314079E+04  0.7818608E-02  0.9018474E-01
          2   -1    0    0  501    0  0.00000000000E+00  0.00000000000E+00  0.22407230513E+04  0.22407230513E+04  0.00000000000E+00 0. -1.
         -2   -1    0    0    0  501 -0.00000000000E+00 -0.00000000000E+00 -0.19266144244E+03  0.19266144244E+03  0.00000000000E+00 0.  1.
         23    2    1    2    0    0  0.45881465648E+03 -0.93264283326E+02  0.18439143066E+03  0.51180294494E+03  0.93450196369E+02 0.  0.
         11    1    3    3    0    0  0.14658477195E+03 -0.10894450336E+01  0.22792568349E+02  0.14835020536E+03  0.00000000000E+00 0. -1.
        -11    1    3    3    0    0  0.31222988454E+03 -0.92174838293E+02  0.16159886231E+03  0.36345273958E+03  0.00000000000E+00 0.  1.
         22    1    1    2    0    0 -0.45881465648E+03  0.93264283326E+02  0.18636701782E+04  0.19215815488E+04  0.00000000000E+00 0. -1.
<mgrwt>
<rscale>  0 0.13140790E+04</rscale>
<asrwt>0</asrwt>
<pdfrwt beam="1">  1        2 0.34472661E+00 0.13140790E+04</pdfrwt>
<pdfrwt beam="2">  1       -2 0.29640223E-01 0.13140790E+04</pdfrwt>
<totfact> 0.50418543E+01</totfact>
</mgrwt>
</event>
<event>
 6    1  0.9562506E-007  0.2185283E+04  0.7818608E-02  0.8524579E-01
          1   -1    0    0  501    0  0.00000000000E+00  0.00000000000E+00  0.96361134107E+03  0.96361134107E+03  0.00000000000E+00 0. -1.
         -1   -1    0    0    0  501 -0.00000000000E+00 -0.00000000000E+00 -0.12389493073E+04  0.12389493073E+04  0.00000000000E+00 0.  1.
         23    2    1    2    0    0 -0.94299949810E+03  0.35472226708E+03 -0.55956362181E+03  0.11557272503E+04  0.86706919955E+02 0.  0.
         11    1    3    3    0    0 -0.71996348794E+03  0.25679469489E+03 -0.46313410575E+03  0.89374724570E+03  0.00000000000E+00 0. -1.
        -11    1    3    3    0    0 -0.22303601016E+03  0.97927572188E+02 -0.96429516068E+02  0.26198000456E+03  0.00000000000E+00 0.  1.
         22    1    1    2    0    0  0.94299949810E+03 -0.35472226708E+03  0.28422565556E+03  0.10468333981E+04  0.00000000000E+00 0. -1.
<mgrwt>
<rscale>  0 0.21852831E+04</rscale>
<asrwt>0</asrwt>
<pdfrwt beam="1">  1        1 0.14824790E+00 0.21852831E+04</pdfrwt>
<pdfrwt beam="2">  1       -1 0.19060759E+00 0.21852831E+04</pdfrwt>
<totfact> 0.25820262E+00</totfact>
</mgrwt>
</event>
<event>
 6    1  0.9562506E-007  0.2844879E+04  0.7818608E-02  0.8289469E-01
         -1   -1    0    0    0  501 -0.00000000000E+00  0.00000000000E+00  0.10526858398E+04  0.10526858398E+04  0.00000000000E+00 0.  1.
          1   -1    0    0  501    0  0.00000000000E+00 -0.00000000000E+00 -0.19220689396E+04  0.19220689396E+04  0.00000000000E+00 0. -1.
         23    2    1    2    0    0 -0.12611019288E+04  0.33326720894E+03  0.15394226667E+03  0.13168525165E+04  0.94642597869E+02 0.  0.
         11    1    3    3    0    0 -0.38008738824E+03  0.65234681686E+02  0.18780994697E+02  0.38610194528E+03  0.00000000000E+00 0. -1.
        -11    1    3    3    0    0 -0.88101454059E+03  0.26803252726E+03  0.13516127197E+03  0.93075057123E+03  0.00000000000E+00 0.  1.
         22    1    1    2    0    0  0.12611019288E+04 -0.33326720894E+03 -0.10233253665E+04  0.16579022629E+04  0.00000000000E+00 0.  1.
<mgrwt>
<rscale>  0 0.28448794E+04</rscale>
<asrwt>0</asrwt>
<pdfrwt beam="1">  1        1 0.29570291E+00 0.28448794E+04</pdfrwt>
<pdfrwt beam="2">  1       -1 0.16195167E+00 0.28448794E+04</pdfrwt>
<totfact> 0.81996204E-01</totfact>
</mgrwt>
</event>
<event>
 6    1  0.9562506E-007  0.9213520E+03  0.7818608E-02  0.9399277E-01
         -1   -1    0    0    0  501 -0.00000000000E+00  0.00000000000E+00  0.81788251890E+03  0.81788251890E+03  0.00000000000E+00 0.  1.
          1   -1    0    0  501    0  0.00000000000E+00 -0.00000000000E+00 -0.25947784609E+03  0.25947784609E+03  0.00000000000E+00 0. -1.
         23    2    1    2    0    0  0.89547988108E+02 -0.41957629298E+03  0.46377801010E+03  0.63802300817E+03  0.88995553220E+02 0.  0.
         11    1    3    3    0    0  0.89385355218E+02 -0.20568782191E+03  0.23722520898E+03  0.32645523673E+03  0.00000000000E+00 0. -1.
        -11    1    3    3    0    0  0.16263289052E+00 -0.21388847107E+03  0.22655280112E+03  0.31156777144E+03  0.00000000000E+00 0.  1.
         22    1    1    2    0    0 -0.89547988108E+02  0.41957629298E+03  0.94626662715E+02  0.43933735683E+03  0.00000000000E+00 0. -1.
<mgrwt>
<rscale>  0 0.92135204E+03</rscale>
<asrwt>0</asrwt>
<pdfrwt beam="1">  1        1 0.39919669E-01 0.92135204E+03</pdfrwt>
<pdfrwt beam="2">  1       -1 0.12582808E+00 0.92135204E+03</pdfrwt>
<totfact> 0.58749857E+01</totfact>
</mgrwt>
</event>
<event>
 6    1  0.9562506E-007  0.3023478E+04  0.7818608E-02  0.8237058E-01
         -1   -1    0    0    0  501 -0.00000000000E+00  0.00000000000E+00  0.17101280598E+04  0.17101280598E+04  0.00000000000E+00 0.  1.
          1   -1    0    0  501    0  0.00000000000E+00 -0.00000000000E+00 -0.13363644164E+04  0.13363644164E+04  0.00000000000E+00 0. -1.
         23    2    1    2    0    0 -0.18064383969E+03 -0.14032025211E+04 -0.34577314231E+03  0.14592487338E+04  0.90765021012E+02 0.  0.
         11    1    3    3    0    0 -0.11433035794E+03 -0.83819090690E+03 -0.16126617818E+03  0.86118651137E+03  0.00000000000E+00 0.  1.
        -11    1    3    3    0    0 -0.66313481747E+02 -0.56501161420E+03 -0.18450696414E+03  0.59806222240E+03  0.00000000000E+00 0. -1.
         22    1    1    2    0    0  0.18064383969E+03  0.14032025211E+04  0.71953678563E+03  0.15872437424E+04  0.00000000000E+00 0.  1.
<mgrwt>
<rscale>  0 0.30234777E+04</rscale>
<asrwt>0</asrwt>
<pdfrwt beam="1">  1        1 0.20559453E+00 0.30234777E+04</pdfrwt>
<pdfrwt beam="2">  1       -1 0.26309662E+00 0.30234777E+04</pdfrwt>
<totfact> 0.41458713E-01</totfact>
</mgrwt>
</event>
<event>
 6    1  0.9562506E-007  0.3094533E+04  0.7818608E-02  0.8217240E-01
          1   -1    0    0  501    0  0.00000000000E+00  0.00000000000E+00  0.30158814270E+04  0.30158814270E+04  0.00000000000E+00 0. -1.
         -1   -1    0    0    0  501 -0.00000000000E+00 -0.00000000000E+00 -0.79380896728E+03  0.79380896728E+03  0.00000000000E+00 0.  1.
         23    2    1    2    0    0  0.15123121691E+04 -0.89677883987E+02  0.73311066918E+03  0.16855111567E+04  0.91467953987E+02 0.  0.
         13    1    3    3    0    0  0.12253589266E+04 -0.97905021158E+02  0.56560721103E+03  0.13531450068E+04  0.00000000000E+00 0.  1.
        -13    1    3    3    0    0  0.28695324245E+03  0.82271371713E+01  0.16750345815E+03  0.33236614995E+03  0.00000000000E+00 0. -1.
         22    1    1    2    0    0 -0.15123121691E+04  0.89677883987E+02  0.14889617906E+04  0.21241792376E+04  0.00000000000E+00 0.  1.
<mgrwt>
<rscale>  0 0.30945331E+04</rscale>
<asrwt>0</asrwt>
<pdfrwt beam="1">  1        1 0.46398175E+00 0.30945331E+04</pdfrwt>
<pdfrwt beam="2">  1       -1 0.12212446E+00 0.30945331E+04</pdfrwt>
<totfact> 0.29106247E-01</totfact>
</mgrwt>
</event>
<event>
 6    1  0.9562506E-007  0.2599246E+04  0.7818608E-02  0.8368457E-01
          2   -1    0    0  501    0  0.00000000000E+00  0.00000000000E+00  0.26054612641E+04  0.26054612641E+04  0.00000000000E+00 0. -1.
         -2   -1    0    0    0  501 -0.00000000000E+00 -0.00000000000E+00 -0.64826127461E+03  0.64826127461E+03  0.00000000000E+00 0.  1.
         23    2    1    2    0    0  0.94004970293E+03 -0.89497682276E+03  0.99947826516E+03  0.16406794957E+04  0.90528713469E+02 0.  0.
         13    1    3    3    0    0  0.31563759156E+03 -0.27310152909E+03  0.27482166893E+03  0.49973841568E+03  0.00000000000E+00 0. -1.
        -13    1    3    3    0    0  0.62441211137E+03 -0.62187529368E+03  0.72465659623E+03  0.11409410801E+04  0.00000000000E+00 0.  1.
         22    1    1    2    0    0 -0.94004970293E+03  0.89497682276E+03  0.95772172436E+03  0.16130430430E+04  0.00000000000E+00 0. -1.
<mgrwt>
<rscale>  0 0.25992458E+04</rscale>
<asrwt>0</asrwt>
<pdfrwt beam="1">  1        2 0.40084019E+00 0.25992458E+04</pdfrwt>
<pdfrwt beam="2">  1       -2 0.99732505E-01 0.25992458E+04</pdfrwt>
<totfact> 0.22208805E+00</totfact>
</mgrwt>
</event>
<event>
 6    1  0.9562506E-007  0.1190758E+04  0.7818608E-02  0.9120985E-01
         -2   -1    0    0    0  501 -0.00000000000E+00  0.00000000000E+00  0.28591579909E+03  0.28591579909E+03  0.00000000000E+00 0.  1.
          2   -1    0    0  501    0  0.00000000000E+00 -0.00000000000E+00 -0.12397924733E+04  0.12397924733E+04  0.00000000000E+00 0. -1.
         23    2    1    2    0    0 -0.42553577930E+03 -0.10403525597E+03  0.28278477125E+02  0.45028613424E+03  0.10026912023E+03 0.  0.
         11    1    3    3    0    0 -0.21462988015E+03 -0.77088108797E+02  0.58733562517E+02  0.23549563337E+03  0.00000000000E+00 0. -1.
        -11    1    3    3    0    0 -0.21090589915E+03 -0.26947147173E+02 -0.30455085392E+02  0.21479050087E+03  0.00000000000E+00 0.  1.
         22    1    1    2    0    0  0.42553577930E+03  0.10403525597E+03 -0.98215515138E+03  0.10754221382E+04  0.00000000000E+00 0. -1.
<mgrwt>
<rscale>  0 0.11907582E+04</rscale>
<asrwt>0</asrwt>
<pdfrwt beam="1">  1        2 0.19073731E+00 0.11907582E+04</pdfrwt>
<pdfrwt beam="2">  1       -2 0.43987045E-01 0.11907582E+04</pdfrwt>
<totfact> 0.86746246E+01</totfact>
</mgrwt>
</event>
<event>
 6    1  0.9562506E-007  0.2084316E+04  0.7818608E-02  0.8568184E-01
         -1   -1    0    0    0  501 -0.00000000000E+00  0.00000000000E+00  0.83052843086E+03  0.83052843086E+03  0.00000000000E+00 0.  1.
          1   -1    0    0  501    0  0.00000000000E+00 -0.00000000000E+00 -0.13077140570E+04  0.13077140570E+04  0.00000000000E+00 0. -1.
         23    2    1    2    0    0 -0.50527445141E+03  0.85325106400E+03  0.83029161667E+02  0.99930427273E+03  0.91517967413E+02 0.  0.
         13    1    3    3    0    0 -0.18475309606E+03  0.28776631494E+03 -0.13147482272E+02  0.34222217171E+03  0.00000000000E+00 0.  1.
        -13    1    3    3    0    0 -0.32052135535E+03  0.56548474906E+03  0.96176643939E+02  0.65708210102E+03  0.00000000000E+00 0. -1.
         22    1    1    2    0    0  0.50527445141E+03 -0.85325106400E+03 -0.56021478784E+03  0.11389382152E+04  0.00000000000E+00 0. -1.
<mgrwt>
<rscale>  0 0.20843164E+04</rscale>
<asrwt>0</asrwt>
<pdfrwt beam="1">  1        1 0.20118678E+00 0.20843164E+04</pdfrwt>
<pdfrwt beam="2">  1       -1 0.12777360E+00 0.20843164E+04</pdfrwt>
<totfact> 0.43573471E+00</totfact>
</mgrwt>
</event>
<event>
 6    1  0.9562506E-007  0.3860411E+04  0.7818608E-02  0.8033314E-01
          2   -1    0    0  501    0  0.00000000000E+00  0.00000000000E+00  0.34887945460E+04  0.34887945460E+04  0.00000000000E+00 0. -1.
         -2   -1    0    0    0  501 -0.00000000000E+00 -0.00000000000E+00 -0.10679025857E+04  0.10679025857E+04  0.00000000000E+00 0.  1.
         23    2    1    2    0    0 -0.10069235909E+04 -0.14434534079E+04  0.21436962789E+04  0.27750433201E+04  0.89324314373E+02 0.  0.
         13    1    3    3    0    0 -0.85535098016E+03 -0.11918995988E+04  0.17425272609E+04  0.22778611037E+04  0.00000000000E+00 0.  1.
        -13    1    3    3    0    0 -0.15157261075E+03 -0.25155380910E+03  0.40116901802E+03  0.49718221632E+03  0.00000000000E+00 0. -1.
         22    1    1    2    0    0  0.10069235909E+04  0.14434534079E+04  0.27719568129E+03  0.17816538116E+04  0.00000000000E+00 0.  1.
<mgrwt>
<rscale>  0 0.38604107E+04</rscale>
<asrwt>0</asrwt>
<pdfrwt beam="1">  1        2 0.53673762E+00 0.38604107E+04</pdfrwt>
<pdfrwt beam="2">  1       -2 0.16429271E+00 0.38604107E+04</pdfrwt>
<totfact> 0.15445385E-01</totfact>
</mgrwt>
</event>
<event>
 6    1  0.9562506E-007  0.2305107E+04  0.7818608E-02  0.8475910E-01
         -1   -1    0    0    0  501 -0.00000000000E+00  0.00000000000E+00  0.43006060354E+04  0.43006060354E+04  0.00000000000E+00 0.  1.
          1   -1    0    0  501    0  0.00000000000E+00 -0.00000000000E+00 -0.30888200463E+03  0.30888200463E+03  0.00000000000E+00 0. -1.
         23    2    1    2    0    0 -0.50126265670E+03  0.29283965174E+03  0.39858783916E+04  0.40289249650E+04  0.89389642958E+02 0.  0.
         13    1    3    3    0    0 -0.27091552646E+03  0.20221215510E+03  0.24540255085E+04  0.24772012785E+04  0.00000000000E+00 0. -1.
        -13    1    3    3    0    0 -0.23034713025E+03  0.90627496631E+02  0.15318528832E+04  0.15517236865E+04  0.00000000000E+00 0.  1.
         22    1    1    2    0    0  0.50126265670E+03 -0.29283965174E+03  0.58456392085E+01  0.58056307507E+03  0.00000000000E+00 0. -1.
<mgrwt>
<rscale>  0 0.23051072E+04</rscale>
<asrwt>0</asrwt>
<pdfrwt beam="1">  1        1 0.47520311E-01 0.23051072E+04</pdfrwt>
<pdfrwt beam="2">  1       -1 0.66163166E+00 0.23051072E+04</pdfrwt>
<totfact> 0.20097136E-02</totfact>
</mgrwt>
</event>
<event>
 6    1  0.9562506E-007  0.1776365E+04  0.7818608E-02  0.8718970E-01
         -2   -1    0    0    0  501 -0.00000000000E+00  0.00000000000E+00  0.34520325880E+03  0.34520325880E+03  0.00000000000E+00 0.  1.
          2   -1    0    0  501    0  0.00000000000E+00 -0.00000000000E+00 -0.22852281885E+04  0.22852281885E+04  0.00000000000E+00 0. -1.
         23    2    1    2    0    0  0.59118032718E+02 -0.57791665939E+03  0.17652967814E+02  0.58837724690E+03  0.91616321666E+02 0.  0.
         11    1    3    3    0    0  0.44806141442E+02 -0.36241588752E+03 -0.32615973716E+02  0.36662878716E+03  0.00000000000E+00 0.  1.
        -11    1    3    3    0    0  0.14311891276E+02 -0.21550077188E+03  0.50268941530E+02  0.22174845973E+03  0.00000000000E+00 0. -1.
         22    1    1    2    0    0 -0.59118032718E+02  0.57791665939E+03 -0.19576778975E+04  0.20420542004E+04  0.00000000000E+00 0. -1.
<mgrwt>
<rscale>  0 0.17763651E+04</rscale>
<asrwt>0</asrwt>
<pdfrwt beam="1">  1        2 0.35157355E+00 0.17763651E+04</pdfrwt>
<pdfrwt beam="2">  1       -2 0.53108197E-01 0.17763651E+04</pdfrwt>
<totfact> 0.14623005E+01</totfact>
</mgrwt>
</event>
<event>
 6    1  0.9562506E-007  0.4234053E+04  0.7818608E-02  0.7958926E-01
          1   -1    0    0  501    0  0.00000000000E+00  0.00000000000E+00  0.25378472143E+04  0.25378472143E+04  0.00000000000E+00 0. -1.
         -1   -1    0    0    0  501 -0.00000000000E+00 -0.00000000000E+00 -0.17659857921E+04  0.17659857921E+04  0.00000000000E+00 0.  1.
         23    2    1    2    0    0  0.85856573190E+03 -0.91976809129E+03 -0.13432488763E+04  0.18427763162E+04  0.91643604683E+02 0.  0.
         11    1    3    3    0    0  0.45963934857E+03 -0.51170741432E+03 -0.79765790812E+03  0.10532667976E+04  0.00000000000E+00 0.  1.
        -11    1    3    3    0    0  0.39892638333E+03 -0.40806067697E+03 -0.54559096816E+03  0.78950951859E+03  0.00000000000E+00 0. -1.
         22    1    1    2    0    0 -0.85856573190E+03  0.91976809129E+03  0.21151102985E+04  0.24610566902E+04  0.00000000000E+00 0. -1.
<mgrwt>
<rscale>  0 0.42340534E+04</rscale>
<asrwt>0</asrwt>
<pdfrwt beam="1">  1        1 0.39043803E+00 0.42340534E+04</pdfrwt>
<pdfrwt beam="2">  1       -1 0.27169012E+00 0.42340534E+04</pdfrwt>
<totfact> 0.49328768E-02</totfact>
</mgrwt>
</event>
<event>
 6    1  0.9562506E-007  0.2169291E+04  0.7818608E-02  0.8531320E-01
          2   -1    0    0  501    0  0.00000000000E+00  0.00000000000E+00  0.16383275966E+04  0.16383275966E+04  0.00000000000E+00 0. -1.
         -2   -1    0    0    0  501 -0.00000000000E+00 -0.00000000000E+00 -0.71808352726E+03  0.71808352726E+03  0.00000000000E+00 0.  1.
         23    2    1    2    0    0  0.32234818431E+03  0.59139878249E+02  0.15819180566E+04  0.16180221054E+04  0.90138331088E+02 0.  0.
         13    1    3    3    0    0  0.25629123913E+03  0.13950184867E+02  0.11036274990E+04  0.11330814020E+04  0.00000000000E+00 0. -1.
        -13    1    3    3    0    0  0.66056945186E+02  0.45189693382E+02  0.47829055759E+03  0.48494070346E+03  0.00000000000E+00 0.  1.
         22    1    1    2    0    0 -0.32234818431E+03 -0.59139878249E+02 -0.66167398726E+03  0.73838901844E+03  0.00000000000E+00 0.  1.
<mgrwt>
<rscale>  0 0.21692912E+04</rscale>
<asrwt>0</asrwt>
<pdfrwt beam="1">  1        2 0.25205040E+00 0.21692912E+04</pdfrwt>
<pdfrwt beam="2">  1       -2 0.11047439E+00 0.21692912E+04</pdfrwt>
<totfact> 0.63250945E+00</totfact>
</mgrwt>
</event>
<event>
 6    1  0.9562506E-007  0.8910879E+03  0.7818608E-02  0.9436791E-01
         -1   -1    0    0    0  501 -0.00000000000E+00  0.00000000000E+00  0.96464276701E+03  0.96464276701E+03  0.00000000000E+00 0.  1.
          1   -1    0    0  501    0  0.00000000000E+00 -0.00000000000E+00 -0.20578543212E+03  0.20578543212E+03  0.00000000000E+00 0. -1.
         23    2    1    2    0    0 -0.34563435251E+03 -0.14300383974E+03  0.68887290586E+03  0.78988776222E+03  0.97280998471E+02 0.  0.
         13    1    3    3    0    0 -0.15431169759E+03 -0.76789919707E+02  0.41447000068E+03  0.44888102348E+03  0.00000000000E+00 0.  1.
        -13    1    3    3    0    0 -0.19132265492E+03 -0.66213920034E+02  0.27440290518E+03  0.34100673874E+03  0.00000000000E+00 0. -1.
         22    1    1    2    0    0  0.34563435251E+03  0.14300383974E+03  0.69984429030E+02  0.38054043690E+03  0.00000000000E+00 0. -1.
<mgrwt>
<rscale>  0 0.89108794E+03</rscale>
<asrwt>0</asrwt>
<pdfrwt beam="1">  1        1 0.31659298E-01 0.89108794E+03</pdfrwt>
<pdfrwt beam="2">  1       -1 0.14840658E+00 0.89108794E+03</pdfrwt>
<totfact> 0.51950810E+01</totfact>
</mgrwt>
</event>
<event>
 6    1  0.9562506E-007  0.2182300E+04  0.7818608E-02  0.8525832E-01
         -2   -1    0    0    0  501 -0.00000000000E+00  0.00000000000E+00  0.83426997305E+03  0.83426997305E+03  0.00000000000E+00 0.  1.
          2   -1    0    0  501    0  0.00000000000E+00 -0.00000000000E+00 -0.14271254359E+04  0.14271254359E+04  0.00000000000E+00 0. -1.
         23    2    1    2    0    0 -0.87130115290E+02 -0.90558243931E+03  0.32379570792E+03  0.96991541288E+03  0.90669930474E+02 0.  0.
         11    1    3    3    0    0 -0.76771290644E+02 -0.62796020979E+03  0.26528251809E+03  0.68600486190E+03  0.00000000000E+00 0. -1.
        -11    1    3    3    0    0 -0.10358824645E+02 -0.27762222953E+03  0.58513189829E+02  0.28391055098E+03  0.00000000000E+00 0.  1.
         22    1    1    2    0    0  0.87130115290E+02  0.90558243931E+03 -0.91665117074E+03  0.12914799961E+04  0.00000000000E+00 0. -1.
<mgrwt>
<rscale>  0 0.21822996E+04</rscale>
<asrwt>0</asrwt>
<pdfrwt beam="1">  1        2 0.21955776E+00 0.21822996E+04</pdfrwt>
<pdfrwt beam="2">  1       -2 0.12834923E+00 0.21822996E+04</pdfrwt>
<totfact> 0.57344122E+00</totfact>
</mgrwt>
</event>
<event>
 6    1  0.9562506E-007  0.5661843E+03  0.7818608E-02  0.9978158E-01
         -2   -1    0    0    0  501 -0.00000000000E+00  0.00000000000E+00  0.33514164831E+03  0.33514164831E+03  0.00000000000E+00 0.  1.
          2   -1    0    0  501    0  0.00000000000E+00 -0.00000000000E+00 -0.23912622013E+03  0.23912622013E+03  0.00000000000E+00 0. -1.
         23    2    1    2    0    0 -0.66749251863E+02 -0.11681181836E+03 -0.19562851730E+03  0.25308777182E+03  0.87649528973E+02 0.  0.
         11    1    3    3    0    0 -0.81841191457E+02 -0.87034862060E+02 -0.11501646078E+03  0.16583676939E+03  0.00000000000E+00 0. -1.
        -11    1    3    3    0    0  0.15091939594E+02 -0.29776956302E+02 -0.80612056521E+02  0.87251002423E+02  0.00000000000E+00 0.  1.
         22    1    1    2    0    0  0.66749251863E+02  0.11681181836E+03  0.29164394548E+03  0.32118009662E+03  0.00000000000E+00 0.  1.
<mgrwt>
<rscale>  0 0.56618427E+03</rscale>
<asrwt>0</asrwt>
<pdfrwt beam="1">  1        2 0.36788649E-01 0.56618427E+03</pdfrwt>
<pdfrwt beam="2">  1       -2 0.51560254E-01 0.56618427E+03</pdfrwt>
<totfact> 0.50676453E+02</totfact>
</mgrwt>
</event>
<event>
 6    1  0.9562506E-007  0.2660242E+04  0.7818608E-02  0.8348021E-01
         -2   -1    0    0    0  501 -0.00000000000E+00  0.00000000000E+00  0.10204852018E+04  0.10204852018E+04  0.00000000000E+00 0.  1.
          2   -1    0    0  501    0  0.00000000000E+00 -0.00000000000E+00 -0.17337069428E+04  0.17337069428E+04  0.00000000000E+00 0. -1.
         23    2    1    2    0    0  0.18674466123E+03 -0.40813802343E+03 -0.16516897482E+04  0.17139169813E+04  0.89343044171E+02 0.  0.
         11    1    3    3    0    0  0.28832691469E+01 -0.37269659286E+02 -0.75066380558E+02  0.83858823235E+02  0.00000000000E+00 0. -1.
        -11    1    3    3    0    0  0.18386139208E+03 -0.37086836415E+03 -0.15766233677E+04  0.16300581580E+04  0.00000000000E+00 0.  1.
         22    1    1    2    0    0 -0.18674466123E+03  0.40813802343E+03  0.93846800732E+03  0.10402751633E+04  0.00000000000E+00 0.  1.
<mgrwt>
<rscale>  0 0.26602423E+04</rscale>
<asrwt>0</asrwt>
<pdfrwt beam="1">  1        2 0.26672414E+00 0.26602423E+04</pdfrwt>
<pdfrwt beam="2">  1       -2 0.15699773E+00 0.26602423E+04</pdfrwt>
<totfact> 0.21926894E+00</totfact>
</mgrwt>
</event>
<event>
 6    1  0.9562506E-007  0.2494113E+04  0.7818608E-02  0.8405086E-01
          2   -1    0    0  501    0  0.00000000000E+00  0.00000000000E+00  0.28168229476E+04  0.28168229476E+04  0.00000000000E+00 0. -1.
         -2   -1    0    0    0  501 -0.00000000000E+00 -0.00000000000E+00 -0.55209357705E+03  0.55209357705E+03  0.00000000000E+00 0.  1.
         23    2    1    2    0    0 -0.67999441113E+03  0.50423416421E+03 -0.99878859573E+02  0.85734001308E+03  0.91714883845E+02 0.  0.
         13    1    3    3    0    0 -0.29115619351E+03  0.17279005799E+03 -0.68633741647E+02  0.34545466222E+03  0.00000000000E+00 0. -1.
        -13    1    3    3    0    0 -0.38883821762E+03  0.33144410622E+03 -0.31245117926E+02  0.51188535086E+03  0.00000000000E+00 0.  1.
         22    1    1    2    0    0  0.67999441113E+03 -0.50423416421E+03  0.23646082302E+04  0.25115765116E+04  0.00000000000E+00 0. -1.
<mgrwt>
<rscale>  0 0.24941130E+04</rscale>
<asrwt>0</asrwt>
<pdfrwt beam="1">  1        2 0.43335737E+00 0.24941130E+04</pdfrwt>
<pdfrwt beam="2">  1       -2 0.84937475E-01 0.24941130E+04</pdfrwt>
<totfact> 0.24324941E+00</totfact>
</mgrwt>
</event>
<event>
 6    1  0.9562506E-007  0.1818505E+04  0.7818608E-02  0.8696520E-01
          2   -1    0    0  501    0  0.00000000000E+00  0.00000000000E+00  0.85073857205E+03  0.85073857205E+03  0.00000000000E+00 0. -1.
         -2   -1    0    0    0  501 -0.00000000000E+00 -0.00000000000E+00 -0.97179112100E+03  0.97179112100E+03  0.00000000000E+00 0.  1.
         23    2    1    2    0    0  0.35520804569E+03  0.17921315024E+03 -0.87749479413E+03  0.96783970291E+03  0.91795794396E+02 0.  0.
         13    1    3    3    0    0  0.10423344257E+03  0.63131289214E+02 -0.37476271846E+03  0.39407774027E+03  0.00000000000E+00 0. -1.
        -13    1    3    3    0    0  0.25097460312E+03  0.11608186103E+03 -0.50273207567E+03  0.57376196264E+03  0.00000000000E+00 0.  1.
         22    1    1    2    0    0 -0.35520804569E+03 -0.17921315024E+03  0.75644224518E+03  0.85468999013E+03  0.00000000000E+00 0. -1.
<mgrwt>
<rscale>  0 0.18185051E+04</rscale>
<asrwt>0</asrwt>
<pdfrwt beam="1">  1        2 0.13088286E+00 0.18185051E+04</pdfrwt>
<pdfrwt beam="2">  1       -2 0.14950633E+00 0.18185051E+04</pdfrwt>
<totfact> 0.90296237E+00</totfact>
</mgrwt>
</event>
<event>
 6    1  0.9562506E-007  0.1762168E+04  0.7818608E-02  0.8726681E-01
         -3   -1    0    0    0  501 -0.00000000000E+00  0.00000000000E+00  0.53289462281E+03  0.53289462281E+03  0.00000000000E+00 0.  1.
          3   -1    0    0  501    0  0.00000000000E+00 -0.00000000000E+00 -0.14567782883E+04  0.14567782883E+04  0.00000000000E+00 0. -1.
         23    2    1    2    0    0  0.22504139794E+03 -0.18264112275E+03  0.47352350952E+03  0.56252602895E+03  0.90606890831E+02 0.  0.
         13    1    3    3    0    0  0.95801866631E+02 -0.11538955011E+03  0.30413100790E+03  0.33909941889E+03  0.00000000000E+00 0. -1.
        -13    1    3    3    0    0  0.12923953131E+03 -0.67251572642E+02  0.16939250162E+03  0.22342661006E+03  0.00000000000E+00 0.  1.
         22    1    1    2    0    0 -0.22504139794E+03  0.18264112275E+03 -0.13974071750E+04  0.14271468822E+04  0.00000000000E+00 0. -1.
<mgrwt>
<rscale>  0 0.17621683E+04</rscale>
<asrwt>0</asrwt>
<pdfrwt beam="1">  1        3 0.22411974E+00 0.17621683E+04</pdfrwt>
<pdfrwt beam="2">  1       -3 0.81983788E-01 0.17621683E+04</pdfrwt>
<totfact> 0.35744464E-01</totfact>
</mgrwt>
</event>
<event>
 6    1  0.9562506E-007  0.2385332E+04  0.7818608E-02  0.8445016E-01
          1   -1    0    0  501    0  0.00000000000E+00  0.00000000000E+00  0.16785106696E+04  0.16785106696E+04  0.00000000000E+00 0. -1.
         -1   -1    0    0    0  501 -0.00000000000E+00 -0.00000000000E+00 -0.84744883731E+03  0.84744883731E+03  0.00000000000E+00 0.  1.
         23    2    1    2    0    0  0.12711114376E+03  0.11777057884E+04  0.28588865476E+03  0.12219802277E+04  0.91406712357E+02 0.  0.
         11    1    3    3    0    0  0.83648876275E+01  0.27510117224E+03  0.99870108052E+02  0.29278774701E+03  0.00000000000E+00 0. -1.
        -11    1    3    3    0    0  0.11874625613E+03  0.90260461620E+03  0.18601854670E+03  0.92919248073E+03  0.00000000000E+00 0.  1.
         22    1    1    2    0    0 -0.12711114376E+03 -0.11777057884E+04  0.54517317755E+03  0.13039792792E+04  0.00000000000E+00 0.  1.
<mgrwt>
<rscale>  0 0.23853318E+04</rscale>
<asrwt>0</asrwt>
<pdfrwt beam="1">  1        1 0.25823241E+00 0.23853318E+04</pdfrwt>
<pdfrwt beam="2">  1       -1 0.13037674E+00 0.23853318E+04</pdfrwt>
<totfact> 0.22268144E+00</totfact>
</mgrwt>
</event>
<event>
 6    1  0.9562506E-007  0.2439263E+04  0.7818608E-02  0.8424949E-01
          1   -1    0    0  501    0  0.00000000000E+00  0.00000000000E+00  0.66822862771E+03  0.66822862771E+03  0.00000000000E+00 0. -1.
         -1   -1    0    0    0  501 -0.00000000000E+00 -0.00000000000E+00 -0.22260356047E+04  0.22260356047E+04  0.00000000000E+00 0.  1.
         23    2    1    2    0    0  0.10189120021E+04 -0.54683446151E+03 -0.32667386158E+03  0.12052117335E+04  0.92789623599E+02 0.  0.
         11    1    3    3    0    0  0.91251344385E+03 -0.51432546580E+03 -0.31223633158E+03  0.10930247009E+04  0.00000000000E+00 0.  1.
        -11    1    3    3    0    0  0.10639855828E+03 -0.32508995708E+02 -0.14437530000E+02  0.11218703257E+03  0.00000000000E+00 0. -1.
         22    1    1    2    0    0 -0.10189120021E+04  0.54683446151E+03 -0.12311331154E+04  0.16890524990E+04  0.00000000000E+00 0.  1.
<mgrwt>
<rscale>  0 0.24392628E+04</rscale>
<asrwt>0</asrwt>
<pdfrwt beam="1">  1        1 0.10280441E+00 0.24392628E+04</pdfrwt>
<pdfrwt beam="2">  1       -1 0.34246701E+00 0.24392628E+04</pdfrwt>
<totfact> 0.45504586E-01</totfact>
</mgrwt>
</event>
<event>
 6    1  0.9562506E-007  0.8490919E+03  0.7818608E-02  0.9491557E-01
          1   -1    0    0  501    0  0.00000000000E+00  0.00000000000E+00  0.54017713167E+03  0.54017713167E+03  0.00000000000E+00 0. -1.
         -1   -1    0    0    0  501 -0.00000000000E+00 -0.00000000000E+00 -0.33366696708E+03  0.33366696708E+03  0.00000000000E+00 0.  1.
         23    2    1    2    0    0 -0.28753765576E+03 -0.24855280617E+03  0.28638203318E+03  0.48546810010E+03  0.95959399466E+02 0.  0.
         13    1    3    3    0    0 -0.16288209553E+03 -0.11225254949E+03  0.94840805678E+02  0.21937636685E+03  0.00000000000E+00 0.  1.
        -13    1    3    3    0    0 -0.12465556023E+03 -0.13630025668E+03  0.19154122751E+03  0.26609173325E+03  0.00000000000E+00 0. -1.
         22    1    1    2    0    0  0.28753765576E+03  0.24855280617E+03 -0.79871868601E+02  0.38837599865E+03  0.00000000000E+00 0. -1.
<mgrwt>
<rscale>  0 0.84909190E+03</rscale>
<asrwt>0</asrwt>
<pdfrwt beam="1">  1        1 0.83104174E-01 0.84909190E+03</pdfrwt>
<pdfrwt beam="2">  1       -1 0.51333380E-01 0.84909190E+03</pdfrwt>
<totfact> 0.15337250E+02</totfact>
</mgrwt>
</event>
<event>
 6    1  0.9562506E-007  0.8005226E+03  0.7818608E-02  0.9559261E-01
          2   -1    0    0  501    0  0.00000000000E+00  0.00000000000E+00  0.17088270777E+04  0.17088270777E+04  0.00000000000E+00 0. -1.
         -2   -1    0    0    0  501 -0.00000000000E+00 -0.00000000000E+00 -0.93753833661E+02  0.93753833661E+02  0.00000000000E+00 0.  1.
         23    2    1    2    0    0  0.24570260145E+03 -0.21280863932E+03  0.13234189250E+04  0.13658664427E+04  0.92174849436E+02 0.  0.
         11    1    3    3    0    0  0.11069570193E+03 -0.38294093584E+02  0.44376269899E+03  0.45896111932E+03  0.00000000000E+00 0. -1.
        -11    1    3    3    0    0  0.13500689952E+03 -0.17451454574E+03  0.87965622604E+03  0.90690532340E+03  0.00000000000E+00 0.  1.
         22    1    1    2    0    0 -0.24570260145E+03  0.21280863932E+03  0.29165431900E+03  0.43671446864E+03  0.00000000000E+00 0.  1.
<mgrwt>
<rscale>  0 0.80052255E+03</rscale>
<asrwt>0</asrwt>
<pdfrwt beam="1">  1        2 0.26289645E+00 0.80052255E+03</pdfrwt>
<pdfrwt beam="2">  1       -2 0.14423668E-01 0.80052255E+03</pdfrwt>
<totfact> 0.36784290E+02</totfact>
</mgrwt>
</event>
<event>
 6    1  0.9562506E-007  0.2294436E+04  0.7818608E-02  0.8480118E-01
         -1   -1    0    0    0  501 -0.00000000000E+00  0.00000000000E+00  0.15149015662E+04  0.15149015662E+04  0.00000000000E+00 0.  1.
          1   -1    0    0  501    0  0.00000000000E+00 -0.00000000000E+00 -0.86877531245E+03  0.86877531245E+03  0.00000000000E+00 0. -1.
         23    2    1    2    0    0  0.36720078508E+03 -0.91792203004E+02  0.14469053499E+04  0.14979515342E+04  0.84032624356E+02 0.  0.
         13    1    3    3    0    0  0.26695904893E+03 -0.10435112484E+03  0.10580178048E+04  0.10961559954E+04  0.00000000000E+00 0. -1.
        -13    1    3    3    0    0  0.10024173615E+03  0.12558921832E+02  0.38888754518E+03  0.40179553877E+03  0.00000000000E+00 0.  1.
         22    1    1    2    0    0 -0.36720078508E+03  0.91792203004E+02 -0.80077909614E+03  0.88572534452E+03  0.00000000000E+00 0. -1.
<mgrwt>
<rscale>  0 0.22944359E+04</rscale>
<asrwt>0</asrwt>
<pdfrwt beam="1">  1        1 0.13365774E+00 0.22944359E+04</pdfrwt>
<pdfrwt beam="2">  1       -1 0.23306178E+00 0.22944359E+04</pdfrwt>
<totfact> 0.15732261E+00</totfact>
</mgrwt>
</event>
<event>
 6    1  0.9562506E-007  0.2017015E+04  0.7818608E-02  0.8598707E-01
         -3   -1    0    0    0  501 -0.00000000000E+00  0.00000000000E+00  0.27093514673E+04  0.27093514673E+04  0.00000000000E+00 0.  1.
          3   -1    0    0  501    0  0.00000000000E+00 -0.00000000000E+00 -0.37539893848E+03  0.37539893848E+03  0.00000000000E+00 0. -1.
         23    2    1    2    0    0  0.49943925573E+03 -0.28131211700E+03 -0.92842344329E+02  0.59117677870E+03  0.11087923807E+03 0.  0.
         11    1    3    3    0    0  0.11602939512E+03 -0.10528130925E+03  0.98023565243E+01  0.15698108422E+03  0.00000000000E+00 0.  1.
        -11    1    3    3    0    0  0.38340986061E+03 -0.17603080775E+03 -0.10264470085E+03  0.43419569448E+03  0.00000000000E+00 0. -1.
         22    1    1    2    0    0 -0.49943925573E+03  0.28131211700E+03  0.24267948732E+04  0.24935736271E+04  0.00000000000E+00 0.  1.
<mgrwt>
<rscale>  0 0.20170153E+04</rscale>
<asrwt>0</asrwt>
<pdfrwt beam="1">  1        3 0.57753685E-01 0.20170153E+04</pdfrwt>
<pdfrwt beam="2">  1       -3 0.41682329E+00 0.20170153E+04</pdfrwt>
<totfact> 0.61186053E-02</totfact>
</mgrwt>
</event>
<event>
 6    1  0.9562506E-007  0.1654365E+04  0.7818608E-02  0.8787828E-01
         -3   -1    0    0    0  501 -0.00000000000E+00  0.00000000000E+00  0.10994714782E+04  0.10994714782E+04  0.00000000000E+00 0.  1.
          3   -1    0    0  501    0  0.00000000000E+00 -0.00000000000E+00 -0.62232702568E+03  0.62232702568E+03  0.00000000000E+00 0. -1.
         23    2    1    2    0    0 -0.60380092555E+03  0.20534781993E+03 -0.30459671244E+03  0.71290676844E+03  0.93346764336E+02 0.  0.
         11    1    3    3    0    0 -0.20571968439E+03  0.11548950005E+03 -0.97565429395E+02  0.25529869992E+03  0.00000000000E+00 0.  1.
        -11    1    3    3    0    0 -0.39808124116E+03  0.89858319883E+02 -0.20703128304E+03  0.45760806852E+03  0.00000000000E+00 0. -1.
         22    1    1    2    0    0  0.60380092555E+03 -0.20534781993E+03  0.78174116495E+03  0.10088917354E+04  0.00000000000E+00 0. -1.
<mgrwt>
<rscale>  0 0.16543649E+04</rscale>
<asrwt>0</asrwt>
<pdfrwt beam="1">  1        3 0.95742620E-01 0.16543649E+04</pdfrwt>
<pdfrwt beam="2">  1       -3 0.16914946E+00 0.16543649E+04</pdfrwt>
<totfact> 0.56724645E-01</totfact>
</mgrwt>
</event>
<event>
 6    1  0.9562506E-007  0.9495076E+03  0.7818608E-02  0.9365726E-01
         -2   -1    0    0    0  501 -0.00000000000E+00  0.00000000000E+00  0.44046483320E+03  0.44046483320E+03  0.00000000000E+00 0.  1.
          2   -1    0    0  501    0  0.00000000000E+00 -0.00000000000E+00 -0.51171206099E+03  0.51171206099E+03  0.00000000000E+00 0. -1.
         23    2    1    2    0    0  0.28270800929E+03  0.34584328505E+03  0.11139575019E+03  0.46959026596E+03  0.92599181376E+02 0.  0.
         13    1    3    3    0    0  0.19366038563E+03  0.25707185241E+03  0.38235320280E+02  0.32411760517E+03  0.00000000000E+00 0. -1.
        -13    1    3    3    0    0  0.89047623661E+02  0.88771432642E+02  0.73160429910E+02  0.14547266079E+03  0.00000000000E+00 0.  1.
         22    1    1    2    0    0 -0.28270800929E+03 -0.34584328505E+03 -0.18264297798E+03  0.48258662822E+03  0.00000000000E+00 0. -1.
<mgrwt>
<rscale>  0 0.94950759E+03</rscale>
<asrwt>0</asrwt>
<pdfrwt beam="1">  1        2 0.78724932E-01 0.94950759E+03</pdfrwt>
<pdfrwt beam="2">  1       -2 0.67763821E-01 0.94950759E+03</pdfrwt>
<totfact> 0.11979405E+02</totfact>
</mgrwt>
</event>
<event>
 6    1  0.9562506E-007  0.2305007E+04  0.7818608E-02  0.8475949E-01
          2   -1    0    0  501    0  0.00000000000E+00  0.00000000000E+00  0.19624061227E+04  0.19624061227E+04  0.00000000000E+00 0. -1.
         -2   -1    0    0    0  501 -0.00000000000E+00 -0.00000000000E+00 -0.67685506882E+03  0.67685506882E+03  0.00000000000E+00 0.  1.
         23    2    1    2    0    0 -0.17240001759E+03 -0.48602802764E+03 -0.53401282642E+03  0.74802939076E+03  0.91832787941E+02 0.  0.
         11    1    3    3    0    0 -0.14903682930E+03 -0.28777402835E+03 -0.32303722287E+03  0.45757940867E+03  0.00000000000E+00 0.  1.
        -11    1    3    3    0    0 -0.23363188295E+02 -0.19825399930E+03 -0.21097560355E+03  0.29044998209E+03  0.00000000000E+00 0. -1.
         22    1    1    2    0    0  0.17240001759E+03  0.48602802764E+03  0.18195638803E+04  0.18912318008E+04  0.00000000000E+00 0. -1.
<mgrwt>
<rscale>  0 0.23050072E+04</rscale>
<asrwt>0</asrwt>
<pdfrwt beam="1">  1        2 0.30190863E+00 0.23050072E+04</pdfrwt>
<pdfrwt beam="2">  1       -2 0.10413155E+00 0.23050072E+04</pdfrwt>
<totfact> 0.47642110E+00</totfact>
</mgrwt>
</event>
<event>
 6    1  0.1041161E-006  0.3023808E+04  0.7818608E-02  0.8236965E-01
          1   -1    0    0  501    0  0.00000000000E+00  0.00000000000E+00  0.16568496719E+04  0.16568496719E+04  0.00000000000E+00 0. -1.
         -1   -1    0    0    0  501 -0.00000000000E+00 -0.00000000000E+00 -0.13796385327E+04  0.13796385327E+04  0.00000000000E+00 0.  1.
         23    2    1    2    0    0  0.93023465833E+03  0.26810981172E+03  0.13031269531E+04  0.16259129149E+04  0.90738968116E+02 0.  0.
         11    1    3    3    0    0  0.26382982269E+03  0.55534147228E+02  0.42398595450E+03  0.50244831223E+03  0.00000000000E+00 0. -1.
        -11    1    3    3    0    0  0.66640483564E+03  0.21257566449E+03  0.87914099863E+03  0.11234646027E+04  0.00000000000E+00 0.  1.
         22    1    1    2    0    0 -0.93023465833E+03 -0.26810981172E+03 -0.10259158139E+04  0.14105752897E+04  0.00000000000E+00 0.  1.
<mgrwt>
<rscale>  0 0.30238080E+04</rscale>
<asrwt>0</asrwt>
<pdfrwt beam="1">  1        1 0.25489995E+00 0.30238080E+04</pdfrwt>
<pdfrwt beam="2">  1       -1 0.21225208E+00 0.30238080E+04</pdfrwt>
<totfact> 0.53774038E-01</totfact>
</mgrwt>
</event>
<event>
 6    1  0.9562506E-007  0.1779555E+04  0.7818608E-02  0.8717248E-01
          2   -1    0    0  501    0  0.00000000000E+00  0.00000000000E+00  0.11133843884E+04  0.11133843884E+04  0.00000000000E+00 0. -1.
         -2   -1    0    0    0  501 -0.00000000000E+00 -0.00000000000E+00 -0.71107915121E+03  0.71107915121E+03  0.00000000000E+00 0.  1.
         23    2    1    2    0    0 -0.71982805932E+02  0.30083428528E+03  0.10544726894E+04  0.11026566560E+04  0.90863946256E+02 0.  0.
         13    1    3    3    0    0 -0.58725838064E+02  0.20023297611E+03  0.55386418145E+03  0.59186780642E+03  0.00000000000E+00 0.  1.
        -13    1    3    3    0    0 -0.13256967868E+02  0.10060130917E+03  0.50060850793E+03  0.51078884955E+03  0.00000000000E+00 0. -1.
         22    1    1    2    0    0  0.71982805932E+02 -0.30083428528E+03 -0.65216745221E+03  0.72180688364E+03  0.00000000000E+00 0.  1.
<mgrwt>
<rscale>  0 0.17795555E+04</rscale>
<asrwt>0</asrwt>
<pdfrwt beam="1">  1        2 0.17128991E+00 0.17795555E+04</pdfrwt>
<pdfrwt beam="2">  1       -2 0.10939679E+00 0.17795555E+04</pdfrwt>
<totfact> 0.13460860E+01</totfact>
</mgrwt>
</event>
<event>
 6    1  0.9562506E-007  0.8391238E+03  0.7818608E-02  0.9505052E-01
         -2   -1    0    0    0  501 -0.00000000000E+00  0.00000000000E+00  0.57332147069E+02  0.57332147069E+02  0.00000000000E+00 0.  1.
          2   -1    0    0  501    0  0.00000000000E+00 -0.00000000000E+00 -0.30703927347E+04  0.30703927347E+04  0.00000000000E+00 0. -1.
         23    2    1    2    0    0 -0.10563691125E+03 -0.81389661588E+02 -0.29876679823E+04  0.29919743074E+04  0.89257212926E+02 0.  0.
         11    1    3    3    0    0  0.13853897672E+02 -0.20189712980E+02 -0.32315327677E+03  0.32407961256E+03  0.00000000000E+00 0.  1.
        -11    1    3    3    0    0 -0.11949080892E+03 -0.61199948608E+02 -0.26645147055E+04  0.26678946949E+04  0.00000000000E+00 0. -1.
         22    1    1    2    0    0  0.10563691125E+03  0.81389661588E+02 -0.25392605399E+02  0.13575057437E+03  0.00000000000E+00 0.  1.
<mgrwt>
<rscale>  0 0.83912385E+03</rscale>
<asrwt>0</asrwt>
<pdfrwt beam="1">  1        2 0.47236827E+00 0.83912385E+03</pdfrwt>
<pdfrwt beam="2">  1       -2 0.88203274E-02 0.83912385E+03</pdfrwt>
<totfact> 0.13843412E+02</totfact>
</mgrwt>
</event>
<event>
 6    1  0.9562506E-007  0.3494902E+04  0.7818608E-02  0.8114999E-01
         -2   -1    0    0    0  501 -0.00000000000E+00  0.00000000000E+00  0.75199234085E+03  0.75199234085E+03  0.00000000000E+00 0.  1.
          2   -1    0    0  501    0  0.00000000000E+00 -0.00000000000E+00 -0.40606604678E+04  0.40606604678E+04  0.00000000000E+00 0. -1.
         23    2    1    2    0    0  0.59672956942E+03  0.10793408744E+04 -0.33578728722E+04  0.35783578645E+04  0.90949865308E+02 0.  0.
         11    1    3    3    0    0  0.18119479641E+03  0.27865322382E+03 -0.81245348022E+03  0.87781537405E+03  0.00000000000E+00 0.  1.
        -11    1    3    3    0    0  0.41553477301E+03  0.80068765063E+03 -0.25454193920E+04  0.27005424904E+04  0.00000000000E+00 0. -1.
         22    1    1    2    0    0 -0.59672956942E+03 -0.10793408744E+04  0.49204745272E+02  0.12342949442E+04  0.00000000000E+00 0.  1.
<mgrwt>
<rscale>  0 0.34949023E+04</rscale>
<asrwt>0</asrwt>
<pdfrwt beam="1">  1        2 0.62471701E+00 0.34949023E+04</pdfrwt>
<pdfrwt beam="2">  1       -2 0.11569113E+00 0.34949023E+04</pdfrwt>
<totfact> 0.14535295E-01</totfact>
</mgrwt>
</event>
<event>
 6    1  0.9562506E-007  0.8381160E+03  0.7818608E-02  0.9506428E-01
         -2   -1    0    0    0  501 -0.00000000000E+00  0.00000000000E+00  0.10068657129E+03  0.10068657129E+03  0.00000000000E+00 0.  1.
          2   -1    0    0  501    0  0.00000000000E+00 -0.00000000000E+00 -0.17441213319E+04  0.17441213319E+04  0.00000000000E+00 0. -1.
         23    2    1    2    0    0  0.25804893091E+03  0.18510021003E+03 -0.24579614739E+03  0.41154413415E+03  0.90008276175E+02 0.  0.
         13    1    3    3    0    0  0.48428849047E+02  0.42696428064E+01 -0.14319464152E+02  0.50681656675E+02  0.00000000000E+00 0.  1.
        -13    1    3    3    0    0  0.20962008187E+03  0.18083056723E+03 -0.23147668324E+03  0.36086247747E+03  0.00000000000E+00 0. -1.
         22    1    1    2    0    0 -0.25804893091E+03 -0.18510021003E+03 -0.13976386133E+04  0.14332637691E+04  0.00000000000E+00 0. -1.
<mgrwt>
<rscale>  0 0.83811597E+03</rscale>
<asrwt>0</asrwt>
<pdfrwt beam="1">  1        2 0.26832634E+00 0.83811597E+03</pdfrwt>
<pdfrwt beam="2">  1       -2 0.15490243E-01 0.83811597E+03</pdfrwt>
<totfact> 0.31101975E+02</totfact>
</mgrwt>
</event>
<event>
 6    1  0.9562506E-007  0.9037388E+03  0.7818608E-02  0.9420920E-01
         -2   -1    0    0    0  501 -0.00000000000E+00  0.00000000000E+00  0.92318431781E+02  0.92318431781E+02  0.00000000000E+00 0.  1.
          2   -1    0    0  501    0  0.00000000000E+00 -0.00000000000E+00 -0.22117573559E+04  0.22117573559E+04  0.00000000000E+00 0. -1.
         23    2    1    2    0    0 -0.19220716436E+03  0.31648447992E+03 -0.43037105129E+03  0.57489786188E+03  0.90456009996E+02 0.  0.
         11    1    3    3    0    0 -0.63194980609E+02  0.10060939106E+03 -0.78526812978E+02  0.14241599454E+03  0.00000000000E+00 0. -1.
        -11    1    3    3    0    0 -0.12901218375E+03  0.21587508886E+03 -0.35184423831E+03  0.43248186734E+03  0.00000000000E+00 0.  1.
         22    1    1    2    0    0  0.19220716436E+03 -0.31648447992E+03 -0.16890678728E+04  0.17291779258E+04  0.00000000000E+00 0. -1.
<mgrwt>
<rscale>  0 0.90373884E+03</rscale>
<asrwt>0</asrwt>
<pdfrwt beam="1">  1        2 0.34027035E+00 0.90373884E+03</pdfrwt>
<pdfrwt beam="2">  1       -2 0.14202836E-01 0.90373884E+03</pdfrwt>
<totfact> 0.19847338E+02</totfact>
</mgrwt>
</event>
<event>
 6    1  0.9562506E-007  0.3476169E+04  0.7818608E-02  0.8119461E-01
          2   -1    0    0  501    0  0.00000000000E+00  0.00000000000E+00  0.31552797131E+04  0.31552797131E+04  0.00000000000E+00 0. -1.
         -2   -1    0    0    0  501 -0.00000000000E+00 -0.00000000000E+00 -0.95742310811E+03  0.95742310811E+03  0.00000000000E+00 0.  1.
         23    2    1    2    0    0  0.13433167958E+04 -0.10367677597E+04  0.66115259316E+03  0.18234132761E+04  0.91245946195E+02 0.  0.
         13    1    3    3    0    0  0.91110188026E+03 -0.67007447165E+03  0.40360599845E+03  0.12008348079E+04  0.00000000000E+00 0. -1.
        -13    1    3    3    0    0  0.43221491554E+03 -0.36669328801E+03  0.25754659471E+03  0.62257846825E+03  0.00000000000E+00 0.  1.
         22    1    1    2    0    0 -0.13433167958E+04  0.10367677597E+04  0.15367040118E+04  0.22892895451E+04  0.00000000000E+00 0. -1.
<mgrwt>
<rscale>  0 0.34761690E+04</rscale>
<asrwt>0</asrwt>
<pdfrwt beam="1">  1        2 0.48542764E+00 0.34761690E+04</pdfrwt>
<pdfrwt beam="2">  1       -2 0.14729586E+00 0.34761690E+04</pdfrwt>
<totfact> 0.35855312E-01</totfact>
</mgrwt>
</event>
<event>
 6    1  0.9562506E-007  0.3406212E+04  0.7818608E-02  0.8136383E-01
         -1   -1    0    0    0  501 -0.00000000000E+00  0.00000000000E+00  0.14018024831E+04  0.14018024831E+04  0.00000000000E+00 0.  1.
          1   -1    0    0  501    0  0.00000000000E+00 -0.00000000000E+00 -0.20691719259E+04  0.20691719259E+04  0.00000000000E+00 0. -1.
         23    2    1    2    0    0  0.50250768969E+03  0.11504060998E+04 -0.15049299165E+04  0.19618502526E+04  0.89967701181E+02 0.  0.
         11    1    3    3    0    0  0.22375628829E+03  0.57392398176E+03 -0.79654101999E+03  0.10069425058E+04  0.00000000000E+00 0. -1.
        -11    1    3    3    0    0  0.27875140140E+03  0.57648211800E+03 -0.70838889653E+03  0.95490774679E+03  0.00000000000E+00 0.  1.
         22    1    1    2    0    0 -0.50250768969E+03 -0.11504060998E+04  0.83756047363E+03  0.15091241564E+04  0.00000000000E+00 0.  1.
<mgrwt>
<rscale>  0 0.34062122E+04</rscale>
<asrwt>0</asrwt>
<pdfrwt beam="1">  1        1 0.31833414E+00 0.34062122E+04</pdfrwt>
<pdfrwt beam="2">  1       -1 0.21566192E+00 0.34062122E+04</pdfrwt>
<totfact> 0.25884489E-01</totfact>
</mgrwt>
</event>
<event>
 6    1  0.9562506E-007  0.1123916E+04  0.7818608E-02  0.9182190E-01
         -2   -1    0    0    0  501 -0.00000000000E+00  0.00000000000E+00  0.54862437643E+03  0.54862437643E+03  0.00000000000E+00 0.  1.
          2   -1    0    0  501    0  0.00000000000E+00 -0.00000000000E+00 -0.57561588775E+03  0.57561588775E+03  0.00000000000E+00 0. -1.
         23    2    1    2    0    0 -0.27839396123E+03  0.43285453975E+03  0.20250738781E+03  0.56073694126E+03  0.92468507814E+02 0.  0.
         11    1    3    3    0    0 -0.38260394890E+02  0.23793527650E+02  0.37176400589E+02  0.58412965478E+02  0.00000000000E+00 0.  1.
        -11    1    3    3    0    0 -0.24013356634E+03  0.40906101210E+03  0.16533098722E+03  0.50232397578E+03  0.00000000000E+00 0. -1.
         22    1    1    2    0    0  0.27839396123E+03 -0.43285453975E+03 -0.22949889913E+03  0.56350332292E+03  0.00000000000E+00 0. -1.
<mgrwt>
<rscale>  0 0.11239162E+04</rscale>
<asrwt>0</asrwt>
<pdfrwt beam="1">  1        2 0.88556290E-01 0.11239162E+04</pdfrwt>
<pdfrwt beam="2">  1       -2 0.84403751E-01 0.11239162E+04</pdfrwt>
<totfact> 0.63329763E+01</totfact>
</mgrwt>
</event>
<event>
 6    1  0.9562506E-007  0.3074879E+04  0.7818608E-02  0.8222666E-01
         -1   -1    0    0    0  501 -0.00000000000E+00  0.00000000000E+00  0.18361592173E+04  0.18361592173E+04  0.00000000000E+00 0.  1.
          1   -1    0    0  501    0  0.00000000000E+00 -0.00000000000E+00 -0.12873177376E+04  0.12873177376E+04  0.00000000000E+00 0. -1.
         23    2    1    2    0    0 -0.10597038941E+04  0.37939379615E+03 -0.78712940100E+03  0.13765567536E+04  0.91781295073E+02 0.  0.
         11    1    3    3    0    0 -0.26625171224E+03  0.94736033045E+02 -0.15036192124E+03  0.32011497558E+03  0.00000000000E+00 0. -1.
        -11    1    3    3    0    0 -0.79345218188E+03  0.28465776311E+03 -0.63676747976E+03  0.10564417780E+04  0.00000000000E+00 0.  1.
         22    1    1    2    0    0  0.10597038941E+04 -0.37939379615E+03  0.13359708807E+04  0.17469202014E+04  0.00000000000E+00 0.  1.
<mgrwt>
<rscale>  0 0.30748791E+04</rscale>
<asrwt>0</asrwt>
<pdfrwt beam="1">  1        1 0.19804888E+00 0.30748791E+04</pdfrwt>
<pdfrwt beam="2">  1       -1 0.28248604E+00 0.30748791E+04</pdfrwt>
<totfact> 0.33497044E-01</totfact>
</mgrwt>
</event>
<event>
 6    1  0.9562506E-007  0.2417506E+04  0.7818608E-02  0.8432979E-01
          2   -1    0    0  501    0  0.00000000000E+00  0.00000000000E+00  0.86768572129E+03  0.86768572129E+03  0.00000000000E+00 0. -1.
         -2   -1    0    0    0  501 -0.00000000000E+00 -0.00000000000E+00 -0.16838859677E+04  0.16838859677E+04  0.00000000000E+00 0.  1.
         23    2    1    2    0    0 -0.11922289397E+03  0.99874382520E+03 -0.11130588407E+04  0.15028446741E+04  0.89099971657E+02 0.  0.
         13    1    3    3    0    0 -0.30170185306E+02  0.61863833422E+03 -0.68135840176E+03  0.92080014134E+03  0.00000000000E+00 0.  1.
        -13    1    3    3    0    0 -0.89052708669E+02  0.38010549098E+03 -0.43170043890E+03  0.58204453278E+03  0.00000000000E+00 0. -1.
         22    1    1    2    0    0  0.11922289397E+03 -0.99874382520E+03  0.29685859422E+03  0.10487270149E+04  0.00000000000E+00 0. -1.
<mgrwt>
<rscale>  0 0.24175060E+04</rscale>
<asrwt>0</asrwt>
<pdfrwt beam="1">  1        2 0.13349011E+00 0.24175060E+04</pdfrwt>
<pdfrwt beam="2">  1       -2 0.25905938E+00 0.24175060E+04</pdfrwt>
<totfact> 0.15661757E+00</totfact>
</mgrwt>
</event>
<event>
 6    1  0.9562506E-007  0.4892335E+04  0.7818608E-02  0.7845334E-01
          1   -1    0    0  501    0  0.00000000000E+00  0.00000000000E+00  0.31434221271E+04  0.31434221271E+04  0.00000000000E+00 0. -1.
         -1   -1    0    0    0  501 -0.00000000000E+00 -0.00000000000E+00 -0.19035735326E+04  0.19035735326E+04  0.00000000000E+00 0.  1.
         23    2    1    2    0    0  0.17767959899E+03 -0.17730731252E+04  0.23477771453E+04  0.29486953902E+04  0.85957158350E+02 0.  0.
         13    1    3    3    0    0  0.11591582510E+03 -0.74047007278E+03  0.97186946349E+03  0.12272989291E+04  0.00000000000E+00 0.  1.
        -13    1    3    3    0    0  0.61763773889E+02 -0.10326030524E+04  0.13759076818E+04  0.17213964611E+04  0.00000000000E+00 0. -1.
         22    1    1    2    0    0 -0.17767959899E+03  0.17730731252E+04 -0.11079285509E+04  0.20983002695E+04  0.00000000000E+00 0.  1.
<mgrwt>
<rscale>  0 0.48923349E+04</rscale>
<asrwt>0</asrwt>
<pdfrwt beam="1">  1        1 0.48360340E+00 0.48923349E+04</pdfrwt>
<pdfrwt beam="2">  1       -1 0.29285747E+00 0.48923349E+04</pdfrwt>
<totfact> 0.12530792E-02</totfact>
</mgrwt>
</event>
<event>
 6    1  0.9562506E-007  0.1677747E+04  0.7818608E-02  0.8774159E-01
          2   -1    0    0  501    0  0.00000000000E+00  0.00000000000E+00  0.24555779670E+04  0.24555779670E+04  0.00000000000E+00 0. -1.
         -2   -1    0    0    0  501 -0.00000000000E+00 -0.00000000000E+00 -0.28657561346E+03  0.28657561346E+03  0.00000000000E+00 0.  1.
         23    2    1    2    0    0  0.42969961111E+03 -0.68857342205E+03  0.14177044803E+04  0.16361591828E+04  0.91409871707E+02 0.  0.
         11    1    3    3    0    0  0.21081410406E+03 -0.37353430157E+03  0.66476605255E+03  0.79112853920E+03  0.00000000000E+00 0. -1.
        -11    1    3    3    0    0  0.21888550705E+03 -0.31503912049E+03  0.75293842774E+03  0.84503064359E+03  0.00000000000E+00 0.  1.
         22    1    1    2    0    0 -0.42969961111E+03  0.68857342205E+03  0.75129787325E+03  0.11059943977E+04  0.00000000000E+00 0.  1.
<mgrwt>
<rscale>  0 0.16777470E+04</rscale>
<asrwt>0</asrwt>
<pdfrwt beam="1">  1        2 0.37778121E+00 0.16777470E+04</pdfrwt>
<pdfrwt beam="2">  1       -2 0.44088557E-01 0.16777470E+04</pdfrwt>
<totfact> 0.17201904E+01</totfact>
</mgrwt>
</event>
<event>
 6    1  0.9562506E-007  0.1690494E+04  0.7818608E-02  0.8766805E-01
         -2   -1    0    0    0  501 -0.00000000000E+00  0.00000000000E+00  0.48610539179E+03  0.48610539179E+03  0.00000000000E+00 0.  1.
          2   -1    0    0  501    0  0.00000000000E+00 -0.00000000000E+00 -0.14697273819E+04  0.14697273819E+04  0.00000000000E+00 0. -1.
         23    2    1    2    0    0  0.58118055732E+03  0.33173091890E+02  0.21197583971E+03  0.62604878188E+03  0.90177749131E+02 0.  0.
         11    1    3    3    0    0  0.13309911850E+03 -0.28963771939E+02  0.38418592306E+02  0.14152831401E+03  0.00000000000E+00 0.  1.
        -11    1    3    3    0    0  0.44808143882E+03  0.62136863829E+02  0.17355724741E+03  0.48452046787E+03  0.00000000000E+00 0. -1.
         22    1    1    2    0    0 -0.58118055732E+03 -0.33173091890E+02 -0.11955978299E+04  0.13297839919E+04  0.00000000000E+00 0. -1.
<mgrwt>
<rscale>  0 0.16904939E+04</rscale>
<asrwt>0</asrwt>
<pdfrwt beam="1">  1        2 0.22611190E+00 0.16904939E+04</pdfrwt>
<pdfrwt beam="2">  1       -2 0.74785446E-01 0.16904939E+04</pdfrwt>
<totfact> 0.20206474E+01</totfact>
</mgrwt>
</event>
<event>
 6    1  0.9562506E-007  0.3022325E+04  0.7818608E-02  0.8237384E-01
          1   -1    0    0  501    0  0.00000000000E+00  0.00000000000E+00  0.14563096222E+04  0.14563096222E+04  0.00000000000E+00 0. -1.
         -1   -1    0    0    0  501 -0.00000000000E+00 -0.00000000000E+00 -0.15680812403E+04  0.15680812403E+04  0.00000000000E+00 0.  1.
         23    2    1    2    0    0  0.11225740773E+04  0.10426785366E+03 -0.10604894778E+04  0.15509221925E+04  0.98373625468E+02 0.  0.
         11    1    3    3    0    0  0.85502503783E+03  0.38952711700E+02 -0.81920718211E+03  0.11847723563E+04  0.00000000000E+00 0. -1.
        -11    1    3    3    0    0  0.26754903952E+03  0.65315141961E+02 -0.24128229565E+03  0.36614983614E+03  0.00000000000E+00 0.  1.
         22    1    1    2    0    0 -0.11225740773E+04 -0.10426785366E+03  0.94871785959E+03  0.14734686700E+04  0.00000000000E+00 0. -1.
<mgrwt>
<rscale>  0 0.30223248E+04</rscale>
<asrwt>0</asrwt>
<pdfrwt beam="1">  1        1 0.22404763E+00 0.30223248E+04</pdfrwt>
<pdfrwt beam="2">  1       -1 0.24124327E+00 0.30223248E+04</pdfrwt>
<totfact> 0.47416711E-01</totfact>
</mgrwt>
</event>
<event>
 6    1  0.9562506E-007  0.3277411E+04  0.7818608E-02  0.8168667E-01
         -2   -1    0    0    0  501 -0.00000000000E+00  0.00000000000E+00  0.13267010557E+04  0.13267010557E+04  0.00000000000E+00 0.  1.
          2   -1    0    0  501    0  0.00000000000E+00 -0.00000000000E+00 -0.20240852919E+04  0.20240852919E+04  0.00000000000E+00 0. -1.
         23    2    1    2    0    0 -0.68225943680E+03 -0.51091439605E+03 -0.17783812667E+04  0.19741723715E+04  0.90582357505E+02 0.  0.
         13    1    3    3    0    0 -0.29538812882E+03 -0.27624428718E+03 -0.81589854808E+03  0.91063466528E+03  0.00000000000E+00 0. -1.
        -13    1    3    3    0    0 -0.38687130798E+03 -0.23467010887E+03 -0.96248271859E+03  0.10635377062E+04  0.00000000000E+00 0.  1.
         22    1    1    2    0    0  0.68225943680E+03  0.51091439605E+03  0.10809970305E+04  0.13766139761E+04  0.00000000000E+00 0.  1.
<mgrwt>
<rscale>  0 0.32774112E+04</rscale>
<asrwt>0</asrwt>
<pdfrwt beam="1">  1        2 0.31139773E+00 0.32774112E+04</pdfrwt>
<pdfrwt beam="2">  1       -2 0.20410786E+00 0.32774112E+04</pdfrwt>
<totfact> 0.67771033E-01</totfact>
</mgrwt>
</event>
<event>
 6    1  0.9562506E-007  0.2251809E+04  0.7818608E-02  0.8497168E-01
         -2   -1    0    0    0  501 -0.00000000000E+00  0.00000000000E+00  0.40026009480E+03  0.40026009480E+03  0.00000000000E+00 0.  1.
          2   -1    0    0  501    0  0.00000000000E+00 -0.00000000000E+00 -0.31670941990E+04  0.31670941990E+04  0.00000000000E+00 0. -1.
         23    2    1    2    0    0  0.10926460203E+04  0.79832236909E+02 -0.17838803089E+04  0.20954688786E+04  0.92262412790E+02 0.  0.
         13    1    3    3    0    0  0.79483412923E+03  0.98911058279E+02 -0.13084507435E+04  0.15341408144E+04  0.00000000000E+00 0.  1.
        -13    1    3    3    0    0  0.29781189110E+03 -0.19078821370E+02 -0.47542956544E+03  0.56132806415E+03  0.00000000000E+00 0. -1.
         22    1    1    2    0    0 -0.10926460203E+04 -0.79832236909E+02 -0.98295379527E+03  0.14718854152E+04  0.00000000000E+00 0. -1.
<mgrwt>
<rscale>  0 0.22518094E+04</rscale>
<asrwt>0</asrwt>
<pdfrwt beam="1">  1        2 0.48724528E+00 0.22518094E+04</pdfrwt>
<pdfrwt beam="2">  1       -2 0.61578474E-01 0.22518094E+04</pdfrwt>
<totfact> 0.30439062E+00</totfact>
</mgrwt>
</event>
<event>
 6    1  0.9562506E-007  0.9879797E+03  0.7818608E-02  0.9321828E-01
         -2   -1    0    0    0  501 -0.00000000000E+00  0.00000000000E+00  0.18157909933E+03  0.18157909933E+03  0.00000000000E+00 0.  1.
          2   -1    0    0  501    0  0.00000000000E+00 -0.00000000000E+00 -0.13439099830E+04  0.13439099830E+04  0.00000000000E+00 0. -1.
         23    2    1    2    0    0  0.40093244563E+03  0.26256939640E+03 -0.42936364541E+03  0.64974340792E+03  0.90132359611E+02 0.  0.
         13    1    3    3    0    0  0.14205463212E+03  0.50419162837E+02 -0.16275423548E+03  0.22183451412E+03  0.00000000000E+00 0. -1.
        -13    1    3    3    0    0  0.25887781351E+03  0.21215023356E+03 -0.26660940993E+03  0.42790889380E+03  0.00000000000E+00 0.  1.
         22    1    1    2    0    0 -0.40093244563E+03 -0.26256939640E+03 -0.73296723831E+03  0.87574567445E+03  0.00000000000E+00 0. -1.
<mgrwt>
<rscale>  0 0.98797968E+03</rscale>
<asrwt>0</asrwt>
<pdfrwt beam="1">  1        2 0.20675538E+00 0.98797968E+03</pdfrwt>
<pdfrwt beam="2">  1       -2 0.27935247E-01 0.98797968E+03</pdfrwt>
<totfact> 0.18205440E+02</totfact>
</mgrwt>
</event>
<event>
 6    1  0.9562506E-007  0.8021296E+03  0.7818608E-02  0.9556940E-01
          1   -1    0    0  501    0  0.00000000000E+00  0.00000000000E+00  0.27474719129E+03  0.27474719129E+03  0.00000000000E+00 0. -1.
         -1   -1    0    0    0  501 -0.00000000000E+00 -0.00000000000E+00 -0.58545808355E+03  0.58545808355E+03  0.00000000000E+00 0.  1.
         23    2    1    2    0    0  0.20498990910E+03 -0.32172160093E+03 -0.46211387293E+02  0.39600096695E+03  0.95685015385E+02 0.  0.
         11    1    3    3    0    0  0.19875785304E+03 -0.28722130242E+03 -0.66405109139E+02  0.35554240145E+03  0.00000000000E+00 0.  1.
        -11    1    3    3    0    0  0.62320560593E+01 -0.34500298511E+02  0.20193721846E+02  0.40458565497E+02  0.00000000000E+00 0. -1.
         22    1    1    2    0    0 -0.20498990910E+03  0.32172160093E+03 -0.26449950497E+03  0.46420430789E+03  0.00000000000E+00 0.  1.
<mgrwt>
<rscale>  0 0.80212958E+03</rscale>
<asrwt>0</asrwt>
<pdfrwt beam="1">  1        1 0.42268799E-01 0.80212958E+03</pdfrwt>
<pdfrwt beam="2">  1       -1 0.90070475E-01 0.80212958E+03</pdfrwt>
<totfact> 0.12006790E+02</totfact>
</mgrwt>
</event>
<event>
 6    1  0.9562506E-007  0.3796095E+03  0.7818608E-02  0.1051078E+00
         -2   -1    0    0    0  501 -0.00000000000E+00  0.00000000000E+00  0.16140286901E+03  0.16140286901E+03  0.00000000000E+00 0.  1.
          2   -1    0    0  501    0  0.00000000000E+00 -0.00000000000E+00 -0.22320442341E+03  0.22320442341E+03  0.00000000000E+00 0. -1.
         23    2    1    2    0    0 -0.41874268399E+01  0.42519240199E+02 -0.20940647585E+03  0.23094326552E+03  0.87511710243E+02 0.  0.
         13    1    3    3    0    0  0.18200412545E+02  0.59184216609E+02 -0.18021926626E+03  0.19055972933E+03  0.00000000000E+00 0. -1.
        -13    1    3    3    0    0 -0.22387839384E+02 -0.16664976411E+02 -0.29187209588E+02  0.40383536183E+02  0.00000000000E+00 0.  1.
         22    1    1    2    0    0  0.41874268399E+01 -0.42519240199E+02  0.14760492145E+03  0.15366402691E+03  0.00000000000E+00 0.  1.
<mgrwt>
<rscale>  0 0.37960945E+03</rscale>
<asrwt>0</asrwt>
<pdfrwt beam="1">  1        2 0.34339142E-01 0.37960945E+03</pdfrwt>
<pdfrwt beam="2">  1       -2 0.24831211E-01 0.37960945E+03</pdfrwt>
<totfact> 0.21860231E+03</totfact>
</mgrwt>
</event>
<event>
 6    1  0.9562506E-007  0.2843158E+04  0.7818608E-02  0.8289993E-01
          2   -1    0    0  501    0  0.00000000000E+00  0.00000000000E+00  0.27887559069E+04  0.27887559069E+04  0.00000000000E+00 0. -1.
         -2   -1    0    0    0  501 -0.00000000000E+00 -0.00000000000E+00 -0.72465519886E+03  0.72465519886E+03  0.00000000000E+00 0.  1.
         23    2    1    2    0    0 -0.10663551604E+04 -0.46975332460E+03  0.29960486696E+02  0.11691611289E+04  0.90876842495E+02 0.  0.
         11    1    3    3    0    0 -0.16255620371E+03 -0.38575869168E+02 -0.53516995630E+01  0.16715638706E+03  0.00000000000E+00 0.  1.
        -11    1    3    3    0    0 -0.90379895665E+03 -0.43117745543E+03  0.35312186259E+02  0.10020047418E+04  0.00000000000E+00 0. -1.
         22    1    1    2    0    0  0.10663551604E+04  0.46975332460E+03  0.20341402213E+04  0.23442499769E+04  0.00000000000E+00 0. -1.
<mgrwt>
<rscale>  0 0.28431577E+04</rscale>
<asrwt>0</asrwt>
<pdfrwt beam="1">  1        2 0.42903936E+00 0.28431577E+04</pdfrwt>
<pdfrwt beam="2">  1       -2 0.11148542E+00 0.28431577E+04</pdfrwt>
<totfact> 0.12947962E+00</totfact>
</mgrwt>
</event>
<event>
 6    1  0.9562506E-007  0.2608669E+04  0.7818608E-02  0.8365262E-01
         -1   -1    0    0    0  501 -0.00000000000E+00  0.00000000000E+00  0.96554919746E+03  0.96554919746E+03  0.00000000000E+00 0.  1.
          1   -1    0    0  501    0  0.00000000000E+00 -0.00000000000E+00 -0.17619908289E+04  0.17619908289E+04  0.00000000000E+00 0. -1.
         23    2    1    2    0    0  0.80801853853E+03  0.28696665917E+03  0.62670687366E+03  0.10660360421E+04  0.91801500542E+02 0.  0.
         11    1    3    3    0    0  0.50186419439E+03  0.13795131467E+03  0.34905137106E+03  0.62668580203E+03  0.00000000000E+00 0. -1.
        -11    1    3    3    0    0  0.30615434414E+03  0.14901534451E+03  0.27765550260E+03  0.43935024008E+03  0.00000000000E+00 0.  1.
         22    1    1    2    0    0 -0.80801853853E+03 -0.28696665917E+03 -0.14231485051E+04  0.16615039842E+04  0.00000000000E+00 0. -1.
<mgrwt>
<rscale>  0 0.26086693E+04</rscale>
<asrwt>0</asrwt>
<pdfrwt beam="1">  1        1 0.27107551E+00 0.26086693E+04</pdfrwt>
<pdfrwt beam="2">  1       -1 0.14854603E+00 0.26086693E+04</pdfrwt>
<totfact> 0.13630002E+00</totfact>
</mgrwt>
</event>
<event>
 6    1  0.9562506E-007  0.1982756E+04  0.7818608E-02  0.8614726E-01
          1   -1    0    0  501    0  0.00000000000E+00  0.00000000000E+00  0.20082203027E+04  0.20082203027E+04  0.00000000000E+00 0. -1.
         -1   -1    0    0    0  501 -0.00000000000E+00 -0.00000000000E+00 -0.48940350630E+03  0.48940350630E+03  0.00000000000E+00 0.  1.
         23    2    1    2    0    0  0.53166142569E+03  0.80299384726E+03  0.10440536130E+04  0.14239091958E+04  0.10003229875E+03 0.  0.
         11    1    3    3    0    0  0.12256699595E+03  0.26767551821E+03  0.30865630232E+03  0.42654608720E+03  0.00000000000E+00 0.  1.
        -11    1    3    3    0    0  0.40909442973E+03  0.53531832906E+03  0.73539731071E+03  0.99736310863E+03  0.00000000000E+00 0. -1.
         22    1    1    2    0    0 -0.53166142569E+03 -0.80299384726E+03  0.47476318341E+03  0.10737146132E+04  0.00000000000E+00 0.  1.
<mgrwt>
<rscale>  0 0.19827557E+04</rscale>
<asrwt>0</asrwt>
<pdfrwt beam="1">  1        1 0.30895696E+00 0.19827557E+04</pdfrwt>
<pdfrwt beam="2">  1       -1 0.75292849E-01 0.19827557E+04</pdfrwt>
<totfact> 0.48465754E+00</totfact>
</mgrwt>
</event>
<event>
 6    1  0.9562506E-007  0.1348771E+04  0.7818608E-02  0.8991759E-01
         -1   -1    0    0    0  501 -0.00000000000E+00  0.00000000000E+00  0.26033631514E+03  0.26033631514E+03  0.00000000000E+00 0.  1.
          1   -1    0    0  501    0  0.00000000000E+00 -0.00000000000E+00 -0.17469558564E+04  0.17469558564E+04  0.00000000000E+00 0. -1.
         23    2    1    2    0    0  0.28550128910E+03  0.11255007626E+03 -0.16357097020E+04  0.16661083768E+04  0.78691729420E+02 0.  0.
         13    1    3    3    0    0  0.15928048362E+03  0.58005109940E+02 -0.69341478318E+03  0.71383396302E+03  0.00000000000E+00 0. -1.
        -13    1    3    3    0    0  0.12622080548E+03  0.54544966317E+02 -0.94229491882E+03  0.95227441377E+03  0.00000000000E+00 0.  1.
         22    1    1    2    0    0 -0.28550128910E+03 -0.11255007626E+03  0.14909016076E+03  0.34118379472E+03  0.00000000000E+00 0.  1.
<mgrwt>
<rscale>  0 0.13487714E+04</rscale>
<asrwt>0</asrwt>
<pdfrwt beam="1">  1        1 0.26876245E+00 0.13487714E+04</pdfrwt>
<pdfrwt beam="2">  1       -1 0.40051740E-01 0.13487714E+04</pdfrwt>
<totfact> 0.26341873E+01</totfact>
</mgrwt>
</event>
<event>
 6    1  0.9562506E-007  0.3517217E+03  0.7818608E-02  0.1061911E+00
         -3   -1    0    0    0  501 -0.00000000000E+00  0.00000000000E+00  0.47176725731E+03  0.47176725731E+03  0.00000000000E+00 0.  1.
          3   -1    0    0  501    0  0.00000000000E+00 -0.00000000000E+00 -0.65555697533E+02  0.65555697533E+02  0.00000000000E+00 0. -1.
         23    2    1    2    0    0 -0.14010107300E+03  0.23918673312E+02  0.34004251548E+03  0.38054682142E+03  0.94797454447E+02 0.  0.
         13    1    3    3    0    0 -0.11901487608E+03  0.12539723168E+02  0.16477009948E+03  0.20364422670E+03  0.00000000000E+00 0.  1.
        -13    1    3    3    0    0 -0.21086196915E+02  0.11378950144E+02  0.17527241601E+03  0.17690259472E+03  0.00000000000E+00 0. -1.
         22    1    1    2    0    0  0.14010107300E+03 -0.23918673312E+02  0.66169044298E+02  0.15677613343E+03  0.00000000000E+00 0. -1.
<mgrwt>
<rscale>  0 0.35172166E+03</rscale>
<asrwt>0</asrwt>
<pdfrwt beam="1">  1        3 0.10085492E-01 0.35172166E+03</pdfrwt>
<pdfrwt beam="2">  1       -3 0.72579576E-01 0.35172166E+03</pdfrwt>
<totfact> 0.34643448E+02</totfact>
</mgrwt>
</event>
<event>
 6    1  0.9562506E-007  0.2285041E+04  0.7818608E-02  0.8483843E-01
         -2   -1    0    0    0  501 -0.00000000000E+00  0.00000000000E+00  0.76989679466E+03  0.76989679466E+03  0.00000000000E+00 0.  1.
          2   -1    0    0  501    0  0.00000000000E+00 -0.00000000000E+00 -0.16954904672E+04  0.16954904672E+04  0.00000000000E+00 0. -1.
         23    2    1    2    0    0 -0.42043040240E+03  0.40479344000E+03 -0.15209048324E+04  0.16317117678E+04  0.93339870586E+02 0.  0.
         11    1    3    3    0    0 -0.23386031196E+03  0.17500288391E+03 -0.83699488299E+03  0.88649708914E+03  0.00000000000E+00 0. -1.
        -11    1    3    3    0    0 -0.18657009044E+03  0.22979055609E+03 -0.68390994943E+03  0.74521467863E+03  0.00000000000E+00 0.  1.
         22    1    1    2    0    0  0.42043040240E+03 -0.40479344000E+03  0.59531115990E+03  0.83367549408E+03  0.00000000000E+00 0.  1.
<mgrwt>
<rscale>  0 0.22850406E+04</rscale>
<asrwt>0</asrwt>
<pdfrwt beam="1">  1        2 0.26084469E+00 0.22850406E+04</pdfrwt>
<pdfrwt beam="2">  1       -2 0.11844566E+00 0.22850406E+04</pdfrwt>
<totfact> 0.49113871E+00</totfact>
</mgrwt>
</event>
<event>
 6    1  0.9562506E-007  0.9011728E+03  0.7818608E-02  0.9424117E-01
          2   -1    0    0  501    0  0.00000000000E+00  0.00000000000E+00  0.18494713479E+04  0.18494713479E+04  0.00000000000E+00 0. -1.
         -2   -1    0    0    0  501 -0.00000000000E+00 -0.00000000000E+00 -0.10977629599E+03  0.10977629599E+03  0.00000000000E+00 0.  1.
         23    2    1    2    0    0  0.25402765851E+03  0.13113809620E+03  0.16220845246E+04  0.16501206672E+04  0.10006377947E+03 0.  0.
         11    1    3    3    0    0  0.99024283199E+02  0.75586243245E+01  0.69655882607E+03  0.70360297017E+03  0.00000000000E+00 0. -1.
        -11    1    3    3    0    0  0.15500337531E+03  0.12357947187E+03  0.92552569851E+03  0.94651769705E+03  0.00000000000E+00 0.  1.
         22    1    1    2    0    0 -0.25402765851E+03 -0.13113809620E+03  0.11761052731E+03  0.30912697665E+03  0.00000000000E+00 0.  1.
<mgrwt>
<rscale>  0 0.90117282E+03</rscale>
<asrwt>0</asrwt>
<pdfrwt beam="1">  1        2 0.28453403E+00 0.90117282E+03</pdfrwt>
<pdfrwt beam="2">  1       -2 0.16888662E-01 0.90117282E+03</pdfrwt>
<totfact> 0.23390269E+02</totfact>
</mgrwt>
</event>
<event>
 6    1  0.9562506E-007  0.3485677E+03  0.7818608E-02  0.1063204E+00
         -2   -1    0    0    0  501 -0.00000000000E+00  0.00000000000E+00  0.65342737563E+02  0.65342737563E+02  0.00000000000E+00 0.  1.
          2   -1    0    0  501    0  0.00000000000E+00 -0.00000000000E+00 -0.46485444400E+03  0.46485444400E+03  0.00000000000E+00 0. -1.
         23    2    1    2    0    0  0.11263009061E+03 -0.77906349973E+02 -0.34726314667E+03  0.38362007327E+03  0.88417933188E+02 0.  0.
         11    1    3    3    0    0  0.62184638766E+01 -0.53235199274E+02 -0.10596638960E+03  0.11874986930E+03  0.00000000000E+00 0. -1.
        -11    1    3    3    0    0  0.10641162673E+03 -0.24671150699E+02 -0.24129675707E+03  0.26487020397E+03  0.00000000000E+00 0.  1.
         22    1    1    2    0    0 -0.11263009061E+03  0.77906349973E+02 -0.52248559773E+02  0.14657710829E+03  0.00000000000E+00 0.  1.
<mgrwt>
<rscale>  0 0.34856771E+03</rscale>
<asrwt>0</asrwt>
<pdfrwt beam="1">  1        2 0.71516067E-01 0.34856771E+03</pdfrwt>
<pdfrwt beam="2">  1       -2 0.10052729E-01 0.34856771E+03</pdfrwt>
<totfact> 0.44622311E+03</totfact>
</mgrwt>
</event>
<event>
 6    1  0.9562506E-007  0.2232110E+04  0.7818608E-02  0.8505181E-01
         -2   -1    0    0    0  501 -0.00000000000E+00  0.00000000000E+00  0.15039244980E+04  0.15039244980E+04  0.00000000000E+00 0.  1.
          2   -1    0    0  501    0  0.00000000000E+00 -0.00000000000E+00 -0.82821890160E+03  0.82821890160E+03  0.00000000000E+00 0. -1.
         23    2    1    2    0    0 -0.26915901985E+03 -0.26656879222E+03  0.14332314074E+04  0.14851777253E+04  0.89972826753E+02 0.  0.
         13    1    3    3    0    0 -0.17028848385E+03 -0.21678468211E+03  0.11011483410E+04  0.11351305806E+04  0.00000000000E+00 0. -1.
        -13    1    3    3    0    0 -0.98870535992E+02 -0.49784110113E+02  0.33208306644E+03  0.35004714472E+03  0.00000000000E+00 0.  1.
         22    1    1    2    0    0  0.26915901985E+03  0.26656879222E+03 -0.75752581107E+03  0.84696567426E+03  0.00000000000E+00 0. -1.
<mgrwt>
<rscale>  0 0.22321099E+04</rscale>
<asrwt>0</asrwt>
<pdfrwt beam="1">  1        2 0.12741829E+00 0.22321099E+04</pdfrwt>
<pdfrwt beam="2">  1       -2 0.23137300E+00 0.22321099E+04</pdfrwt>
<totfact> 0.25117693E+00</totfact>
</mgrwt>
</event>
<event>
 6    1  0.9562506E-007  0.6690654E+03  0.7818608E-02  0.9771648E-01
          1   -1    0    0  501    0  0.00000000000E+00  0.00000000000E+00  0.10645805623E+04  0.10645805623E+04  0.00000000000E+00 0. -1.
         -1   -1    0    0    0  501 -0.00000000000E+00 -0.00000000000E+00 -0.10512319724E+03  0.10512319724E+03  0.00000000000E+00 0.  1.
         23    2    1    2    0    0 -0.64920792554E+02 -0.27623057539E+03  0.77712466733E+03  0.83241567385E+03  0.92060118463E+02 0.  0.
         11    1    3    3    0    0 -0.82186713500E+02 -0.16596022783E+03  0.44342106121E+03  0.48054103948E+03  0.00000000000E+00 0. -1.
        -11    1    3    3    0    0  0.17265920945E+02 -0.11027034756E+03  0.33370360612E+03  0.35187463437E+03  0.00000000000E+00 0.  1.
         22    1    1    2    0    0  0.64920792554E+02  0.27623057539E+03  0.18233269771E+03  0.33728808567E+03  0.00000000000E+00 0.  1.
<mgrwt>
<rscale>  0 0.66906536E+03</rscale>
<asrwt>0</asrwt>
<pdfrwt beam="1">  1        1 0.16378162E+00 0.66906536E+03</pdfrwt>
<pdfrwt beam="2">  1       -1 0.16172800E-01 0.66906536E+03</pdfrwt>
<totfact> 0.39790216E+02</totfact>
</mgrwt>
</event>
<event>
 6    1  0.9562506E-007  0.1353697E+04  0.7818608E-02  0.8988034E-01
          2   -1    0    0  501    0  0.00000000000E+00  0.00000000000E+00  0.18135256583E+04  0.18135256583E+04  0.00000000000E+00 0. -1.
         -2   -1    0    0    0  501 -0.00000000000E+00 -0.00000000000E+00 -0.25261493060E+03  0.25261493060E+03  0.00000000000E+00 0.  1.
         23    2    1    2    0    0  0.20964728951E+03  0.41249130587E+03  0.36256385160E+02  0.47281955168E+03  0.90237129626E+02 0.  0.
         13    1    3    3    0    0  0.12672638566E+03  0.15122891318E+03  0.17065639629E+02  0.19804291722E+03  0.00000000000E+00 0.  1.
        -13    1    3    3    0    0  0.82920903848E+02  0.26126239269E+03  0.19190745531E+02  0.27477663446E+03  0.00000000000E+00 0. -1.
         22    1    1    2    0    0 -0.20964728951E+03 -0.41249130587E+03  0.15246543425E+04  0.15933210372E+04  0.00000000000E+00 0. -1.
<mgrwt>
<rscale>  0 0.13536967E+04</rscale>
<asrwt>0</asrwt>
<pdfrwt beam="1">  1        2 0.27900394E+00 0.13536967E+04</pdfrwt>
<pdfrwt beam="2">  1       -2 0.38863837E-01 0.13536967E+04</pdfrwt>
<totfact> 0.51824624E+01</totfact>
</mgrwt>
</event>
<event>
 6    1  0.9562506E-007  0.1053378E+04  0.7818608E-02  0.9251864E-01
          1   -1    0    0  501    0  0.00000000000E+00  0.00000000000E+00  0.18020755154E+04  0.18020755154E+04  0.00000000000E+00 0. -1.
         -1   -1    0    0    0  501 -0.00000000000E+00 -0.00000000000E+00 -0.15393421349E+03  0.15393421349E+03  0.00000000000E+00 0.  1.
         23    2    1    2    0    0  0.18035910100E+03  0.30403653704E+03  0.15453118770E+04  0.15878501008E+04  0.91167561381E+02 0.  0.
         13    1    3    3    0    0  0.14732016817E+03  0.19527632843E+03  0.11869304341E+04  0.12118745528E+04  0.00000000000E+00 0. -1.
        -13    1    3    3    0    0  0.33038932835E+02  0.10876020862E+03  0.35838144288E+03  0.37597554796E+03  0.00000000000E+00 0.  1.
         22    1    1    2    0    0 -0.18035910100E+03 -0.30403653704E+03  0.10282942499E+03  0.36815962817E+03  0.00000000000E+00 0.  1.
<mgrwt>
<rscale>  0 0.10533776E+04</rscale>
<asrwt>0</asrwt>
<pdfrwt beam="1">  1        1 0.27724237E+00 0.10533776E+04</pdfrwt>
<pdfrwt beam="2">  1       -1 0.23682188E-01 0.10533776E+04</pdfrwt>
<totfact> 0.62481076E+01</totfact>
</mgrwt>
</event>
<event>
 6    1  0.9562506E-007  0.2307413E+04  0.7818608E-02  0.8475004E-01
         -1   -1    0    0    0  501 -0.00000000000E+00  0.00000000000E+00  0.95996181173E+03  0.95996181173E+03  0.00000000000E+00 0.  1.
          1   -1    0    0  501    0  0.00000000000E+00 -0.00000000000E+00 -0.13865533068E+04  0.13865533068E+04  0.00000000000E+00 0. -1.
         23    2    1    2    0    0 -0.27496051156E+03 -0.23818338732E+03  0.89770127902E+03  0.97316667024E+03  0.94080671816E+02 0.  0.
         11    1    3    3    0    0 -0.61165324981E+02 -0.75283086206E+02  0.34808420356E+03  0.36134658268E+03  0.00000000000E+00 0. -1.
        -11    1    3    3    0    0 -0.21379518658E+03 -0.16290030111E+03  0.54961707545E+03  0.61182008755E+03  0.00000000000E+00 0.  1.
         22    1    1    2    0    0  0.27496051156E+03  0.23818338732E+03 -0.13242927741E+04  0.13733484483E+04  0.00000000000E+00 0. -1.
<mgrwt>
<rscale>  0 0.23074126E+04</rscale>
<asrwt>0</asrwt>
<pdfrwt beam="1">  1        1 0.21331589E+00 0.23074126E+04</pdfrwt>
<pdfrwt beam="2">  1       -1 0.14768643E+00 0.23074126E+04</pdfrwt>
<totfact> 0.25805685E+00</totfact>
</mgrwt>
</event>
<event>
 6    1  0.9562506E-007  0.2138693E+04  0.7818608E-02  0.8544388E-01
          1   -1    0    0  501    0  0.00000000000E+00  0.00000000000E+00  0.26606704341E+04  0.26606704341E+04  0.00000000000E+00 0. -1.
         -1   -1    0    0    0  501 -0.00000000000E+00 -0.00000000000E+00 -0.42977962323E+03  0.42977962323E+03  0.00000000000E+00 0.  1.
         23    2    1    2    0    0 -0.23474668068E+03  0.17328215873E+03  0.26010739530E+04  0.26191027656E+04  0.94767489541E+02 0.  0.
         13    1    3    3    0    0 -0.13612459953E+03  0.14483206326E+03  0.14691219642E+04  0.14825065190E+04  0.00000000000E+00 0. -1.
        -13    1    3    3    0    0 -0.98622081145E+02  0.28450095474E+02  0.11319519888E+04  0.11365962466E+04  0.00000000000E+00 0.  1.
         22    1    1    2    0    0  0.23474668068E+03 -0.17328215873E+03 -0.37018314219E+03  0.47134729169E+03  0.00000000000E+00 0.  1.
<mgrwt>
<rscale>  0 0.21386930E+04</rscale>
<asrwt>0</asrwt>
<pdfrwt beam="1">  1        1 0.40933390E+00 0.21386930E+04</pdfrwt>
<pdfrwt beam="2">  1       -1 0.66119944E-01 0.21386930E+04</pdfrwt>
<totfact> 0.22236034E+00</totfact>
</mgrwt>
</event>
<event>
 6    1  0.9562506E-007  0.1995316E+04  0.7818608E-02  0.8608814E-01
         -1   -1    0    0    0  501 -0.00000000000E+00  0.00000000000E+00  0.16870247284E+04  0.16870247284E+04  0.00000000000E+00 0.  1.
          1   -1    0    0  501    0  0.00000000000E+00 -0.00000000000E+00 -0.58998641782E+03  0.58998641782E+03  0.00000000000E+00 0. -1.
         23    2    1    2    0    0 -0.45443387493E+03  0.22869824910E+03  0.15262344406E+04  0.16114119020E+04  0.91889685831E+02 0.  0.
         13    1    3    3    0    0 -0.27581915106E+03  0.10050451326E+03  0.77783538595E+03  0.83138754435E+03  0.00000000000E+00 0.  1.
        -13    1    3    3    0    0 -0.17861472387E+03  0.12819373585E+03  0.74839905464E+03  0.78002435762E+03  0.00000000000E+00 0. -1.
         22    1    1    2    0    0  0.45443387493E+03 -0.22869824910E+03 -0.42919613005E+03  0.66559924420E+03  0.00000000000E+00 0. -1.
<mgrwt>
<rscale>  0 0.19953162E+04</rscale>
<asrwt>0</asrwt>
<pdfrwt beam="1">  1        1 0.90767142E-01 0.19953162E+04</pdfrwt>
<pdfrwt beam="2">  1       -1 0.25954226E+00 0.19953162E+04</pdfrwt>
<totfact> 0.19676131E+00</totfact>
</mgrwt>
</event>
<event>
 6    1  0.1345946E-006  0.3462862E+04  0.7818608E-02  0.8122648E-01
          1   -1    0    0  501    0  0.00000000000E+00  0.00000000000E+00  0.25626061253E+04  0.25626061253E+04  0.00000000000E+00 0. -1.
         -1   -1    0    0    0  501 -0.00000000000E+00 -0.00000000000E+00 -0.11698457537E+04  0.11698457537E+04  0.00000000000E+00 0.  1.
         23    2    1    2    0    0  0.10527228417E+04  0.83064539154E+03 -0.48164454440E+03  0.14277629766E+04  0.91260627771E+02 0.  0.
         13    1    3    3    0    0  0.72766367491E+03  0.57199483014E+03 -0.37682662785E+03  0.99933518748E+03  0.00000000000E+00 0.  1.
        -13    1    3    3    0    0  0.32505916680E+03  0.25865056140E+03 -0.10481791655E+03  0.42842778909E+03  0.00000000000E+00 0. -1.
         22    1    1    2    0    0 -0.10527228417E+04 -0.83064539154E+03  0.18744049160E+04  0.23046889024E+04  0.00000000000E+00 0. -1.
<mgrwt>
<rscale>  0 0.34628623E+04</rscale>
<asrwt>0</asrwt>
<pdfrwt beam="1">  1        1 0.39424710E+00 0.34628623E+04</pdfrwt>
<pdfrwt beam="2">  1       -1 0.17997627E+00 0.34628623E+04</pdfrwt>
<totfact> 0.20873435E-01</totfact>
</mgrwt>
</event>
<event>
 6    1  0.9562506E-007  0.1805087E+04  0.7818608E-02  0.8703599E-01
          3   -1    0    0  501    0  0.00000000000E+00  0.00000000000E+00  0.48071708276E+03  0.48071708276E+03  0.00000000000E+00 0. -1.
         -3   -1    0    0    0  501 -0.00000000000E+00 -0.00000000000E+00 -0.16945208214E+04  0.16945208214E+04  0.00000000000E+00 0.  1.
         23    2    1    2    0    0 -0.19540609458E+03  0.56176049442E+03 -0.14224988650E+04  0.15449109647E+04  0.97408793341E+02 0.  0.
         11    1    3    3    0    0 -0.16624498972E+03  0.48318554419E+03 -0.11207925617E+04  0.12317798638E+04  0.00000000000E+00 0. -1.
        -11    1    3    3    0    0 -0.29161104859E+02  0.78574950224E+02 -0.30170630330E+03  0.31313110080E+03  0.00000000000E+00 0.  1.
         22    1    1    2    0    0  0.19540609458E+03 -0.56176049442E+03  0.20869512633E+03  0.63032693949E+03  0.00000000000E+00 0. -1.
<mgrwt>
<rscale>  0 0.18050874E+04</rscale>
<asrwt>0</asrwt>
<pdfrwt beam="1">  1        3 0.73956474E-01 0.18050874E+04</pdfrwt>
<pdfrwt beam="2">  1       -3 0.26069551E+00 0.18050874E+04</pdfrwt>
<totfact> 0.27130727E-01</totfact>
</mgrwt>
</event>
<event>
 6    1  0.9562506E-007  0.2154068E+04  0.7818608E-02  0.8537793E-01
         -2   -1    0    0    0  501 -0.00000000000E+00  0.00000000000E+00  0.75072978017E+03  0.75072978017E+03  0.00000000000E+00 0.  1.
          2   -1    0    0  501    0  0.00000000000E+00 -0.00000000000E+00 -0.15451655267E+04  0.15451655267E+04  0.00000000000E+00 0. -1.
         23    2    1    2    0    0  0.52326307788E+03  0.91493992608E+03 -0.17243892701E+03  0.10720491726E+04  0.92924312360E+02 0.  0.
         13    1    3    3    0    0  0.32686077639E+03  0.65464321108E+03 -0.10742761005E+03  0.73955148053E+03  0.00000000000E+00 0.  1.
        -13    1    3    3    0    0  0.19640230149E+03  0.26029671500E+03 -0.65011316964E+02  0.33249769203E+03  0.00000000000E+00 0. -1.
         22    1    1    2    0    0 -0.52326307788E+03 -0.91493992608E+03 -0.62199681956E+03  0.12238461343E+04  0.00000000000E+00 0. -1.
<mgrwt>
<rscale>  0 0.21540676E+04</rscale>
<asrwt>0</asrwt>
<pdfrwt beam="1">  1        2 0.23771777E+00 0.21540676E+04</pdfrwt>
<pdfrwt beam="2">  1       -2 0.11549689E+00 0.21540676E+04</pdfrwt>
<totfact> 0.64092047E+00</totfact>
</mgrwt>
</event>
<event>
 6    1  0.9562506E-007  0.1909374E+04  0.7818608E-02  0.8650204E-01
          2   -1    0    0  501    0  0.00000000000E+00  0.00000000000E+00  0.19172265900E+04  0.19172265900E+04  0.00000000000E+00 0. -1.
         -2   -1    0    0    0  501 -0.00000000000E+00 -0.00000000000E+00 -0.47538857257E+03  0.47538857257E+03  0.00000000000E+00 0.  1.
         23    2    1    2    0    0 -0.57249769389E+03  0.48431010120E+03 -0.14045421075E+02  0.75496243071E+03  0.86377741888E+02 0.  0.
         13    1    3    3    0    0 -0.18387410123E+03  0.18547228147E+03 -0.39126021215E+02  0.26408426275E+03  0.00000000000E+00 0. -1.
        -13    1    3    3    0    0 -0.38862359267E+03  0.29883781973E+03  0.25080600140E+02  0.49087816796E+03  0.00000000000E+00 0.  1.
         22    1    1    2    0    0  0.57249769389E+03 -0.48431010120E+03  0.14558834385E+04  0.16376527319E+04  0.00000000000E+00 0. -1.
<mgrwt>
<rscale>  0 0.19093744E+04</rscale>
<asrwt>0</asrwt>
<pdfrwt beam="1">  1        2 0.29495793E+00 0.19093744E+04</pdfrwt>
<pdfrwt beam="2">  1       -2 0.73136704E-01 0.19093744E+04</pdfrwt>
<totfact> 0.11734948E+01</totfact>
</mgrwt>
</event>
<event>
 6    1  0.9562506E-007  0.2595647E+04  0.7818608E-02  0.8369681E-01
          1   -1    0    0  501    0  0.00000000000E+00  0.00000000000E+00  0.36763969543E+04  0.36763969543E+04  0.00000000000E+00 0. -1.
         -1   -1    0    0    0  501 -0.00000000000E+00 -0.00000000000E+00 -0.45815114938E+03  0.45815114938E+03  0.00000000000E+00 0.  1.
         23    2    1    2    0    0 -0.17508104132E+03 -0.12494057402E+04  0.11344047930E+04  0.16985551978E+04  0.80916320161E+02 0.  0.
         11    1    3    3    0    0 -0.16303502139E+03 -0.90381092002E+03  0.82246604188E+03  0.12328442673E+04  0.00000000000E+00 0. -1.
        -11    1    3    3    0    0 -0.12046019927E+02 -0.34559482018E+03  0.31193875108E+03  0.46571093046E+03  0.00000000000E+00 0.  1.
         22    1    1    2    0    0  0.17508104132E+03  0.12494057402E+04  0.20838410120E+04  0.24359929060E+04  0.00000000000E+00 0. -1.
<mgrwt>
<rscale>  0 0.25956467E+04</rscale>
<asrwt>0</asrwt>
<pdfrwt beam="1">  1        1 0.56559951E+00 0.25956467E+04</pdfrwt>
<pdfrwt beam="2">  1       -1 0.70484794E-01 0.25956467E+04</pdfrwt>
<totfact> 0.32355373E-01</totfact>
</mgrwt>
</event>
<event>
 6    1  0.9562506E-007  0.4923308E+04  0.7818608E-02  0.7840448E-01
          2   -1    0    0  501    0  0.00000000000E+00  0.00000000000E+00  0.34523597543E+04  0.34523597543E+04  0.00000000000E+00 0. -1.
         -2   -1    0    0    0  501 -0.00000000000E+00 -0.00000000000E+00 -0.17552461872E+04  0.17552461872E+04  0.00000000000E+00 0.  1.
         23    2    1    2    0    0 -0.63620961381E+02 -0.11808016416E+04  0.31315463409E+04  0.33485907382E+04  0.90206999419E+02 0.  0.
         13    1    3    3    0    0 -0.44427507106E+02 -0.48936892069E+03  0.14166675505E+04  0.14994674697E+04  0.00000000000E+00 0.  1.
        -13    1    3    3    0    0 -0.19193454275E+02 -0.69143272090E+03  0.17148787904E+04  0.18491232685E+04  0.00000000000E+00 0. -1.
         22    1    1    2    0    0  0.63620961381E+02  0.11808016416E+04 -0.14344327738E+04  0.18590152033E+04  0.00000000000E+00 0.  1.
<mgrwt>
<rscale>  0 0.49233084E+04</rscale>
<asrwt>0</asrwt>
<pdfrwt beam="1">  1        2 0.53113227E+00 0.49233084E+04</pdfrwt>
<pdfrwt beam="2">  1       -2 0.27003788E+00 0.49233084E+04</pdfrwt>
<totfact> 0.31080070E-02</totfact>
</mgrwt>
</event>
<event>
 6    1  0.9562506E-007  0.3886178E+04  0.7818608E-02  0.8027910E-01
         -1   -1    0    0    0  501 -0.00000000000E+00  0.00000000000E+00  0.17665353650E+04  0.17665353650E+04  0.00000000000E+00 0.  1.
          1   -1    0    0  501    0  0.00000000000E+00 -0.00000000000E+00 -0.21372875588E+04  0.21372875588E+04  0.00000000000E+00 0. -1.
         23    2    1    2    0    0 -0.72854507254E+03  0.13327978533E+04  0.10302946697E+04  0.18374104881E+04  0.86267926258E+02 0.  0.
         11    1    3    3    0    0 -0.27498053661E+03  0.49535171628E+03  0.33451845437E+03  0.65794392972E+03  0.00000000000E+00 0. -1.
        -11    1    3    3    0    0 -0.45356453593E+03  0.83744613697E+03  0.69577621534E+03  0.11794665584E+04  0.00000000000E+00 0.  1.
         22    1    1    2    0    0  0.72854507254E+03 -0.13327978533E+04 -0.14010468635E+04  0.20664124356E+04  0.00000000000E+00 0. -1.
<mgrwt>
<rscale>  0 0.38861776E+04</rscale>
<asrwt>0</asrwt>
<pdfrwt beam="1">  1        1 0.32881347E+00 0.38861776E+04</pdfrwt>
<pdfrwt beam="2">  1       -1 0.27177467E+00 0.38861776E+04</pdfrwt>
<totfact> 0.95558150E-02</totfact>
</mgrwt>
</event>
<event>
 6    1  0.9562506E-007  0.1260551E+04  0.7818608E-02  0.9061447E-01
          2   -1    0    0  501    0  0.00000000000E+00  0.00000000000E+00  0.14503510342E+04  0.14503510342E+04  0.00000000000E+00 0. -1.
         -2   -1    0    0    0  501 -0.00000000000E+00 -0.00000000000E+00 -0.27389720006E+03  0.27389720006E+03  0.00000000000E+00 0.  1.
         23    2    1    2    0    0 -0.57740965261E+03 -0.19040244107E+03  0.80252976680E+03  0.10104736167E+04  0.85719933544E+02 0.  0.
         13    1    3    3    0    0 -0.18103096399E+03 -0.55956495643E+02  0.31819236538E+03  0.37033730668E+03  0.00000000000E+00 0. -1.
        -13    1    3    3    0    0 -0.39637868862E+03 -0.13444594543E+03  0.48433740142E+03  0.64013631005E+03  0.00000000000E+00 0.  1.
         22    1    1    2    0    0  0.57740965261E+03  0.19040244107E+03  0.37392406734E+03  0.71377461753E+03  0.00000000000E+00 0.  1.
<mgrwt>
<rscale>  0 0.12605508E+04</rscale>
<asrwt>0</asrwt>
<pdfrwt beam="1">  1        2 0.22313092E+00 0.12605508E+04</pdfrwt>
<pdfrwt beam="2">  1       -2 0.42138032E-01 0.12605508E+04</pdfrwt>
<totfact> 0.71017495E+01</totfact>
</mgrwt>
</event>
<event>
 6    1  0.9562506E-007  0.2009474E+04  0.7818608E-02  0.8602204E-01
         -2   -1    0    0    0  501 -0.00000000000E+00  0.00000000000E+00  0.64637409538E+03  0.64637409538E+03  0.00000000000E+00 0.  1.
          2   -1    0    0  501    0  0.00000000000E+00 -0.00000000000E+00 -0.15617836375E+04  0.15617836375E+04  0.00000000000E+00 0. -1.
         23    2    1    2    0    0  0.26422841730E+03 -0.13958458614E+03 -0.15103570420E+04  0.15423777085E+04  0.91924361252E+02 0.  0.
         13    1    3    3    0    0  0.52100851276E+02 -0.35741956513E+01 -0.42262373068E+03  0.42583810458E+03  0.00000000000E+00 0.  1.
        -13    1    3    3    0    0  0.21212756602E+03 -0.13601039049E+03 -0.10877333113E+04  0.11165396039E+04  0.00000000000E+00 0. -1.
         22    1    1    2    0    0 -0.26422841730E+03  0.13958458614E+03  0.59494749990E+03  0.66578002436E+03  0.00000000000E+00 0.  1.
<mgrwt>
<rscale>  0 0.20094740E+04</rscale>
<asrwt>0</asrwt>
<pdfrwt beam="1">  1        2 0.24027440E+00 0.20094740E+04</pdfrwt>
<pdfrwt beam="2">  1       -2 0.99442169E-01 0.20094740E+04</pdfrwt>
<totfact> 0.91047983E+00</totfact>
</mgrwt>
</event>
<event>
 6    1  0.9562506E-007  0.1462710E+04  0.7818608E-02  0.8909636E-01
          1   -1    0    0  501    0  0.00000000000E+00  0.00000000000E+00  0.86945463779E+03  0.86945463779E+03  0.00000000000E+00 0. -1.
         -1   -1    0    0    0  501 -0.00000000000E+00 -0.00000000000E+00 -0.61519005458E+03  0.61519005458E+03  0.00000000000E+00 0.  1.
         23    2    1    2    0    0 -0.19249615749E+03 -0.51306628445E+03 -0.35966848480E+03  0.66171966851E+03  0.90662659624E+02 0.  0.
         13    1    3    3    0    0 -0.57676299095E+02 -0.27461723560E+03 -0.16311120069E+03  0.32457117148E+03  0.00000000000E+00 0.  1.
        -13    1    3    3    0    0 -0.13481985839E+03 -0.23844904886E+03 -0.19655728411E+03  0.33714849704E+03  0.00000000000E+00 0. -1.
         22    1    1    2    0    0  0.19249615749E+03  0.51306628445E+03  0.61393306801E+03  0.82292502385E+03  0.00000000000E+00 0. -1.
<mgrwt>
<rscale>  0 0.14627096E+04</rscale>
<asrwt>0</asrwt>
<pdfrwt beam="1">  1        1 0.13376225E+00 0.14627096E+04</pdfrwt>
<pdfrwt beam="2">  1       -1 0.94644623E-01 0.14627096E+04</pdfrwt>
<totfact> 0.20215054E+01</totfact>
</mgrwt>
</event>
<event>
 6    1  0.9562506E-007  0.1810374E+04  0.7818608E-02  0.8700802E-01
         -2   -1    0    0    0  501 -0.00000000000E+00  0.00000000000E+00  0.29646552061E+03  0.29646552061E+03  0.00000000000E+00 0.  1.
          2   -1    0    0  501    0  0.00000000000E+00 -0.00000000000E+00 -0.27637748640E+04  0.27637748640E+04  0.00000000000E+00 0. -1.
         23    2    1    2    0    0 -0.65341146344E+03 -0.28707973354E+03 -0.21713745409E+04  0.22876222893E+04  0.94799933786E+02 0.  0.
         11    1    3    3    0    0 -0.45145143955E+03 -0.22013942053E+03 -0.16416590582E+04  0.17167743678E+04  0.00000000000E+00 0.  1.
        -11    1    3    3    0    0 -0.20196002389E+03 -0.66940313012E+02 -0.52971548276E+03  0.57084792146E+03  0.00000000000E+00 0. -1.
         22    1    1    2    0    0  0.65341146344E+03  0.28707973354E+03 -0.29593480250E+03  0.77261809537E+03  0.00000000000E+00 0.  1.
<mgrwt>
<rscale>  0 0.18103745E+04</rscale>
<asrwt>0</asrwt>
<pdfrwt beam="1">  1        2 0.42519615E+00 0.18103745E+04</pdfrwt>
<pdfrwt beam="2">  1       -2 0.45610079E-01 0.18103745E+04</pdfrwt>
<totfact> 0.10481153E+01</totfact>
</mgrwt>
</event>
<event>
 6    1  0.9562506E-007  0.2307441E+04  0.7818608E-02  0.8474993E-01
         -2   -1    0    0    0  501 -0.00000000000E+00  0.00000000000E+00  0.79201923630E+03  0.79201923630E+03  0.00000000000E+00 0.  1.
          2   -1    0    0  501    0  0.00000000000E+00 -0.00000000000E+00 -0.16806039240E+04  0.16806039240E+04  0.00000000000E+00 0. -1.
         23    2    1    2    0    0  0.83993967442E+03  0.60380107103E+03 -0.98812433090E+03  0.14334010808E+04  0.90413356061E+02 0.  0.
         13    1    3    3    0    0  0.36637351561E+03  0.29298036938E+03 -0.50039369270E+03  0.68590152170E+03  0.00000000000E+00 0.  1.
        -13    1    3    3    0    0  0.47356615881E+03  0.31082070165E+03 -0.48773063821E+03  0.74749955905E+03  0.00000000000E+00 0. -1.
         22    1    1    2    0    0 -0.83993967442E+03 -0.60380107103E+03  0.99539643199E+02  0.10392220795E+04  0.00000000000E+00 0.  1.
<mgrwt>
<rscale>  0 0.23074407E+04</rscale>
<asrwt>0</asrwt>
<pdfrwt beam="1">  1        2 0.25855445E+00 0.23074407E+04</pdfrwt>
<pdfrwt beam="2">  1       -2 0.12184911E+00 0.23074407E+04</pdfrwt>
<totfact> 0.46568269E+00</totfact>
</mgrwt>
</event>
<event>
 6    1  0.9562506E-007  0.4715931E+03  0.7818608E-02  0.1021472E+00
         -2   -1    0    0    0  501 -0.00000000000E+00  0.00000000000E+00  0.43335828280E+02  0.43335828280E+02  0.00000000000E+00 0.  1.
          2   -1    0    0  501    0  0.00000000000E+00 -0.00000000000E+00 -0.12830032819E+04  0.12830032819E+04  0.00000000000E+00 0. -1.
         23    2    1    2    0    0 -0.18211925451E+03  0.78014974370E+02 -0.95225098487E+03  0.97725174920E+03  0.94790738158E+02 0.  0.
         13    1    3    3    0    0 -0.83876439418E+02  0.76139933897E+02 -0.37638038017E+03  0.39305818551E+03  0.00000000000E+00 0.  1.
        -13    1    3    3    0    0 -0.98242815087E+02  0.18750404729E+01 -0.57587060471E+03  0.58419356369E+03  0.00000000000E+00 0. -1.
         22    1    1    2    0    0  0.18211925451E+03 -0.78014974370E+02 -0.28741646875E+03  0.34908736098E+03  0.00000000000E+00 0. -1.
<mgrwt>
<rscale>  0 0.47159309E+03</rscale>
<asrwt>0</asrwt>
<pdfrwt beam="1">  1        2 0.19738511E+00 0.47159309E+03</pdfrwt>
<pdfrwt beam="2">  1       -2 0.66670508E-02 0.47159309E+03</pdfrwt>
<totfact> 0.22511644E+03</totfact>
</mgrwt>
</event>
<event>
 6    1  0.9562506E-007  0.8476771E+04  0.7818608E-02  0.7441758E-01
         -2   -1    0    0    0  501 -0.00000000000E+00  0.00000000000E+00  0.43690656039E+04  0.43690656039E+04  0.00000000000E+00 0.  1.
          2   -1    0    0  501    0  0.00000000000E+00 -0.00000000000E+00 -0.41116141805E+04  0.41116141805E+04  0.00000000000E+00 0. -1.
         23    2    1    2    0    0  0.21321403188E+04 -0.30709475153E+04  0.21254349374E+04  0.43014330353E+04  0.90063882564E+02 0.  0.
         13    1    3    3    0    0  0.15848953997E+04 -0.22235632567E+04  0.15766224722E+04  0.31530723754E+04  0.00000000000E+00 0. -1.
        -13    1    3    3    0    0  0.54724491911E+03 -0.84738425861E+03  0.54881246517E+03  0.11483606599E+04  0.00000000000E+00 0.  1.
         22    1    1    2    0    0 -0.21321403188E+04  0.30709475153E+04 -0.18679835140E+04  0.41792467491E+04  0.00000000000E+00 0. -1.
<mgrwt>
<rscale>  0 0.84767711E+04</rscale>
<asrwt>0</asrwt>
<pdfrwt beam="1">  1        2 0.63255603E+00 0.84767711E+04</pdfrwt>
<pdfrwt beam="2">  1       -2 0.67216394E+00 0.84767711E+04</pdfrwt>
<totfact> 0.45207822E-05</totfact>
</mgrwt>
</event>
<event>
 6    1  0.9562506E-007  0.3685378E+04  0.7818608E-02  0.8071210E-01
         -2   -1    0    0    0  501 -0.00000000000E+00  0.00000000000E+00  0.19671367812E+04  0.19671367812E+04  0.00000000000E+00 0.  1.
          2   -1    0    0  501    0  0.00000000000E+00 -0.00000000000E+00 -0.17261146030E+04  0.17261146030E+04  0.00000000000E+00 0. -1.
         23    2    1    2    0    0  0.17908332563E+04  0.29049575167E+03  0.43740604200E+03  0.18684121707E+04  0.90379535566E+02 0.  0.
         13    1    3    3    0    0  0.79621145035E+03  0.10422605635E+03  0.15495546746E+03  0.81781840367E+03  0.00000000000E+00 0. -1.
        -13    1    3    3    0    0  0.99462180590E+03  0.18626969531E+03  0.28245057454E+03  0.10505937670E+04  0.00000000000E+00 0.  1.
         22    1    1    2    0    0 -0.17908332563E+04 -0.29049575167E+03 -0.19638386382E+03  0.18248392136E+04  0.00000000000E+00 0. -1.
<mgrwt>
<rscale>  0 0.36853784E+04</rscale>
<asrwt>0</asrwt>
<pdfrwt beam="1">  1        2 0.26555609E+00 0.36853784E+04</pdfrwt>
<pdfrwt beam="2">  1       -2 0.30263643E+00 0.36853784E+04</pdfrwt>
<totfact> 0.23505552E-01</totfact>
</mgrwt>
</event>
<event>
 6    1  0.9562506E-007  0.2160192E+04  0.7818608E-02  0.8535182E-01
         -2   -1    0    0    0  501 -0.00000000000E+00  0.00000000000E+00  0.66152613749E+03  0.66152613749E+03  0.00000000000E+00 0.  1.
          2   -1    0    0  501    0  0.00000000000E+00 -0.00000000000E+00 -0.17635088837E+04  0.17635088837E+04  0.00000000000E+00 0. -1.
         23    2    1    2    0    0  0.38473852759E+03  0.93485624566E+03 -0.13278376106E+03  0.10245613130E+04  0.10057048360E+03 0.  0.
         13    1    3    3    0    0  0.24644082822E+03  0.60098262732E+03 -0.36508490625E+02  0.65057364691E+03  0.00000000000E+00 0. -1.
        -13    1    3    3    0    0  0.13829769937E+03  0.33387361833E+03 -0.96275270432E+02  0.37398766606E+03  0.00000000000E+00 0.  1.
         22    1    1    2    0    0 -0.38473852759E+03 -0.93485624566E+03 -0.96919898519E+03  0.14004737083E+04  0.00000000000E+00 0. -1.
<mgrwt>
<rscale>  0 0.21601919E+04</rscale>
<asrwt>0</asrwt>
<pdfrwt beam="1">  1        2 0.27130906E+00 0.21601919E+04</pdfrwt>
<pdfrwt beam="2">  1       -2 0.10177325E+00 0.21601919E+04</pdfrwt>
<totfact> 0.65677063E+00</totfact>
</mgrwt>
</event>
<event>
 6    1  0.9562506E-007  0.3114881E+04  0.7818608E-02  0.8211666E-01
         -2   -1    0    0    0  501 -0.00000000000E+00  0.00000000000E+00  0.16721793609E+04  0.16721793609E+04  0.00000000000E+00 0.  1.
          2   -1    0    0  501    0  0.00000000000E+00 -0.00000000000E+00 -0.14505750542E+04  0.14505750542E+04  0.00000000000E+00 0. -1.
         23    2    1    2    0    0 -0.91349194957E+03 -0.88863219972E+03 -0.78325625242E+03  0.14998312894E+04  0.10894407532E+03 0.  0.
         13    1    3    3    0    0 -0.45218005614E+03 -0.36434767945E+03 -0.35951603983E+03  0.68298449293E+03  0.00000000000E+00 0. -1.
        -13    1    3    3    0    0 -0.46131189343E+03 -0.52428452026E+03 -0.42374021258E+03  0.81684679651E+03  0.00000000000E+00 0.  1.
         22    1    1    2    0    0  0.91349194957E+03  0.88863219972E+03  0.10048605591E+04  0.16229231256E+04  0.00000000000E+00 0.  1.
<mgrwt>
<rscale>  0 0.31148815E+04</rscale>
<asrwt>0</asrwt>
<pdfrwt beam="1">  1        2 0.22316539E+00 0.31148815E+04</pdfrwt>
<pdfrwt beam="2">  1       -2 0.25725836E+00 0.31148815E+04</pdfrwt>
<totfact> 0.66584905E-01</totfact>
</mgrwt>
</event>
<event>
 6    1  0.9562506E-007  0.3207905E+04  0.7818608E-02  0.8186733E-01
          1   -1    0    0  501    0  0.00000000000E+00  0.00000000000E+00  0.15897719433E+04  0.15897719433E+04  0.00000000000E+00 0. -1.
         -1   -1    0    0    0  501 -0.00000000000E+00 -0.00000000000E+00 -0.16182596320E+04  0.16182596320E+04  0.00000000000E+00 0.  1.
         23    2    1    2    0    0 -0.12714104937E+04  0.96064764379E+03  0.15656111428E+03  0.16037960569E+04  0.91224287959E+02 0.  0.
         11    1    3    3    0    0 -0.10269750740E+04  0.76175945038E+03  0.16018236633E+03  0.12886479943E+04  0.00000000000E+00 0. -1.
        -11    1    3    3    0    0 -0.24443541970E+03  0.19888819341E+03 -0.36212520531E+01  0.31514806258E+03  0.00000000000E+00 0.  1.
         22    1    1    2    0    0  0.12714104937E+04 -0.96064764379E+03 -0.18504880298E+03  0.16042355184E+04  0.00000000000E+00 0.  1.
<mgrwt>
<rscale>  0 0.32079051E+04</rscale>
<asrwt>0</asrwt>
<pdfrwt beam="1">  1        1 0.24458030E+00 0.32079051E+04</pdfrwt>
<pdfrwt beam="2">  1       -1 0.24896302E+00 0.32079051E+04</pdfrwt>
<totfact> 0.33578966E-01</totfact>
</mgrwt>
</event>
<event>
 6    1  0.9562506E-007  0.1988397E+04  0.7818608E-02  0.8612065E-01
          1   -1    0    0  501    0  0.00000000000E+00  0.00000000000E+00  0.21101481895E+04  0.21101481895E+04  0.00000000000E+00 0. -1.
         -1   -1    0    0    0  501 -0.00000000000E+00 -0.00000000000E+00 -0.46841784926E+03  0.46841784926E+03  0.00000000000E+00 0.  1.
         23    2    1    2    0    0 -0.79391797633E+02 -0.44244572192E+03  0.19697659911E+04  0.20220872318E+04  0.82446583190E+02 0.  0.
         11    1    3    3    0    0 -0.36189989711E+02 -0.65996530049E+02  0.41838824056E+03  0.42510466614E+03  0.00000000000E+00 0.  1.
        -11    1    3    3    0    0 -0.43201807922E+02 -0.37644919187E+03  0.15513777505E+04  0.15969825657E+04  0.00000000000E+00 0. -1.
         22    1    1    2    0    0  0.79391797633E+02  0.44244572192E+03 -0.32803565082E+03  0.55647880695E+03  0.00000000000E+00 0.  1.
<mgrwt>
<rscale>  0 0.19883974E+04</rscale>
<asrwt>0</asrwt>
<pdfrwt beam="1">  1        1 0.32463818E+00 0.19883974E+04</pdfrwt>
<pdfrwt beam="2">  1       -1 0.72064286E-01 0.19883974E+04</pdfrwt>
<totfact> 0.45255792E+00</totfact>
</mgrwt>
</event>
<event>
 6    1  0.9562506E-007  0.1143761E+04  0.7818608E-02  0.9163558E-01
          2   -1    0    0  501    0  0.00000000000E+00  0.00000000000E+00  0.65793289498E+03  0.65793289498E+03  0.00000000000E+00 0. -1.
         -2   -1    0    0    0  501 -0.00000000000E+00 -0.00000000000E+00 -0.49708328051E+03  0.49708328051E+03  0.00000000000E+00 0.  1.
         23    2    1    2    0    0  0.14076501979E+03 -0.44220348471E+03 -0.25036147447E+03  0.53497321540E+03  0.90314786236E+02 0.  0.
         11    1    3    3    0    0  0.23377135978E+02 -0.13591548248E+02 -0.24429426086E+02  0.36441974826E+02  0.00000000000E+00 0. -1.
        -11    1    3    3    0    0  0.11738788382E+03 -0.42861193646E+03 -0.22593204839E+03  0.49853124058E+03  0.00000000000E+00 0.  1.
         22    1    1    2    0    0 -0.14076501979E+03  0.44220348471E+03  0.41121108895E+03  0.62004296009E+03  0.00000000000E+00 0. -1.
<mgrwt>
<rscale>  0 0.11437612E+04</rscale>
<asrwt>0</asrwt>
<pdfrwt beam="1">  1        2 0.10122045E+00 0.11437612E+04</pdfrwt>
<pdfrwt beam="2">  1       -2 0.76474350E-01 0.11437612E+04</pdfrwt>
<totfact> 0.67105144E+01</totfact>
</mgrwt>
</event>
<event>
 6    1  0.9562506E-007  0.4023622E+04  0.7818608E-02  0.7999798E-01
         -1   -1    0    0    0  501 -0.00000000000E+00  0.00000000000E+00  0.14732802224E+04  0.14732802224E+04  0.00000000000E+00 0.  1.
          1   -1    0    0  501    0  0.00000000000E+00 -0.00000000000E+00 -0.27471922562E+04  0.27471922562E+04  0.00000000000E+00 0. -1.
         23    2    1    2    0    0  0.92259077913E+03  0.10063002674E+03  0.12336989956E+04  0.15466338106E+04  0.93609744850E+02 0.  0.
         11    1    3    3    0    0  0.10438802001E+03  0.40495384226E+02  0.16317744727E+03  0.19789798928E+03  0.00000000000E+00 0. -1.
        -11    1    3    3    0    0  0.81820275912E+03  0.60134642515E+02  0.10705215483E+04  0.13487358213E+04  0.00000000000E+00 0.  1.
         22    1    1    2    0    0 -0.92259077913E+03 -0.10063002674E+03 -0.25076110294E+04  0.26738386680E+04  0.00000000000E+00 0. -1.
<mgrwt>
<rscale>  0 0.40236223E+04</rscale>
<asrwt>0</asrwt>
<pdfrwt beam="1">  1        1 0.42264496E+00 0.40236223E+04</pdfrwt>
<pdfrwt beam="2">  1       -1 0.22665850E+00 0.40236223E+04</pdfrwt>
<totfact> 0.70504205E-02</totfact>
</mgrwt>
</event>
<event>
 6    1  0.9800265E-007  0.2925195E+04  0.7818608E-02  0.8265420E-01
          2   -1    0    0  501    0  0.00000000000E+00  0.00000000000E+00  0.16106854512E+04  0.16106854512E+04  0.00000000000E+00 0. -1.
         -2   -1    0    0    0  501 -0.00000000000E+00 -0.00000000000E+00 -0.13281250712E+04  0.13281250712E+04  0.00000000000E+00 0.  1.
         23    2    1    2    0    0 -0.31370348965E+03 -0.93444954783E+03 -0.94224126099E+03  0.13666321303E+04  0.90878759472E+02 0.  0.
         11    1    3    3    0    0 -0.22178779645E+03 -0.52124330103E+03 -0.54926770199E+03  0.78903701686E+03  0.00000000000E+00 0. -1.
        -11    1    3    3    0    0 -0.91915693194E+02 -0.41320624680E+03 -0.39297355900E+03  0.57759511349E+03  0.00000000000E+00 0.  1.
         22    1    1    2    0    0  0.31370348965E+03  0.93444954783E+03  0.12248016410E+04  0.15721783921E+04  0.00000000000E+00 0. -1.
<mgrwt>
<rscale>  0 0.29251952E+04</rscale>
<asrwt>0</asrwt>
<pdfrwt beam="1">  1        2 0.24779776E+00 0.29251952E+04</pdfrwt>
<pdfrwt beam="2">  1       -2 0.20432693E+00 0.29251952E+04</pdfrwt>
<totfact> 0.11806279E+00</totfact>
</mgrwt>
</event>
<event>
 6    1  0.9562506E-007  0.7904585E+03  0.7818608E-02  0.9573932E-01
          1   -1    0    0  501    0  0.00000000000E+00  0.00000000000E+00  0.19605913536E+04  0.19605913536E+04  0.00000000000E+00 0. -1.
         -1   -1    0    0    0  501 -0.00000000000E+00 -0.00000000000E+00 -0.79672985054E+02  0.79672985054E+02  0.00000000000E+00 0.  1.
         23    2    1    2    0    0 -0.17753227857E+03 -0.66646004473E+01  0.18489280748E+04  0.18597497804E+04  0.92585599341E+02 0.  0.
         13    1    3    3    0    0 -0.10447844309E+03  0.15826950376E+02  0.66370169927E+03  0.67206114531E+03  0.00000000000E+00 0.  1.
        -13    1    3    3    0    0 -0.73053835482E+02 -0.22491550824E+02  0.11852263755E+04  0.11876886351E+04  0.00000000000E+00 0. -1.
         22    1    1    2    0    0  0.17753227857E+03  0.66646004473E+01  0.31990293743E+02  0.18051455822E+03  0.00000000000E+00 0.  1.
<mgrwt>
<rscale>  0 0.79045851E+03</rscale>
<asrwt>0</asrwt>
<pdfrwt beam="1">  1        1 0.30162940E+00 0.79045851E+03</pdfrwt>
<pdfrwt beam="2">  1       -1 0.12257384E-01 0.79045851E+03</pdfrwt>
<totfact> 0.14815289E+02</totfact>
</mgrwt>
</event>
<event>
 6    1  0.9562506E-007  0.9415148E+03  0.7818608E-02  0.9375124E-01
          2   -1    0    0  501    0  0.00000000000E+00  0.00000000000E+00  0.25668567951E+04  0.25668567951E+04  0.00000000000E+00 0. -1.
         -2   -1    0    0    0  501 -0.00000000000E+00 -0.00000000000E+00 -0.86336157572E+02  0.86336157572E+02  0.00000000000E+00 0.  1.
         23    2    1    2    0    0  0.45584144585E+03  0.92988295944E+02  0.13410101690E+04  0.14223711317E+04  0.91613951847E+02 0.  0.
         13    1    3    3    0    0  0.41594804800E+03  0.74530519175E+02  0.11207569323E+04  0.11977744688E+04  0.00000000000E+00 0. -1.
        -13    1    3    3    0    0  0.39893397849E+02  0.18457776769E+02  0.22025323672E+03  0.22459666294E+03  0.00000000000E+00 0.  1.
         22    1    1    2    0    0 -0.45584144585E+03 -0.92988295944E+02  0.11395104686E+04  0.12308218209E+04  0.00000000000E+00 0. -1.
<mgrwt>
<rscale>  0 0.94151485E+03</rscale>
<asrwt>0</asrwt>
<pdfrwt beam="1">  1        2 0.39490099E+00 0.94151485E+03</pdfrwt>
<pdfrwt beam="2">  1       -2 0.13282488E-01 0.94151485E+03</pdfrwt>
<totfact> 0.13961788E+02</totfact>
</mgrwt>
</event>
<event>
 6    1  0.9562506E-007  0.1892606E+04  0.7818608E-02  0.8658546E-01
          1   -1    0    0  501    0  0.00000000000E+00  0.00000000000E+00  0.76141613121E+03  0.76141613121E+03  0.00000000000E+00 0. -1.
         -1   -1    0    0    0  501 -0.00000000000E+00 -0.00000000000E+00 -0.11760838359E+04  0.11760838359E+04  0.00000000000E+00 0.  1.
         23    2    1    2    0    0  0.54614129237E+03  0.67925606328E+03 -0.57927930885E+03  0.10505072440E+04  0.91333680680E+02 0.  0.
         13    1    3    3    0    0  0.25631524624E+03  0.30052366927E+03 -0.31544962357E+03  0.50549030283E+03  0.00000000000E+00 0.  1.
        -13    1    3    3    0    0  0.28982604613E+03  0.37873239401E+03 -0.26382968529E+03  0.54501694114E+03  0.00000000000E+00 0. -1.
         22    1    1    2    0    0 -0.54614129237E+03 -0.67925606328E+03  0.16461160414E+03  0.88699272317E+03  0.00000000000E+00 0. -1.
<mgrwt>
<rscale>  0 0.18926058E+04</rscale>
<asrwt>0</asrwt>
<pdfrwt beam="1">  1        1 0.11714094E+00 0.18926058E+04</pdfrwt>
<pdfrwt beam="2">  1       -1 0.18093597E+00 0.18926058E+04</pdfrwt>
<totfact> 0.45883104E+00</totfact>
</mgrwt>
</event>
<event>
 6    1  0.9562506E-007  0.1073771E+04  0.7818608E-02  0.9231140E-01
         -2   -1    0    0    0  501 -0.00000000000E+00  0.00000000000E+00  0.15716045877E+03  0.15716045877E+03  0.00000000000E+00 0.  1.
          2   -1    0    0  501    0  0.00000000000E+00 -0.00000000000E+00 -0.18340877797E+04  0.18340877797E+04  0.00000000000E+00 0. -1.
         23    2    1    2    0    0 -0.21500678349E+03  0.46119394575E+03 -0.11394867759E+04  0.12511333069E+04  0.89312185757E+02 0.  0.
         13    1    3    3    0    0 -0.13478182884E+03  0.18910089504E+03 -0.54629762768E+03  0.59360457200E+03  0.00000000000E+00 0. -1.
        -13    1    3    3    0    0 -0.80224954656E+02  0.27209305071E+03 -0.59318914824E+03  0.65752873488E+03  0.00000000000E+00 0.  1.
         22    1    1    2    0    0  0.21500678349E+03 -0.46119394575E+03 -0.53744054501E+03  0.74011493159E+03  0.00000000000E+00 0. -1.
<mgrwt>
<rscale>  0 0.10737711E+04</rscale>
<asrwt>0</asrwt>
<pdfrwt beam="1">  1        2 0.28216736E+00 0.10737711E+04</pdfrwt>
<pdfrwt beam="2">  1       -2 0.24178531E-01 0.10737711E+04</pdfrwt>
<totfact> 0.12531755E+02</totfact>
</mgrwt>
</event>
<event>
 6    1  0.9562506E-007  0.1917738E+04  0.7818608E-02  0.8646077E-01
          1   -1    0    0  501    0  0.00000000000E+00  0.00000000000E+00  0.74286740050E+03  0.74286740050E+03  0.00000000000E+00 0. -1.
         -1   -1    0    0    0  501 -0.00000000000E+00 -0.00000000000E+00 -0.12376762539E+04  0.12376762539E+04  0.00000000000E+00 0.  1.
         23    2    1    2    0    0 -0.11018427119E+03 -0.20242984931E+03 -0.12068772691E+04  0.12321053830E+04  0.91719761399E+02 0.  0.
         13    1    3    3    0    0 -0.12673525413E+03 -0.17710217154E+03 -0.10543511875E+04  0.10766073706E+04  0.00000000000E+00 0. -1.
        -13    1    3    3    0    0  0.16550982941E+02 -0.25327677771E+02 -0.15252608157E+03  0.15549801239E+03  0.00000000000E+00 0.  1.
         22    1    1    2    0    0  0.11018427119E+03  0.20242984931E+03  0.71206841568E+03  0.74843827142E+03  0.00000000000E+00 0. -1.
<mgrwt>
<rscale>  0 0.19177376E+04</rscale>
<asrwt>0</asrwt>
<pdfrwt beam="1">  1        1 0.11428729E+00 0.19177376E+04</pdfrwt>
<pdfrwt beam="2">  1       -1 0.19041173E+00 0.19177376E+04</pdfrwt>
<totfact> 0.40761139E+00</totfact>
</mgrwt>
</event>
<event>
 6    1  0.9562506E-007  0.2926850E+04  0.7818608E-02  0.8264933E-01
         -1   -1    0    0    0  501 -0.00000000000E+00  0.00000000000E+00  0.91063400574E+03  0.91063400574E+03  0.00000000000E+00 0.  1.
          1   -1    0    0  501    0  0.00000000000E+00 -0.00000000000E+00 -0.23517827389E+04  0.23517827389E+04  0.00000000000E+00 0. -1.
         23    2    1    2    0    0  0.35571798098E+02 -0.15992563081E+03 -0.23405478777E+04  0.23482174331E+04  0.95494423966E+02 0.  0.
         13    1    3    3    0    0 -0.18029563113E+02 -0.11667316087E+03 -0.12788249682E+04  0.12842628201E+04  0.00000000000E+00 0. -1.
        -13    1    3    3    0    0  0.53601361211E+02 -0.43252469933E+02 -0.10617229095E+04  0.10639546130E+04  0.00000000000E+00 0.  1.
         22    1    1    2    0    0 -0.35571798098E+02  0.15992563081E+03  0.89939914449E+03  0.91419931160E+03  0.00000000000E+00 0.  1.
<mgrwt>
<rscale>  0 0.29268504E+04</rscale>
<asrwt>0</asrwt>
<pdfrwt beam="1">  1        1 0.36181272E+00 0.29268504E+04</pdfrwt>
<pdfrwt beam="2">  1       -1 0.14009754E+00 0.29268504E+04</pdfrwt>
<totfact> 0.61428287E-01</totfact>
</mgrwt>
</event>
<event>
 6    1  0.9562506E-007  0.5587726E+03  0.7818608E-02  0.9994836E-01
          2   -1    0    0  501    0  0.00000000000E+00  0.00000000000E+00  0.48882458157E+03  0.48882458157E+03  0.00000000000E+00 0. -1.
         -2   -1    0    0    0  501 -0.00000000000E+00 -0.00000000000E+00 -0.15968245183E+03  0.15968245183E+03  0.00000000000E+00 0.  1.
         23    2    1    2    0    0  0.99244745181E+02  0.13627821063E+03  0.41685961800E+03  0.45846591183E+03  0.89430313963E+02 0.  0.
         13    1    3    3    0    0  0.26861157707E+02  0.50779750188E+02  0.25648928862E+03  0.26284379391E+03  0.00000000000E+00 0. -1.
        -13    1    3    3    0    0  0.72383587474E+02  0.85498460443E+02  0.16037032938E+03  0.19562211792E+03  0.00000000000E+00 0.  1.
         22    1    1    2    0    0 -0.99244745181E+02 -0.13627821063E+03 -0.87717488256E+02  0.19004112156E+03  0.00000000000E+00 0.  1.
<mgrwt>
<rscale>  0 0.55877261E+03</rscale>
<asrwt>0</asrwt>
<pdfrwt beam="1">  1        2 0.75203781E-01 0.55877261E+03</pdfrwt>
<pdfrwt beam="2">  1       -2 0.24566531E-01 0.55877261E+03</pdfrwt>
<totfact> 0.93845285E+02</totfact>
</mgrwt>
</event>
<event>
 6    1  0.9562506E-007  0.3130586E+04  0.7818608E-02  0.8207394E-01
         -2   -1    0    0    0  501 -0.00000000000E+00  0.00000000000E+00  0.10066790362E+04  0.10066790362E+04  0.00000000000E+00 0.  1.
          2   -1    0    0  501    0  0.00000000000E+00 -0.00000000000E+00 -0.24338857649E+04  0.24338857649E+04  0.00000000000E+00 0. -1.
         23    2    1    2    0    0 -0.14769806936E+04 -0.47574705615E+03 -0.49912920385E+03  0.16324898241E+04  0.89921259170E+02 0.  0.
         13    1    3    3    0    0 -0.56885348981E+03 -0.21868469783E+03 -0.16641251897E+03  0.63175186300E+03  0.00000000000E+00 0. -1.
        -13    1    3    3    0    0 -0.90812720377E+03 -0.25706235832E+03 -0.33271668487E+03  0.10007379611E+04  0.00000000000E+00 0.  1.
         22    1    1    2    0    0  0.14769806936E+04  0.47574705615E+03 -0.92807752481E+03  0.18080749771E+04  0.00000000000E+00 0. -1.
<mgrwt>
<rscale>  0 0.31305857E+04</rscale>
<asrwt>0</asrwt>
<pdfrwt beam="1">  1        2 0.37444396E+00 0.31305857E+04</pdfrwt>
<pdfrwt beam="2">  1       -2 0.15487370E+00 0.31305857E+04</pdfrwt>
<totfact> 0.88554768E-01</totfact>
</mgrwt>
</event>
<event>
 6    1  0.9562506E-007  0.7980741E+03  0.7818608E-02  0.9562809E-01
         -1   -1    0    0    0  501 -0.00000000000E+00  0.00000000000E+00  0.21751019512E+03  0.21751019512E+03  0.00000000000E+00 0.  1.
          1   -1    0    0  501    0  0.00000000000E+00 -0.00000000000E+00 -0.73206016101E+03  0.73206016101E+03  0.00000000000E+00 0. -1.
         23    2    1    2    0    0 -0.25110027108E+03  0.17233985809E+03 -0.55918311005E+03  0.64176442640E+03  0.80146463465E+02 0.  0.
         11    1    3    3    0    0 -0.17956212544E+03  0.92540892207E+02 -0.30407022140E+03  0.36505489062E+03  0.00000000000E+00 0.  1.
        -11    1    3    3    0    0 -0.71538145640E+02  0.79798965887E+02 -0.25511288864E+03  0.27670953578E+03  0.00000000000E+00 0. -1.
         22    1    1    2    0    0  0.25110027108E+03 -0.17233985809E+03  0.44633144153E+02  0.30780592973E+03  0.00000000000E+00 0.  1.
<mgrwt>
<rscale>  0 0.79807405E+03</rscale>
<asrwt>0</asrwt>
<pdfrwt beam="1">  1        1 0.11262464E+00 0.79807405E+03</pdfrwt>
<pdfrwt beam="2">  1       -1 0.33463107E-01 0.79807405E+03</pdfrwt>
<totfact> 0.21600789E+02</totfact>
</mgrwt>
</event>
<event>
 6    1  0.9562506E-007  0.3133562E+04  0.7818608E-02  0.8206587E-01
         -1   -1    0    0    0  501 -0.00000000000E+00  0.00000000000E+00  0.22566414598E+04  0.22566414598E+04  0.00000000000E+00 0.  1.
          1   -1    0    0  501    0  0.00000000000E+00 -0.00000000000E+00 -0.10878126986E+04  0.10878126986E+04  0.00000000000E+00 0. -1.
         23    2    1    2    0    0  0.13873892163E+04  0.70827222142E+03  0.41913325823E+03  0.16157142345E+04  0.91440811998E+02 0.  0.
         13    1    3    3    0    0  0.10764425949E+04  0.51070436802E+03  0.30179515214E+03  0.12290760454E+04  0.00000000000E+00 0.  1.
        -13    1    3    3    0    0  0.31094662146E+03  0.19756785340E+03  0.11733810609E+03  0.38663818905E+03  0.00000000000E+00 0. -1.
         22    1    1    2    0    0 -0.13873892163E+04 -0.70827222142E+03  0.74969550300E+03  0.17287399239E+04  0.00000000000E+00 0.  1.
<mgrwt>
<rscale>  0 0.31335623E+04</rscale>
<asrwt>0</asrwt>
<pdfrwt beam="1">  1        1 0.16735580E+00 0.31335623E+04</pdfrwt>
<pdfrwt beam="2">  1       -1 0.34717561E+00 0.31335623E+04</pdfrwt>
<totfact> 0.17670305E-01</totfact>
</mgrwt>
</event>
<event>
 6    1  0.9562506E-007  0.1155439E+04  0.7818608E-02  0.9152780E-01
          1   -1    0    0  501    0  0.00000000000E+00  0.00000000000E+00  0.13609935417E+04  0.13609935417E+04  0.00000000000E+00 0. -1.
         -1   -1    0    0    0  501 -0.00000000000E+00 -0.00000000000E+00 -0.24523246149E+03  0.24523246149E+03  0.00000000000E+00 0.  1.
         23    2    1    2    0    0  0.17181439954E+03  0.13520279216E+03 -0.17565004390E+03  0.29643874017E+03  0.96036481909E+02 0.  0.
         11    1    3    3    0    0  0.43956762558E+02  0.38367695671E+02 -0.10720905910E+03  0.12205760689E+03  0.00000000000E+00 0. -1.
        -11    1    3    3    0    0  0.12785763698E+03  0.96835096487E+02 -0.68440984797E+02  0.17438113329E+03  0.00000000000E+00 0.  1.
         22    1    1    2    0    0 -0.17181439954E+03 -0.13520279216E+03  0.12914111241E+04  0.13097872630E+04  0.00000000000E+00 0. -1.
<mgrwt>
<rscale>  0 0.11554390E+04</rscale>
<asrwt>0</asrwt>
<pdfrwt beam="1">  1        1 0.20938362E+00 0.11554390E+04</pdfrwt>
<pdfrwt beam="2">  1       -1 0.37728072E-01 0.11554390E+04</pdfrwt>
<totfact> 0.55041920E+01</totfact>
</mgrwt>
</event>
<event>
 6    1  0.9562506E-007  0.1361189E+04  0.7818608E-02  0.8982401E-01
         -1   -1    0    0    0  501 -0.00000000000E+00  0.00000000000E+00  0.37301606613E+03  0.37301606613E+03  0.00000000000E+00 0.  1.
          1   -1    0    0  501    0  0.00000000000E+00 -0.00000000000E+00 -0.12417934976E+04  0.12417934976E+04  0.00000000000E+00 0. -1.
         23    2    1    2    0    0  0.35913535226E+03 -0.42905845497E+03  0.17172929802E+02  0.56696539513E+03  0.89919356820E+02 0.  0.
         11    1    3    3    0    0  0.32537852145E+03 -0.40995816423E+03 -0.26738061994E+01  0.52339662578E+03  0.00000000000E+00 0. -1.
        -11    1    3    3    0    0  0.33756830806E+02 -0.19100290745E+02  0.19846736002E+02  0.43568769349E+02  0.00000000000E+00 0.  1.
         22    1    1    2    0    0 -0.35913535226E+03  0.42905845497E+03 -0.88595036125E+03  0.10478441686E+04  0.00000000000E+00 0. -1.
<mgrwt>
<rscale>  0 0.13611891E+04</rscale>
<asrwt>0</asrwt>
<pdfrwt beam="1">  1        1 0.19104515E+00 0.13611891E+04</pdfrwt>
<pdfrwt beam="2">  1       -1 0.57387087E-01 0.13611891E+04</pdfrwt>
<totfact> 0.29958155E+01</totfact>
</mgrwt>
</event>
<event>
 6    1  0.9562506E-007  0.2015231E+04  0.7818608E-02  0.8599532E-01
          2   -1    0    0  501    0  0.00000000000E+00  0.00000000000E+00  0.31388028254E+04  0.31388028254E+04  0.00000000000E+00 0. -1.
         -2   -1    0    0    0  501 -0.00000000000E+00 -0.00000000000E+00 -0.32346392992E+03  0.32346392992E+03  0.00000000000E+00 0.  1.
         23    2    1    2    0    0  0.80456286981E+03 -0.48025052447E+03  0.78297390738E+03  0.12243057587E+04  0.88963325828E+02 0.  0.
         13    1    3    3    0    0  0.51968154306E+03 -0.32892397785E+03  0.46180048695E+03  0.76910310046E+03  0.00000000000E+00 0.  1.
        -13    1    3    3    0    0  0.28488132675E+03 -0.15132654662E+03  0.32117342043E+03  0.45520265820E+03  0.00000000000E+00 0. -1.
         22    1    1    2    0    0 -0.80456286981E+03  0.48025052447E+03  0.20323649881E+04  0.22379609967E+04  0.00000000000E+00 0.  1.
<mgrwt>
<rscale>  0 0.20152315E+04</rscale>
<asrwt>0</asrwt>
<pdfrwt beam="1">  1        2 0.48289272E+00 0.20152315E+04</pdfrwt>
<pdfrwt beam="2">  1       -2 0.49763684E-01 0.20152315E+04</pdfrwt>
<totfact> 0.50533699E+00</totfact>
</mgrwt>
</event>
<event>
 6    1  0.9562506E-007  0.1875406E+04  0.7818608E-02  0.8667196E-01
         -2   -1    0    0    0  501 -0.00000000000E+00  0.00000000000E+00  0.33216154238E+03  0.33216154238E+03  0.00000000000E+00 0.  1.
          2   -1    0    0  501    0  0.00000000000E+00 -0.00000000000E+00 -0.26471679325E+04  0.26471679325E+04  0.00000000000E+00 0. -1.
         23    2    1    2    0    0 -0.74260130854E+03  0.14485875970E+03 -0.20343273248E+04  0.21723465126E+04  0.90337935231E+02 0.  0.
         13    1    3    3    0    0 -0.36309898901E+03  0.96613608932E+02 -0.90143990217E+03  0.97661095758E+03  0.00000000000E+00 0.  1.
        -13    1    3    3    0    0 -0.37950231953E+03  0.48245150768E+02 -0.11328874227E+04  0.11957355550E+04  0.00000000000E+00 0. -1.
         22    1    1    2    0    0  0.74260130854E+03 -0.14485875970E+03 -0.28067906525E+03  0.80698296226E+03  0.00000000000E+00 0.  1.
<mgrwt>
<rscale>  0 0.18754065E+04</rscale>
<asrwt>0</asrwt>
<pdfrwt beam="1">  1        2 0.40725660E+00 0.18754065E+04</pdfrwt>
<pdfrwt beam="2">  1       -2 0.51101776E-01 0.18754065E+04</pdfrwt>
<totfact> 0.97082100E+00</totfact>
</mgrwt>
</event>
<event>
 6    1  0.9562506E-007  0.3273409E+04  0.7818608E-02  0.8169695E-01
          2   -1    0    0  501    0  0.00000000000E+00  0.00000000000E+00  0.18809110662E+04  0.18809110662E+04  0.00000000000E+00 0. -1.
         -2   -1    0    0    0  501 -0.00000000000E+00 -0.00000000000E+00 -0.14242042544E+04  0.14242042544E+04  0.00000000000E+00 0.  1.
         23    2    1    2    0    0  0.63618752644E+03 -0.13219190724E+04 -0.50130570230E+03  0.15529758912E+04  0.90675844201E+02 0.  0.
         11    1    3    3    0    0  0.33093699896E+03 -0.61038193093E+03 -0.26919980003E+03  0.74468377934E+03  0.00000000000E+00 0.  1.
        -11    1    3    3    0    0  0.30525052748E+03 -0.71153714145E+03 -0.23210590227E+03  0.80829211184E+03  0.00000000000E+00 0. -1.
         22    1    1    2    0    0 -0.63618752644E+03  0.13219190724E+04  0.95801251413E+03  0.17521394294E+04  0.00000000000E+00 0. -1.
<mgrwt>
<rscale>  0 0.32734090E+04</rscale>
<asrwt>0</asrwt>
<pdfrwt beam="1">  1        2 0.28937093E+00 0.32734090E+04</pdfrwt>
<pdfrwt beam="2">  1       -2 0.21910835E+00 0.32734090E+04</pdfrwt>
<totfact> 0.65219157E-01</totfact>
</mgrwt>
</event>
<event>
 6    1  0.9562506E-007  0.2324201E+04  0.7818608E-02  0.8468440E-01
          2   -1    0    0  501    0  0.00000000000E+00  0.00000000000E+00  0.26634172502E+04  0.26634172502E+04  0.00000000000E+00 0. -1.
         -2   -1    0    0    0  501 -0.00000000000E+00 -0.00000000000E+00 -0.50704714976E+03  0.50704714976E+03  0.00000000000E+00 0.  1.
         23    2    1    2    0    0  0.80362174328E+03 -0.53646997883E+03  0.19561064461E+04  0.21836951890E+04  0.92543532791E+02 0.  0.
         11    1    3    3    0    0  0.17941694343E+03 -0.77293506412E+02  0.36935547710E+03  0.41783752128E+03  0.00000000000E+00 0. -1.
        -11    1    3    3    0    0  0.62420479985E+03 -0.45917647241E+03  0.15867509690E+04  0.17658576677E+04  0.00000000000E+00 0.  1.
         22    1    1    2    0    0 -0.80362174328E+03  0.53646997883E+03  0.20026365432E+03  0.98676921096E+03  0.00000000000E+00 0.  1.
<mgrwt>
<rscale>  0 0.23242015E+04</rscale>
<asrwt>0</asrwt>
<pdfrwt beam="1">  1        2 0.40975649E+00 0.23242015E+04</pdfrwt>
<pdfrwt beam="2">  1       -2 0.78007256E-01 0.23242015E+04</pdfrwt>
<totfact> 0.36957658E+00</totfact>
</mgrwt>
</event>
<event>
 6    1  0.9562506E-007  0.3738876E+04  0.7818608E-02  0.8059401E-01
          2   -1    0    0  501    0  0.00000000000E+00  0.00000000000E+00  0.31937546915E+04  0.31937546915E+04  0.00000000000E+00 0. -1.
         -2   -1    0    0    0  501 -0.00000000000E+00 -0.00000000000E+00 -0.10942600137E+04  0.10942600137E+04  0.00000000000E+00 0.  1.
         23    2    1    2    0    0  0.15074135235E+04  0.49011103104E+03 -0.84066529147E+02  0.15897849341E+04  0.88569755482E+02 0.  0.
         13    1    3    3    0    0  0.20421539371E+03  0.92036393803E+02  0.69861252194E+01  0.22410584722E+03  0.00000000000E+00 0. -1.
        -13    1    3    3    0    0  0.13031981298E+04  0.39807463724E+03 -0.91052654366E+02  0.13656790868E+04  0.00000000000E+00 0.  1.
         22    1    1    2    0    0 -0.15074135235E+04 -0.49011103104E+03  0.21835612069E+04  0.26982297712E+04  0.00000000000E+00 0. -1.
<mgrwt>
<rscale>  0 0.37388758E+04</rscale>
<asrwt>0</asrwt>
<pdfrwt beam="1">  1        2 0.49134687E+00 0.37388758E+04</pdfrwt>
<pdfrwt beam="2">  1       -2 0.16834770E+00 0.37388758E+04</pdfrwt>
<totfact> 0.23077387E-01</totfact>
</mgrwt>
</event>
<event>
 6    1  0.1187828E-006  0.2314707E+04  0.7818608E-02  0.8472145E-01
         -2   -1    0    0    0  501 -0.00000000000E+00  0.00000000000E+00  0.83931733437E+03  0.83931733437E+03  0.00000000000E+00 0.  1.
          2   -1    0    0  501    0  0.00000000000E+00 -0.00000000000E+00 -0.15959013841E+04  0.15959013841E+04  0.00000000000E+00 0. -1.
         23    2    1    2    0    0 -0.61975118479E+03  0.40153262022E+03 -0.13139864742E+04  0.15100066136E+04  0.90771926512E+02 0.  0.
         11    1    3    3    0    0 -0.29508423413E+03  0.13757480158E+03 -0.57860679530E+03  0.66391818384E+03  0.00000000000E+00 0. -1.
        -11    1    3    3    0    0 -0.32466695065E+03  0.26395781864E+03 -0.73537967891E+03  0.84608842978E+03  0.00000000000E+00 0.  1.
         22    1    1    2    0    0  0.61975118479E+03 -0.40153262022E+03  0.55740242448E+03  0.92521210485E+03  0.00000000000E+00 0.  1.
<mgrwt>
<rscale>  0 0.23147075E+04</rscale>
<asrwt>0</asrwt>
<pdfrwt beam="1">  1        2 0.24552329E+00 0.23147075E+04</pdfrwt>
<pdfrwt beam="2">  1       -2 0.12912574E+00 0.23147075E+04</pdfrwt>
<totfact> 0.44856743E+00</totfact>
</mgrwt>
</event>
<event>
 6    1  0.9562506E-007  0.7624104E+03  0.7818608E-02  0.9616079E-01
          2   -1    0    0  501    0  0.00000000000E+00  0.00000000000E+00  0.15851040490E+04  0.15851040490E+04  0.00000000000E+00 0. -1.
         -2   -1    0    0    0  501 -0.00000000000E+00 -0.00000000000E+00 -0.91676897879E+02  0.91676897879E+02  0.00000000000E+00 0.  1.
         23    2    1    2    0    0  0.53447698873E+02 -0.34355473412E+03  0.45110134209E+03  0.57799543368E+03  0.98487505152E+02 0.  0.
         13    1    3    3    0    0  0.51505028798E+02 -0.94870484381E+02  0.95948382467E+02  0.14442738278E+03  0.00000000000E+00 0.  1.
        -13    1    3    3    0    0  0.19426700746E+01 -0.24868424974E+03  0.35515295963E+03  0.43356805090E+03  0.00000000000E+00 0. -1.
         22    1    1    2    0    0 -0.53447698873E+02  0.34355473412E+03  0.10423258091E+04  0.10987855132E+04  0.00000000000E+00 0. -1.
<mgrwt>
<rscale>  0 0.76241045E+03</rscale>
<asrwt>0</asrwt>
<pdfrwt beam="1">  1        2 0.24386214E+00 0.76241045E+03</pdfrwt>
<pdfrwt beam="2">  1       -2 0.14104139E-01 0.76241045E+03</pdfrwt>
<totfact> 0.44781619E+02</totfact>
</mgrwt>
</event>
<event>
 6    1  0.9562506E-007  0.1099509E+04  0.7818608E-02  0.9205670E-01
         -1   -1    0    0    0  501 -0.00000000000E+00  0.00000000000E+00  0.19754248074E+03  0.19754248074E+03  0.00000000000E+00 0.  1.
          1   -1    0    0  501    0  0.00000000000E+00 -0.00000000000E+00 -0.15299507974E+04  0.15299507974E+04  0.00000000000E+00 0. -1.
         23    2    1    2    0    0 -0.53178136279E+03  0.12116186083E+03 -0.71163909793E+03  0.90116039289E+03  0.90488859377E+02 0.  0.
         11    1    3    3    0    0 -0.34466846675E+03  0.95109330909E+02 -0.39800589148E+03  0.53502413633E+03  0.00000000000E+00 0.  1.
        -11    1    3    3    0    0 -0.18711289604E+03  0.26052529923E+02 -0.31363320645E+03  0.36613625656E+03  0.00000000000E+00 0. -1.
         22    1    1    2    0    0  0.53178136279E+03 -0.12116186083E+03 -0.62076921874E+03  0.82633288526E+03  0.00000000000E+00 0.  1.
<mgrwt>
<rscale>  0 0.10995095E+04</rscale>
<asrwt>0</asrwt>
<pdfrwt beam="1">  1        1 0.23537704E+00 0.10995095E+04</pdfrwt>
<pdfrwt beam="2">  1       -1 0.30391152E-01 0.10995095E+04</pdfrwt>
<totfact> 0.61976388E+01</totfact>
</mgrwt>
</event>
<event>
 6    1  0.9562506E-007  0.1631428E+04  0.7818608E-02  0.8801470E-01
          1   -1    0    0  501    0  0.00000000000E+00  0.00000000000E+00  0.81425793726E+03  0.81425793726E+03  0.00000000000E+00 0. -1.
         -1   -1    0    0    0  501 -0.00000000000E+00 -0.00000000000E+00 -0.81717219285E+03  0.81717219285E+03  0.00000000000E+00 0.  1.
         23    2    1    2    0    0  0.69078801889E+03  0.36526282534E+03  0.22326020806E+03  0.81794386309E+03  0.92639214351E+02 0.  0.
         13    1    3    3    0    0  0.23430425354E+03  0.16022996881E+03  0.48973915363E+02  0.28804612568E+03  0.00000000000E+00 0. -1.
        -13    1    3    3    0    0  0.45648376535E+03  0.20503285652E+03  0.17428629270E+03  0.52989773741E+03  0.00000000000E+00 0.  1.
         22    1    1    2    0    0 -0.69078801889E+03 -0.36526282534E+03 -0.22617446365E+03  0.81348626702E+03  0.00000000000E+00 0.  1.
<mgrwt>
<rscale>  0 0.16314275E+04</rscale>
<asrwt>0</asrwt>
<pdfrwt beam="1">  1        1 0.12527045E+00 0.16314275E+04</pdfrwt>
<pdfrwt beam="2">  1       -1 0.12571880E+00 0.16314275E+04</pdfrwt>
<totfact> 0.11347741E+01</totfact>
</mgrwt>
</event>
<event>
 6    1  0.9562506E-007  0.2448552E+04  0.7818608E-02  0.8421547E-01
          1   -1    0    0  501    0  0.00000000000E+00  0.00000000000E+00  0.16459659278E+04  0.16459659278E+04  0.00000000000E+00 0. -1.
         -1   -1    0    0    0  501 -0.00000000000E+00 -0.00000000000E+00 -0.91062133653E+03  0.91062133653E+03  0.00000000000E+00 0.  1.
         23    2    1    2    0    0 -0.13025703802E+03  0.12155791374E+04  0.36298652334E+03  0.12786005406E+04  0.91981471703E+02 0.  0.
         13    1    3    3    0    0 -0.61817584217E+02  0.61668366009E+03  0.13624474176E+03  0.63457291149E+03  0.00000000000E+00 0. -1.
        -13    1    3    3    0    0 -0.68439453801E+02  0.59889547730E+03  0.22674178159E+03  0.64402762913E+03  0.00000000000E+00 0.  1.
         22    1    1    2    0    0  0.13025703802E+03 -0.12155791374E+04  0.37235806790E+03  0.12779867237E+04  0.00000000000E+00 0. -1.
<mgrwt>
<rscale>  0 0.24485520E+04</rscale>
<asrwt>0</asrwt>
<pdfrwt beam="1">  1        1 0.25322553E+00 0.24485520E+04</pdfrwt>
<pdfrwt beam="2">  1       -1 0.14009559E+00 0.24485520E+04</pdfrwt>
<totfact> 0.19375284E+00</totfact>
</mgrwt>
</event>
<event>
 6    1  0.9562506E-007  0.2501006E+04  0.7818608E-02  0.8402627E-01
         -2   -1    0    0    0  501 -0.00000000000E+00  0.00000000000E+00  0.81278594421E+03  0.81278594421E+03  0.00000000000E+00 0.  1.
          2   -1    0    0  501    0  0.00000000000E+00 -0.00000000000E+00 -0.19239482468E+04  0.19239482468E+04  0.00000000000E+00 0. -1.
         23    2    1    2    0    0 -0.84488037009E+03 -0.68281722399E+03  0.11787929136E+03  0.10964276828E+04  0.90531404393E+02 0.  0.
         13    1    3    3    0    0 -0.67072754081E+03 -0.52223397670E+03  0.57713481000E+02  0.85201796126E+03  0.00000000000E+00 0.  1.
        -13    1    3    3    0    0 -0.17415282928E+03 -0.16058324729E+03  0.60165810363E+02  0.24440972156E+03  0.00000000000E+00 0. -1.
         22    1    1    2    0    0  0.84488037009E+03  0.68281722399E+03 -0.12290415940E+04  0.16403065082E+04  0.00000000000E+00 0. -1.
<mgrwt>
<rscale>  0 0.25010063E+04</rscale>
<asrwt>0</asrwt>
<pdfrwt beam="1">  1        2 0.29599204E+00 0.25010063E+04</pdfrwt>
<pdfrwt beam="2">  1       -2 0.12504399E+00 0.25010063E+04</pdfrwt>
<totfact> 0.31464299E+00</totfact>
</mgrwt>
</event>
<event>
 6    1  0.9562506E-007  0.1738993E+04  0.7818608E-02  0.8739432E-01
          2   -1    0    0  501    0  0.00000000000E+00  0.00000000000E+00  0.12998449076E+04  0.12998449076E+04  0.00000000000E+00 0. -1.
         -2   -1    0    0    0  501 -0.00000000000E+00 -0.00000000000E+00 -0.58162663836E+03  0.58162663836E+03  0.00000000000E+00 0.  1.
         23    2    1    2    0    0  0.43688631036E+03 -0.31675672585E+03 -0.37430817252E+03  0.66294025892E+03  0.90436205871E+02 0.  0.
         11    1    3    3    0    0  0.18625419713E+03 -0.82529318183E+02 -0.15172422910E+03  0.25401172414E+03  0.00000000000E+00 0.  1.
        -11    1    3    3    0    0  0.25063211323E+03 -0.23422740766E+03 -0.22258394342E+03  0.40892853477E+03  0.00000000000E+00 0. -1.
         22    1    1    2    0    0 -0.43688631036E+03  0.31675672585E+03  0.10925264418E+04  0.12185312870E+04  0.00000000000E+00 0. -1.
<mgrwt>
<rscale>  0 0.17389933E+04</rscale>
<asrwt>0</asrwt>
<pdfrwt beam="1">  1        2 0.19997614E+00 0.17389933E+04</pdfrwt>
<pdfrwt beam="2">  1       -2 0.89481021E-01 0.17389933E+04</pdfrwt>
<totfact> 0.16801563E+01</totfact>
</mgrwt>
</event>
<event>
 6    1  0.9562506E-007  0.1703902E+04  0.7818608E-02  0.8759142E-01
         -2   -1    0    0    0  501 -0.00000000000E+00  0.00000000000E+00  0.34212511559E+03  0.34212511559E+03  0.00000000000E+00 0.  1.
          2   -1    0    0  501    0  0.00000000000E+00 -0.00000000000E+00 -0.21215048308E+04  0.21215048308E+04  0.00000000000E+00 0. -1.
         23    2    1    2    0    0  0.47872539749E+03  0.66265256048E+03 -0.55979294430E+03  0.99540710434E+03  0.95816182240E+02 0.  0.
         11    1    3    3    0    0  0.36559511075E+03  0.56826512153E+03 -0.46326671177E+03  0.81926862480E+03  0.00000000000E+00 0. -1.
        -11    1    3    3    0    0  0.11313028674E+03  0.94387438955E+02 -0.96526232525E+02  0.17613847954E+03  0.00000000000E+00 0.  1.
         22    1    1    2    0    0 -0.47872539749E+03 -0.66265256048E+03 -0.12195867709E+04  0.14682228421E+04  0.00000000000E+00 0.  1.
<mgrwt>
<rscale>  0 0.17039015E+04</rscale>
<asrwt>0</asrwt>
<pdfrwt beam="1">  1        2 0.32638536E+00 0.17039015E+04</pdfrwt>
<pdfrwt beam="2">  1       -2 0.52634632E-01 0.17039015E+04</pdfrwt>
<totfact> 0.18520890E+01</totfact>
</mgrwt>
</event>
<event>
 6    1  0.9562506E-007  0.1976545E+04  0.7818608E-02  0.8617666E-01
          2   -1    0    0  501    0  0.00000000000E+00  0.00000000000E+00  0.24513462389E+04  0.24513462389E+04  0.00000000000E+00 0. -1.
         -2   -1    0    0    0  501 -0.00000000000E+00 -0.00000000000E+00 -0.39842710345E+03  0.39842710345E+03  0.00000000000E+00 0.  1.
         23    2    1    2    0    0  0.88188410494E+03  0.16064987498E+03  0.16214809474E+04  0.18549533250E+04  0.90130007149E+02 0.  0.
         13    1    3    3    0    0  0.48285664065E+03  0.13256854865E+03  0.91968202004E+03  0.10471580461E+04  0.00000000000E+00 0.  1.
        -13    1    3    3    0    0  0.39902746429E+03  0.28081326329E+02  0.70179892735E+03  0.80779527888E+03  0.00000000000E+00 0. -1.
         22    1    1    2    0    0 -0.88188410494E+03 -0.16064987498E+03  0.43143818805E+03  0.99482001738E+03  0.00000000000E+00 0.  1.
<mgrwt>
<rscale>  0 0.19765453E+04</rscale>
<asrwt>0</asrwt>
<pdfrwt beam="1">  1        2 0.37713018E+00 0.19765453E+04</pdfrwt>
<pdfrwt beam="2">  1       -2 0.61296479E-01 0.19765453E+04</pdfrwt>
<totfact> 0.85611593E+00</totfact>
</mgrwt>
</event>
<event>
 6    1  0.9562506E-007  0.3445703E+04  0.7818608E-02  0.8126779E-01
         -2   -1    0    0    0  501 -0.00000000000E+00  0.00000000000E+00  0.87777835212E+03  0.87777835212E+03  0.00000000000E+00 0.  1.
          2   -1    0    0  501    0  0.00000000000E+00 -0.00000000000E+00 -0.33815120353E+04  0.33815120353E+04  0.00000000000E+00 0. -1.
         23    2    1    2    0    0 -0.93223616758E+03  0.55199012850E+03 -0.29067031471E+04  0.31033744030E+04  0.90841212578E+02 0.  0.
         13    1    3    3    0    0 -0.51193043215E+03  0.27390801896E+03 -0.16631402542E+04  0.17615714222E+04  0.00000000000E+00 0. -1.
        -13    1    3    3    0    0 -0.42030573543E+03  0.27808210953E+03 -0.12435628929E+04  0.13418029808E+04  0.00000000000E+00 0.  1.
         22    1    1    2    0    0  0.93223616758E+03 -0.55199012850E+03  0.40296946392E+03  0.11559159844E+04  0.00000000000E+00 0.  1.
<mgrwt>
<rscale>  0 0.34457034E+04</rscale>
<asrwt>0</asrwt>
<pdfrwt beam="1">  1        2 0.52023262E+00 0.34457034E+04</pdfrwt>
<pdfrwt beam="2">  1       -2 0.13504282E+00 0.34457034E+04</pdfrwt>
<totfact> 0.31889848E-01</totfact>
</mgrwt>
</event>
<event>
 6    1  0.9562506E-007  0.2223806E+04  0.7818608E-02  0.8508584E-01
         -1   -1    0    0    0  501 -0.00000000000E+00  0.00000000000E+00  0.43237601605E+03  0.43237601605E+03  0.00000000000E+00 0.  1.
          1   -1    0    0  501    0  0.00000000000E+00 -0.00000000000E+00 -0.28593827080E+04  0.28593827080E+04  0.00000000000E+00 0. -1.
         23    2    1    2    0    0 -0.84070822374E+03  0.38781195523E+03 -0.30814621050E+03  0.97945291168E+03  0.84767264126E+02 0.  0.
         13    1    3    3    0    0 -0.45889938295E+03  0.18157193007E+03 -0.12992647638E+03  0.51033116574E+03  0.00000000000E+00 0.  1.
        -13    1    3    3    0    0 -0.38180884079E+03  0.20624002516E+03 -0.17821973411E+03  0.46912174594E+03  0.00000000000E+00 0. -1.
         22    1    1    2    0    0  0.84070822374E+03 -0.38781195523E+03 -0.21188604814E+04  0.23123058124E+04  0.00000000000E+00 0. -1.
<mgrwt>
<rscale>  0 0.22238062E+04</rscale>
<asrwt>0</asrwt>
<pdfrwt beam="1">  1        1 0.43990502E+00 0.22238062E+04</pdfrwt>
<pdfrwt beam="2">  1       -1 0.66519389E-01 0.22238062E+04</pdfrwt>
<totfact> 0.15752397E+00</totfact>
</mgrwt>
</event>
<event>
 6    1  0.9562506E-007  0.1500592E+04  0.7818608E-02  0.8884060E-01
         -2   -1    0    0    0  501 -0.00000000000E+00  0.00000000000E+00  0.42891798807E+03  0.42891798807E+03  0.00000000000E+00 0.  1.
          2   -1    0    0  501    0  0.00000000000E+00 -0.00000000000E+00 -0.13124743353E+04  0.13124743353E+04  0.00000000000E+00 0. -1.
         23    2    1    2    0    0 -0.43749623931E+03 -0.39971255459E+03 -0.97229714734E+03  0.11421861690E+04  0.89746400007E+02 0.  0.
         11    1    3    3    0    0 -0.22507372792E+03 -0.24496796118E+03 -0.47802207656E+03  0.58238525968E+03  0.00000000000E+00 0.  1.
        -11    1    3    3    0    0 -0.21242251139E+03 -0.15474459341E+03 -0.49427507078E+03  0.55980090937E+03  0.00000000000E+00 0. -1.
         22    1    1    2    0    0  0.43749623931E+03  0.39971255459E+03  0.88740800158E+02  0.59920615428E+03  0.00000000000E+00 0.  1.
<mgrwt>
<rscale>  0 0.15005917E+04</rscale>
<asrwt>0</asrwt>
<pdfrwt beam="1">  1        2 0.20191912E+00 0.15005917E+04</pdfrwt>
<pdfrwt beam="2">  1       -2 0.65987384E-01 0.15005917E+04</pdfrwt>
<totfact> 0.33192669E+01</totfact>
</mgrwt>
</event>
<event>
 6    1  0.9562506E-007  0.2033170E+04  0.7818608E-02  0.8591268E-01
         -1   -1    0    0    0  501 -0.00000000000E+00  0.00000000000E+00  0.90952156760E+03  0.90952156760E+03  0.00000000000E+00 0.  1.
          1   -1    0    0  501    0  0.00000000000E+00 -0.00000000000E+00 -0.11362516314E+04  0.11362516314E+04  0.00000000000E+00 0. -1.
         23    2    1    2    0    0 -0.46158239248E+03  0.20517801486E+01  0.79541058257E+03  0.92424120400E+03  0.92093938258E+02 0.  0.
         11    1    3    3    0    0 -0.35675061089E+02 -0.10699433733E+02  0.12007717235E+03  0.12572078263E+03  0.00000000000E+00 0.  1.
        -11    1    3    3    0    0 -0.42590733139E+03  0.12751213882E+02  0.67533341021E+03  0.79852042137E+03  0.00000000000E+00 0. -1.
         22    1    1    2    0    0  0.46158239248E+03 -0.20517801486E+01 -0.10221406464E+04  0.11215319950E+04  0.00000000000E+00 0. -1.
<mgrwt>
<rscale>  0 0.20331703E+04</rscale>
<asrwt>0</asrwt>
<pdfrwt beam="1">  1        1 0.17480794E+00 0.20331703E+04</pdfrwt>
<pdfrwt beam="2">  1       -1 0.13992640E+00 0.20331703E+04</pdfrwt>
<totfact> 0.46244405E+00</totfact>
</mgrwt>
</event>
<event>
 6    1  0.9562506E-007  0.1297873E+04  0.7818608E-02  0.9031254E-01
         -1   -1    0    0    0  501 -0.00000000000E+00  0.00000000000E+00  0.87753788072E+03  0.87753788072E+03  0.00000000000E+00 0.  1.
          1   -1    0    0  501    0  0.00000000000E+00 -0.00000000000E+00 -0.47988650281E+03  0.47988650281E+03  0.00000000000E+00 0. -1.
         23    2    1    2    0    0 -0.53295133388E+03 -0.36351592683E+03  0.16992554942E+03  0.67328988922E+03  0.90904506128E+02 0.  0.
         13    1    3    3    0    0 -0.27711916451E+03 -0.16707885750E+03  0.12817422117E+03  0.34805029368E+03  0.00000000000E+00 0.  1.
        -13    1    3    3    0    0 -0.25583216937E+03 -0.19643706933E+03  0.41751328248E+02  0.32523959553E+03  0.00000000000E+00 0. -1.
         22    1    1    2    0    0  0.53295133388E+03  0.36351592683E+03  0.22772582850E+03  0.68413449431E+03  0.00000000000E+00 0.  1.
<mgrwt>
<rscale>  0 0.12978730E+04</rscale>
<asrwt>0</asrwt>
<pdfrwt beam="1">  1        1 0.73828693E-01 0.12978730E+04</pdfrwt>
<pdfrwt beam="2">  1       -1 0.13500583E+00 0.12978730E+04</pdfrwt>
<totfact> 0.21233455E+01</totfact>
</mgrwt>
</event>
<event>
 6    1  0.9562506E-007  0.1108164E+04  0.7818608E-02  0.9197271E-01
          1   -1    0    0  501    0  0.00000000000E+00  0.00000000000E+00  0.23564490897E+03  0.23564490897E+03  0.00000000000E+00 0. -1.
         -1   -1    0    0    0  501 -0.00000000000E+00 -0.00000000000E+00 -0.13028364331E+04  0.13028364331E+04  0.00000000000E+00 0.  1.
         23    2    1    2    0    0 -0.29423708633E+03 -0.17830968323E+02  0.10869700228E+03  0.32620776199E+03  0.87767073972E+02 0.  0.
         13    1    3    3    0    0 -0.80426863254E+02 -0.44230130463E+02  0.25452796125E+02  0.95250352252E+02  0.00000000000E+00 0.  1.
        -13    1    3    3    0    0 -0.21381022308E+03  0.26399162140E+02  0.83244206156E+02  0.23095740974E+03  0.00000000000E+00 0. -1.
         22    1    1    2    0    0  0.29423708633E+03  0.17830968323E+02 -0.11758885264E+04  0.12122735800E+04  0.00000000000E+00 0.  1.
<mgrwt>
<rscale>  0 0.11081638E+04</rscale>
<asrwt>0</asrwt>
<pdfrwt beam="1">  1        1 0.36253063E-01 0.11081638E+04</pdfrwt>
<pdfrwt beam="2">  1       -1 0.20043637E+00 0.11081638E+04</pdfrwt>
<totfact> 0.17895483E+01</totfact>
</mgrwt>
</event>
<event>
 6    1  0.9562506E-007  0.1399385E+04  0.7818608E-02  0.8954264E-01
          2   -1    0    0  501    0  0.00000000000E+00  0.00000000000E+00  0.32353093165E+04  0.32353093165E+04  0.00000000000E+00 0. -1.
         -2   -1    0    0    0  501 -0.00000000000E+00 -0.00000000000E+00 -0.15132074646E+03  0.15132074646E+03  0.00000000000E+00 0.  1.
         23    2    1    2    0    0  0.43748185320E+03 -0.26656763292E+03  0.26914380048E+04  0.27412273816E+04  0.89667995830E+02 0.  0.
         13    1    3    3    0    0  0.73309419342E+02 -0.83498974500E+02  0.66239739779E+03  0.67165218849E+03  0.00000000000E+00 0. -1.
        -13    1    3    3    0    0  0.36417243386E+03 -0.18306865842E+03  0.20290406070E+04  0.20695751931E+04  0.00000000000E+00 0.  1.
         22    1    1    2    0    0 -0.43748185320E+03  0.26656763292E+03  0.39255056532E+03  0.64540268138E+03  0.00000000000E+00 0.  1.
<mgrwt>
<rscale>  0 0.13993848E+04</rscale>
<asrwt>0</asrwt>
<pdfrwt beam="1">  1        2 0.49773984E+00 0.13993848E+04</pdfrwt>
<pdfrwt beam="2">  1       -2 0.23280117E-01 0.13993848E+04</pdfrwt>
<totfact> 0.19774969E+01</totfact>
</mgrwt>
</event>
<event>
 6    1  0.9562506E-007  0.3758954E+04  0.7818608E-02  0.8055021E-01
          2   -1    0    0  501    0  0.00000000000E+00  0.00000000000E+00  0.11927802417E+04  0.11927802417E+04  0.00000000000E+00 0. -1.
         -2   -1    0    0    0  501 -0.00000000000E+00 -0.00000000000E+00 -0.29615133816E+04  0.29615133816E+04  0.00000000000E+00 0.  1.
         23    2    1    2    0    0 -0.14127000122E+04 -0.19201979059E+03 -0.22364666457E+04  0.26538378402E+04  0.92083117395E+02 0.  0.
         11    1    3    3    0    0 -0.11292674649E+04 -0.18903243552E+03 -0.17733354807E+04  0.21108521967E+04  0.00000000000E+00 0. -1.
        -11    1    3    3    0    0 -0.28343254731E+03 -0.29873550720E+01 -0.46313116494E+03  0.54298564355E+03  0.00000000000E+00 0.  1.
         22    1    1    2    0    0  0.14127000122E+04  0.19201979059E+03  0.46773350582E+03  0.15004557831E+04  0.00000000000E+00 0. -1.
<mgrwt>
<rscale>  0 0.37589545E+04</rscale>
<asrwt>0</asrwt>
<pdfrwt beam="1">  1        2 0.18350465E+00 0.37589545E+04</pdfrwt>
<pdfrwt beam="2">  1       -2 0.45561744E+00 0.37589545E+04</pdfrwt>
<totfact> 0.49017835E-02</totfact>
</mgrwt>
</event>
<event>
 6    1  0.9562506E-007  0.2358028E+04  0.7818608E-02  0.8455386E-01
          2   -1    0    0  501    0  0.00000000000E+00  0.00000000000E+00  0.22327195306E+04  0.22327195306E+04  0.00000000000E+00 0. -1.
         -2   -1    0    0    0  501 -0.00000000000E+00 -0.00000000000E+00 -0.62259248331E+03  0.62259248331E+03  0.00000000000E+00 0.  1.
         23    2    1    2    0    0  0.62531969866E+03 -0.10898849683E+02 -0.40145506273E+03  0.74874938826E+03  0.91191932650E+02 0.  0.
         13    1    3    3    0    0  0.26334982083E+03 -0.46103263528E+02 -0.14942689002E+03  0.30627934063E+03  0.00000000000E+00 0. -1.
        -13    1    3    3    0    0  0.36196987783E+03  0.35204413845E+02 -0.25202817271E+03  0.44247004763E+03  0.00000000000E+00 0.  1.
         22    1    1    2    0    0 -0.62531969866E+03  0.10898849683E+02  0.20115821100E+04  0.21065626256E+04  0.00000000000E+00 0. -1.
<mgrwt>
<rscale>  0 0.23580283E+04</rscale>
<asrwt>0</asrwt>
<pdfrwt beam="1">  1        2 0.34349531E+00 0.23580283E+04</pdfrwt>
<pdfrwt beam="2">  1       -2 0.95783460E-01 0.23580283E+04</pdfrwt>
<totfact> 0.40822560E+00</totfact>
</mgrwt>
</event>
<event>
 6    1  0.9562506E-007  0.1860750E+04  0.7818608E-02  0.8674644E-01
         -1   -1    0    0    0  501 -0.00000000000E+00  0.00000000000E+00  0.27779384103E+03  0.27779384103E+03  0.00000000000E+00 0.  1.
          1   -1    0    0  501    0  0.00000000000E+00 -0.00000000000E+00 -0.31159720735E+04  0.31159720735E+04  0.00000000000E+00 0. -1.
         23    2    1    2    0    0 -0.87204049384E+03  0.22487431432E+03 -0.10138360428E+04  0.13592518435E+04  0.93161002053E+02 0.  0.
         13    1    3    3    0    0 -0.87098333407E+03  0.22245076418E+03 -0.10154264056E+04  0.13561663231E+04  0.00000000000E+00 0. -1.
        -13    1    3    3    0    0 -0.10571597729E+01  0.24235501410E+01  0.15903628524E+01  0.30855203894E+01  0.00000000000E+00 0.  1.
         22    1    1    2    0    0  0.87204049384E+03 -0.22487431432E+03 -0.18243421897E+04  0.20345140710E+04  0.00000000000E+00 0. -1.
<mgrwt>
<rscale>  0 0.18607502E+04</rscale>
<asrwt>0</asrwt>
<pdfrwt beam="1">  1        1 0.47938026E+00 0.18607502E+04</pdfrwt>
<pdfrwt beam="2">  1       -1 0.42737519E-01 0.18607502E+04</pdfrwt>
<totfact> 0.24935999E+00</totfact>
</mgrwt>
</event>
<event>
 6    1  0.9562506E-007  0.4114814E+03  0.7818608E-02  0.1039875E+00
          1   -1    0    0  501    0  0.00000000000E+00  0.00000000000E+00  0.35877466642E+03  0.35877466642E+03  0.00000000000E+00 0. -1.
         -1   -1    0    0    0  501 -0.00000000000E+00 -0.00000000000E+00 -0.11798280361E+03  0.11798280361E+03  0.00000000000E+00 0.  1.
         23    2    1    2    0    0  0.11271133189E+03  0.13655986256E+03  0.22255858217E+03  0.29875496184E+03  0.91486416067E+02 0.  0.
         11    1    3    3    0    0  0.12809290063E+02  0.24867614443E+02 -0.28103848073E+01  0.28113598538E+02  0.00000000000E+00 0. -1.
        -11    1    3    3    0    0  0.99902041830E+02  0.11169224811E+03  0.22536896698E+03  0.27064136330E+03  0.00000000000E+00 0.  1.
         22    1    1    2    0    0 -0.11271133189E+03 -0.13655986256E+03  0.18233280639E+02  0.17800250819E+03  0.00000000000E+00 0. -1.
<mgrwt>
<rscale>  0 0.41148143E+03</rscale>
<asrwt>0</asrwt>
<pdfrwt beam="1">  1        1 0.55196102E-01 0.41148143E+03</pdfrwt>
<pdfrwt beam="2">  1       -1 0.18151201E-01 0.41148143E+03</pdfrwt>
<totfact> 0.16551107E+03</totfact>
</mgrwt>
</event>
<event>
 6    1  0.9562506E-007  0.4450329E+03  0.7818608E-02  0.1029214E+00
         -1   -1    0    0    0  501 -0.00000000000E+00  0.00000000000E+00  0.10145266292E+03  0.10145266292E+03  0.00000000000E+00 0.  1.
          1   -1    0    0  501    0  0.00000000000E+00 -0.00000000000E+00 -0.48804604355E+03  0.48804604355E+03  0.00000000000E+00 0. -1.
         23    2    1    2    0    0 -0.11516324209E+03  0.83504370940E+02 -0.41177800283E+03  0.44503480963E+03  0.90880723370E+02 0.  0.
         13    1    3    3    0    0 -0.95483173251E+01  0.42132097332E+02 -0.20186104873E+03  0.20643199118E+03  0.00000000000E+00 0.  1.
        -13    1    3    3    0    0 -0.10561492476E+03  0.41372273609E+02 -0.20991695410E+03  0.23860281845E+03  0.00000000000E+00 0. -1.
         22    1    1    2    0    0  0.11516324209E+03 -0.83504370940E+02  0.25184622201E+02  0.14446389684E+03  0.00000000000E+00 0.  1.
<mgrwt>
<rscale>  0 0.44503290E+03</rscale>
<asrwt>0</asrwt>
<pdfrwt beam="1">  1        1 0.75084007E-01 0.44503290E+03</pdfrwt>
<pdfrwt beam="2">  1       -1 0.15608102E-01 0.44503290E+03</pdfrwt>
<totfact> 0.14114951E+03</totfact>
</mgrwt>
</event>
<event>
 6    1  0.9562506E-007  0.3125009E+04  0.7818608E-02  0.8208908E-01
         -2   -1    0    0    0  501 -0.00000000000E+00  0.00000000000E+00  0.71627098930E+03  0.71627098930E+03  0.00000000000E+00 0.  1.
          2   -1    0    0  501    0  0.00000000000E+00 -0.00000000000E+00 -0.34085159268E+04  0.34085159268E+04  0.00000000000E+00 0. -1.
         23    2    1    2    0    0 -0.39791100090E+02 -0.12198343160E+04 -0.62335614049E+02  0.12254762843E+04  0.91254065837E+02 0.  0.
         13    1    3    3    0    0  0.21672444316E+02 -0.97763216753E+02 -0.50398033546E+01  0.10026335826E+03  0.00000000000E+00 0. -1.
        -13    1    3    3    0    0 -0.61463544406E+02 -0.11220710992E+04 -0.57295810695E+02  0.11252129260E+04  0.00000000000E+00 0.  1.
         22    1    1    2    0    0  0.39791100090E+02  0.12198343160E+04 -0.26299093235E+04  0.28993106318E+04  0.00000000000E+00 0. -1.
<mgrwt>
<rscale>  0 0.31250095E+04</rscale>
<asrwt>0</asrwt>
<pdfrwt beam="1">  1        2 0.52438707E+00 0.31250095E+04</pdfrwt>
<pdfrwt beam="2">  1       -2 0.11019554E+00 0.31250095E+04</pdfrwt>
<totfact> 0.52086131E-01</totfact>
</mgrwt>
</event>
<event>
 6    1  0.9562506E-007  0.1720706E+04  0.7818608E-02  0.8749642E-01
         -1   -1    0    0    0  501 -0.00000000000E+00  0.00000000000E+00  0.30882362866E+03  0.30882362866E+03  0.00000000000E+00 0.  1.
          1   -1    0    0  501    0  0.00000000000E+00 -0.00000000000E+00 -0.23968610736E+04  0.23968610736E+04  0.00000000000E+00 0. -1.
         23    2    1    2    0    0  0.81178313054E+03 -0.58197860497E+02 -0.61933390650E+03  0.10265572724E+04  0.88693312751E+02 0.  0.
         13    1    3    3    0    0  0.43620712464E+03  0.12326532416E+02 -0.34042454117E+03  0.55345954434E+03  0.00000000000E+00 0. -1.
        -13    1    3    3    0    0  0.37557600590E+03 -0.70524392912E+02 -0.27890936533E+03  0.47309772804E+03  0.00000000000E+00 0.  1.
         22    1    1    2    0    0 -0.81178313054E+03  0.58197860497E+02 -0.14687035385E+04  0.16791274299E+04  0.00000000000E+00 0.  1.
<mgrwt>
<rscale>  0 0.17207061E+04</rscale>
<asrwt>0</asrwt>
<pdfrwt beam="1">  1        1 0.36874786E+00 0.17207061E+04</pdfrwt>
<pdfrwt beam="2">  1       -1 0.47511327E-01 0.17207061E+04</pdfrwt>
<totfact> 0.67147883E+00</totfact>
</mgrwt>
</event>
<event>
 6    1  0.9562506E-007  0.1176571E+04  0.7818608E-02  0.9133615E-01
         -1   -1    0    0    0  501 -0.00000000000E+00  0.00000000000E+00  0.32718896016E+03  0.32718896016E+03  0.00000000000E+00 0.  1.
          1   -1    0    0  501    0  0.00000000000E+00 -0.00000000000E+00 -0.10577368966E+04  0.10577368966E+04  0.00000000000E+00 0. -1.
         23    2    1    2    0    0  0.35376858302E+03  0.32866361555E+03  0.20553932978E+02  0.49199472797E+03  0.92001987323E+02 0.  0.
         11    1    3    3    0    0  0.89820670078E+02  0.96188395488E+02  0.45834674357E+02  0.13935844995E+03  0.00000000000E+00 0.  1.
        -11    1    3    3    0    0  0.26394791295E+03  0.23247522006E+03 -0.25280741379E+02  0.35263627802E+03  0.00000000000E+00 0. -1.
         22    1    1    2    0    0 -0.35376858302E+03 -0.32866361555E+03 -0.75110186946E+03  0.89293112883E+03  0.00000000000E+00 0. -1.
<mgrwt>
<rscale>  0 0.11765710E+04</rscale>
<asrwt>0</asrwt>
<pdfrwt beam="1">  1        1 0.16272875E+00 0.11765710E+04</pdfrwt>
<pdfrwt beam="2">  1       -1 0.50336763E-01 0.11765710E+04</pdfrwt>
<totfact> 0.53614547E+01</totfact>
</mgrwt>
</event>
<event>
 6    1  0.9562506E-007  0.2501859E+04  0.7818608E-02  0.8402323E-01
          2   -1    0    0  501    0  0.00000000000E+00  0.00000000000E+00  0.19541043144E+04  0.19541043144E+04  0.00000000000E+00 0. -1.
         -2   -1    0    0    0  501 -0.00000000000E+00 -0.00000000000E+00 -0.80078886936E+03  0.80078886936E+03  0.00000000000E+00 0.  1.
         23    2    1    2    0    0 -0.37361966555E+03  0.10261647644E+04 -0.90741855643E+02  0.10995127606E+04  0.89935800293E+02 0.  0.
         11    1    3    3    0    0 -0.13596586045E+03  0.28557040720E+03  0.13424724226E+01  0.31628938476E+03  0.00000000000E+00 0. -1.
        -11    1    3    3    0    0 -0.23765380510E+03  0.74059435716E+03 -0.92084328065E+02  0.78322337581E+03  0.00000000000E+00 0.  1.
         22    1    1    2    0    0  0.37361966555E+03 -0.10261647644E+04  0.12440573007E+04  0.16553804232E+04  0.00000000000E+00 0. -1.
<mgrwt>
<rscale>  0 0.25018593E+04</rscale>
<asrwt>0</asrwt>
<pdfrwt beam="1">  1        2 0.30063143E+00 0.25018593E+04</pdfrwt>
<pdfrwt beam="2">  1       -2 0.12319829E+00 0.25018593E+04</pdfrwt>
<totfact> 0.31421046E+00</totfact>
</mgrwt>
</event>
<event>
 6    1  0.9562506E-007  0.5424185E+04  0.7818608E-02  0.7766208E-01
          1   -1    0    0  501    0  0.00000000000E+00  0.00000000000E+00  0.26784238093E+04  0.26784238093E+04  0.00000000000E+00 0. -1.
         -1   -1    0    0    0  501 -0.00000000000E+00 -0.00000000000E+00 -0.27461848205E+04  0.27461848205E+04  0.00000000000E+00 0.  1.
         23    2    1    2    0    0  0.17177901135E+04  0.19493786228E+04 -0.80879437787E+03  0.27227554991E+04  0.91483732162E+02 0.  0.
         11    1    3    3    0    0  0.16760584741E+04  0.19199520274E+04 -0.79739098866E+03  0.26704344562E+04  0.00000000000E+00 0. -1.
        -11    1    3    3    0    0  0.41731639466E+02  0.29426595353E+02 -0.11403389212E+02  0.52321042919E+02  0.00000000000E+00 0.  1.
         22    1    1    2    0    0 -0.17177901135E+04 -0.19493786228E+04  0.74103336668E+03  0.27018531306E+04  0.00000000000E+00 0. -1.
<mgrwt>
<rscale>  0 0.54241854E+04</rscale>
<asrwt>0</asrwt>
<pdfrwt beam="1">  1        1 0.41206520E+00 0.54241854E+04</pdfrwt>
<pdfrwt beam="2">  1       -1 0.42248997E+00 0.54241854E+04</pdfrwt>
<totfact> 0.35624607E-03</totfact>
</mgrwt>
</event>
<event>
 6    1  0.9562506E-007  0.1859308E+04  0.7818608E-02  0.8675381E-01
          1   -1    0    0  501    0  0.00000000000E+00  0.00000000000E+00  0.38404378743E+03  0.38404378743E+03  0.00000000000E+00 0. -1.
         -1   -1    0    0    0  501 -0.00000000000E+00 -0.00000000000E+00 -0.22504118174E+04  0.22504118174E+04  0.00000000000E+00 0.  1.
         23    2    1    2    0    0  0.75653058670E+02 -0.77509501897E+02 -0.22404979355E+04  0.22449632500E+04  0.91092736777E+02 0.  0.
         13    1    3    3    0    0  0.59475200419E+02 -0.22948121845E+02 -0.17523550984E+04  0.17535142733E+04  0.00000000000E+00 0.  1.
        -13    1    3    3    0    0  0.16177858251E+02 -0.54561380052E+02 -0.48814283710E+03  0.49144897671E+03  0.00000000000E+00 0. -1.
         22    1    1    2    0    0 -0.75653058670E+02  0.77509501897E+02  0.37412990559E+03  0.38949235477E+03  0.00000000000E+00 0. -1.
<mgrwt>
<rscale>  0 0.18593081E+04</rscale>
<asrwt>0</asrwt>
<pdfrwt beam="1">  1        1 0.59083660E-01 0.18593081E+04</pdfrwt>
<pdfrwt beam="2">  1       -1 0.34621720E+00 0.18593081E+04</pdfrwt>
<totfact> 0.98090168E-01</totfact>
</mgrwt>
</event>
<event>
 6    1  0.9562506E-007  0.2580399E+04  0.7818608E-02  0.8374890E-01
          2   -1    0    0  501    0  0.00000000000E+00  0.00000000000E+00  0.21419023801E+04  0.21419023801E+04  0.00000000000E+00 0. -1.
         -2   -1    0    0    0  501 -0.00000000000E+00 -0.00000000000E+00 -0.77716664565E+03  0.77716664565E+03  0.00000000000E+00 0.  1.
         23    2    1    2    0    0 -0.20552595040E+03 -0.12076309518E+04  0.11356464317E+04  0.16728365672E+04  0.89866180122E+02 0.  0.
         13    1    3    3    0    0 -0.84221091142E+02 -0.34425673310E+03  0.28548184124E+03  0.45508875196E+03  0.00000000000E+00 0. -1.
        -13    1    3    3    0    0 -0.12130485925E+03 -0.86337421875E+03  0.85016459050E+03  0.12177478152E+04  0.00000000000E+00 0.  1.
         22    1    1    2    0    0  0.20552595040E+03  0.12076309518E+04  0.22908930267E+03  0.12462324586E+04  0.00000000000E+00 0.  1.
<mgrwt>
<rscale>  0 0.25803993E+04</rscale>
<asrwt>0</asrwt>
<pdfrwt beam="1">  1        2 0.32952344E+00 0.25803993E+04</pdfrwt>
<pdfrwt beam="2">  1       -2 0.11956410E+00 0.25803993E+04</pdfrwt>
<totfact> 0.26426466E+00</totfact>
</mgrwt>
</event>
<event>
 6    1  0.9562506E-007  0.2757316E+04  0.7818608E-02  0.8316644E-01
         -2   -1    0    0    0  501 -0.00000000000E+00  0.00000000000E+00  0.10847457766E+04  0.10847457766E+04  0.00000000000E+00 0.  1.
          2   -1    0    0  501    0  0.00000000000E+00 -0.00000000000E+00 -0.17522058910E+04  0.17522058910E+04  0.00000000000E+00 0. -1.
         23    2    1    2    0    0 -0.11095737783E+04 -0.78884943703E+03 -0.54674776207E+03  0.14702004555E+04  0.95492723200E+02 0.  0.
         11    1    3    3    0    0 -0.73309444970E+03 -0.46747146886E+03 -0.33350351349E+03  0.93122588016E+03  0.00000000000E+00 0. -1.
        -11    1    3    3    0    0 -0.37647932861E+03 -0.32137796818E+03 -0.21324424858E+03  0.53897457533E+03  0.00000000000E+00 0.  1.
         22    1    1    2    0    0  0.11095737783E+04  0.78884943703E+03 -0.12071235226E+03  0.13667512121E+04  0.00000000000E+00 0. -1.
<mgrwt>
<rscale>  0 0.27573160E+04</rscale>
<asrwt>0</asrwt>
<pdfrwt beam="1">  1        2 0.26957014E+00 0.27573160E+04</pdfrwt>
<pdfrwt beam="2">  1       -2 0.16688397E+00 0.27573160E+04</pdfrwt>
<totfact> 0.17973903E+00</totfact>
</mgrwt>
</event>
<event>
 6    1  0.9562506E-007  0.2131393E+04  0.7818608E-02  0.8547539E-01
          1   -1    0    0  501    0  0.00000000000E+00  0.00000000000E+00  0.14348111602E+04  0.14348111602E+04  0.00000000000E+00 0. -1.
         -1   -1    0    0    0  501 -0.00000000000E+00 -0.00000000000E+00 -0.79153869062E+03  0.79153869062E+03  0.00000000000E+00 0.  1.
         23    2    1    2    0    0 -0.10441779608E+04  0.76405318130E+02  0.51839752810E+03  0.11719594404E+04  0.92776863987E+02 0.  0.
         13    1    3    3    0    0 -0.24658773054E+03  0.57665411074E+02  0.12809991272E+03  0.28379639908E+03  0.00000000000E+00 0.  1.
        -13    1    3    3    0    0 -0.79759023023E+03  0.18739907056E+02  0.39029761538E+03  0.88816304136E+03  0.00000000000E+00 0. -1.
         22    1    1    2    0    0  0.10441779608E+04 -0.76405318130E+02  0.12487494144E+03  0.10543904103E+04  0.00000000000E+00 0. -1.
<mgrwt>
<rscale>  0 0.21313925E+04</rscale>
<asrwt>0</asrwt>
<pdfrwt beam="1">  1        1 0.22074018E+00 0.21313925E+04</pdfrwt>
<pdfrwt beam="2">  1       -1 0.12177518E+00 0.21313925E+04</pdfrwt>
<totfact> 0.39776037E+00</totfact>
</mgrwt>
</event>
<event>
 6    1  0.9562506E-007  0.3783780E+04  0.7818608E-02  0.8049645E-01
         -2   -1    0    0    0  501 -0.00000000000E+00  0.00000000000E+00  0.13570022188E+04  0.13570022188E+04  0.00000000000E+00 0.  1.
          2   -1    0    0  501    0  0.00000000000E+00 -0.00000000000E+00 -0.26376132427E+04  0.26376132427E+04  0.00000000000E+00 0. -1.
         23    2    1    2    0    0  0.46379186772E+03  0.13513944368E+04  0.66677361168E+03  0.15793149132E+04  0.90987501534E+02 0.  0.
         13    1    3    3    0    0  0.42267444153E+03  0.11362650984E+04  0.57633885959E+03  0.13423555932E+04  0.00000000000E+00 0. -1.
        -13    1    3    3    0    0  0.41117426190E+02  0.21512933834E+03  0.90434752087E+02  0.23695932000E+03  0.00000000000E+00 0.  1.
         22    1    1    2    0    0 -0.46379186772E+03 -0.13513944368E+04 -0.19473846356E+04  0.24153005484E+04  0.00000000000E+00 0. -1.
<mgrwt>
<rscale>  0 0.37837796E+04</rscale>
<asrwt>0</asrwt>
<pdfrwt beam="1">  1        2 0.40578665E+00 0.37837796E+04</pdfrwt>
<pdfrwt beam="2">  1       -2 0.20876957E+00 0.37837796E+04</pdfrwt>
<totfact> 0.27072287E-01</totfact>
</mgrwt>
</event>
<event>
 6    1  0.9562506E-007  0.8607430E+03  0.7818608E-02  0.9476030E-01
         -1   -1    0    0    0  501 -0.00000000000E+00  0.00000000000E+00  0.15989578073E+03  0.15989578073E+03  0.00000000000E+00 0.  1.
          1   -1    0    0  501    0  0.00000000000E+00 -0.00000000000E+00 -0.11583773108E+04  0.11583773108E+04  0.00000000000E+00 0. -1.
         23    2    1    2    0    0  0.27181910898E+03 -0.32223624176E+03 -0.41890478749E+03  0.60159253225E+03  0.93330222157E+02 0.  0.
         11    1    3    3    0    0  0.10651706152E+03 -0.11789224485E+03 -0.97549205817E+02  0.18644117932E+03  0.00000000000E+00 0.  1.
        -11    1    3    3    0    0  0.16530204746E+03 -0.20434399691E+03 -0.32135558167E+03  0.41515135292E+03  0.00000000000E+00 0. -1.
         22    1    1    2    0    0 -0.27181910898E+03  0.32223624176E+03 -0.57957674254E+03  0.71668055925E+03  0.00000000000E+00 0. -1.
<mgrwt>
<rscale>  0 0.86074304E+03</rscale>
<asrwt>0</asrwt>
<pdfrwt beam="1">  1        1 0.17821189E+00 0.86074304E+03</pdfrwt>
<pdfrwt beam="2">  1       -1 0.24599352E-01 0.86074304E+03</pdfrwt>
<totfact> 0.16649172E+02</totfact>
</mgrwt>
</event>
<event>
 6    1  0.9562506E-007  0.4299046E+04  0.7818608E-02  0.7946795E-01
         -2   -1    0    0    0  501 -0.00000000000E+00  0.00000000000E+00  0.14424177761E+04  0.14424177761E+04  0.00000000000E+00 0.  1.
          2   -1    0    0  501    0  0.00000000000E+00 -0.00000000000E+00 -0.32032668749E+04  0.32032668749E+04  0.00000000000E+00 0. -1.
         23    2    1    2    0    0 -0.40453812053E+03 -0.48028438504E+03  0.13395277089E+04  0.14823540437E+04  0.93353341146E+02 0.  0.
         13    1    3    3    0    0 -0.28140233396E+03 -0.36773790822E+03  0.10617791764E+04  0.11583580889E+04  0.00000000000E+00 0.  1.
        -13    1    3    3    0    0 -0.12313578656E+03 -0.11254647682E+03  0.27774853258E+03  0.32399595480E+03  0.00000000000E+00 0. -1.
         22    1    1    2    0    0  0.40453812053E+03  0.48028438504E+03 -0.31003768078E+04  0.31633306074E+04  0.00000000000E+00 0. -1.
<mgrwt>
<rscale>  0 0.42990460E+04</rscale>
<asrwt>0</asrwt>
<pdfrwt beam="1">  1        2 0.49281028E+00 0.42990460E+04</pdfrwt>
<pdfrwt beam="2">  1       -2 0.22191043E+00 0.42990460E+04</pdfrwt>
<totfact> 0.95423161E-02</totfact>
</mgrwt>
</event>
<event>
 6    1  0.9562506E-007  0.1400353E+04  0.7818608E-02  0.8953563E-01
          2   -1    0    0  501    0  0.00000000000E+00  0.00000000000E+00  0.15196773791E+04  0.15196773791E+04  0.00000000000E+00 0. -1.
         -2   -1    0    0    0  501 -0.00000000000E+00 -0.00000000000E+00 -0.32259952712E+03  0.32259952712E+03  0.00000000000E+00 0.  1.
         23    2    1    2    0    0  0.52033322527E+03  0.29290882717E+03  0.10744994424E+04  0.12327133633E+04  0.92146285790E+02 0.  0.
         11    1    3    3    0    0  0.16505225251E+03  0.14021893835E+03  0.41855039663E+03  0.47126216827E+03  0.00000000000E+00 0. -1.
        -11    1    3    3    0    0  0.35528097276E+03  0.15268988882E+03  0.65594904576E+03  0.76145119501E+03  0.00000000000E+00 0.  1.
         22    1    1    2    0    0 -0.52033322527E+03 -0.29290882717E+03  0.12257840956E+03  0.60956354291E+03  0.00000000000E+00 0.  1.
<mgrwt>
<rscale>  0 0.14003531E+04</rscale>
<asrwt>0</asrwt>
<pdfrwt beam="1">  1        2 0.23379652E+00 0.14003531E+04</pdfrwt>
<pdfrwt beam="2">  1       -2 0.49630697E-01 0.14003531E+04</pdfrwt>
<totfact> 0.46256740E+01</totfact>
</mgrwt>
</event>
<event>
 6    1  0.9562506E-007  0.4671132E+04  0.7818608E-02  0.7881343E-01
         -1   -1    0    0    0  501 -0.00000000000E+00  0.00000000000E+00  0.14040271539E+04  0.14040271539E+04  0.00000000000E+00 0.  1.
          1   -1    0    0  501    0  0.00000000000E+00 -0.00000000000E+00 -0.38851586550E+04  0.38851586550E+04  0.00000000000E+00 0. -1.
         23    2    1    2    0    0 -0.22151083143E+04  0.12825407091E+03 -0.41952871114E+03  0.22604302865E+04  0.10191560174E+03 0.  0.
         13    1    3    3    0    0 -0.32640644221E+03 -0.13203486479E+02 -0.44920106418E+02  0.32974734803E+03  0.00000000000E+00 0. -1.
        -13    1    3    3    0    0 -0.18887018721E+04  0.14145755739E+03 -0.37460860473E+03  0.19306829385E+04  0.00000000000E+00 0.  1.
         22    1    1    2    0    0  0.22151083143E+04 -0.12825407091E+03 -0.20616027899E+04  0.30287555224E+04  0.00000000000E+00 0. -1.
<mgrwt>
<rscale>  0 0.46711319E+04</rscale>
<asrwt>0</asrwt>
<pdfrwt beam="1">  1        1 0.59771672E+00 0.46711319E+04</pdfrwt>
<pdfrwt beam="2">  1       -1 0.21600418E+00 0.46711319E+04</pdfrwt>
<totfact> 0.10442786E-02</totfact>
</mgrwt>
</event>
<event>
 6    1  0.9562506E-007  0.1803993E+04  0.7818608E-02  0.8704179E-01
          1   -1    0    0  501    0  0.00000000000E+00  0.00000000000E+00  0.18940493475E+04  0.18940493475E+04  0.00000000000E+00 0. -1.
         -1   -1    0    0    0  501 -0.00000000000E+00 -0.00000000000E+00 -0.42955468526E+03  0.42955468526E+03  0.00000000000E+00 0.  1.
         23    2    1    2    0    0  0.64913219977E+03 -0.48409923976E+03  0.12392192542E+04  0.14830841364E+04  0.90274629933E+02 0.  0.
         13    1    3    3    0    0  0.33858858794E+03 -0.25492222725E+03  0.56623777038E+03  0.70728550560E+03  0.00000000000E+00 0. -1.
        -13    1    3    3    0    0  0.31054361183E+03 -0.22917701252E+03  0.67298148385E+03  0.77579863078E+03  0.00000000000E+00 0.  1.
         22    1    1    2    0    0 -0.64913219977E+03  0.48409923976E+03  0.22527540798E+03  0.84051989635E+03  0.00000000000E+00 0.  1.
<mgrwt>
<rscale>  0 0.18039931E+04</rscale>
<asrwt>0</asrwt>
<pdfrwt beam="1">  1        1 0.29139220E+00 0.18039931E+04</pdfrwt>
<pdfrwt beam="2">  1       -1 0.66085337E-01 0.18039931E+04</pdfrwt>
<totfact> 0.76980195E+00</totfact>
</mgrwt>
</event>
<event>
 6    1  0.9562506E-007  0.1012408E+04  0.7818608E-02  0.9295039E-01
         -2   -1    0    0    0  501 -0.00000000000E+00  0.00000000000E+00  0.73812858346E+03  0.73812858346E+03  0.00000000000E+00 0.  1.
          2   -1    0    0  501    0  0.00000000000E+00 -0.00000000000E+00 -0.34715187047E+03  0.34715187047E+03  0.00000000000E+00 0. -1.
         23    2    1    2    0    0 -0.37867773354E+03  0.24391362607E+03 -0.38603776885E+02  0.46284163754E+03  0.99204067409E+02 0.  0.
         11    1    3    3    0    0 -0.10794432363E+03  0.86069958283E+02 -0.55975038603E+02  0.14897388922E+03  0.00000000000E+00 0.  1.
        -11    1    3    3    0    0 -0.27073340992E+03  0.15784366779E+03  0.17371261718E+02  0.31386774833E+03  0.00000000000E+00 0. -1.
         22    1    1    2    0    0  0.37867773354E+03 -0.24391362607E+03  0.42958048987E+03  0.62243881638E+03  0.00000000000E+00 0.  1.
<mgrwt>
<rscale>  0 0.10124085E+04</rscale>
<asrwt>0</asrwt>
<pdfrwt beam="1">  1        2 0.53407980E-01 0.10124085E+04</pdfrwt>
<pdfrwt beam="2">  1       -2 0.11355824E+00 0.10124085E+04</pdfrwt>
<totfact> 0.56571510E+01</totfact>
</mgrwt>
</event>
<event>
 6    1  0.9562506E-007  0.1955787E+04  0.7818608E-02  0.8627575E-01
         -1   -1    0    0    0  501 -0.00000000000E+00  0.00000000000E+00  0.50575414312E+03  0.50575414312E+03  0.00000000000E+00 0.  1.
          1   -1    0    0  501    0  0.00000000000E+00 -0.00000000000E+00 -0.18907912574E+04  0.18907912574E+04  0.00000000000E+00 0. -1.
         23    2    1    2    0    0 -0.46200933038E+03  0.85217971148E+03 -0.56242168272E+03  0.11251843069E+04  0.10029303748E+03 0.  0.
         11    1    3    3    0    0 -0.10095819370E+03  0.13021464446E+03 -0.65691461650E+02  0.17738032202E+03  0.00000000000E+00 0. -1.
        -11    1    3    3    0    0 -0.36105113668E+03  0.72196506702E+03 -0.49673022107E+03  0.94780398492E+03  0.00000000000E+00 0.  1.
         22    1    1    2    0    0  0.46200933038E+03 -0.85217971148E+03 -0.82261543154E+03  0.12713610936E+04  0.00000000000E+00 0.  1.
<mgrwt>
<rscale>  0 0.19557868E+04</rscale>
<asrwt>0</asrwt>
<pdfrwt beam="1">  1        1 0.29089097E+00 0.19557868E+04</pdfrwt>
<pdfrwt beam="2">  1       -1 0.77808328E-01 0.19557868E+04</pdfrwt>
<totfact> 0.54458308E+00</totfact>
</mgrwt>
</event>
<event>
 6    1  0.9562506E-007  0.6994716E+03  0.7818608E-02  0.9718136E-01
         -2   -1    0    0    0  501 -0.00000000000E+00  0.00000000000E+00  0.19935932157E+03  0.19935932157E+03  0.00000000000E+00 0.  1.
          2   -1    0    0  501    0  0.00000000000E+00 -0.00000000000E+00 -0.61354101535E+03  0.61354101535E+03  0.00000000000E+00 0. -1.
         23    2    1    2    0    0 -0.11565169322E+03  0.14755640889E+03 -0.54566273685E+03  0.58391240571E+03  0.89764509749E+02 0.  0.
         11    1    3    3    0    0 -0.71943280356E+02  0.71628495604E+02 -0.41028967508E+03  0.42266309804E+03  0.00000000000E+00 0. -1.
        -11    1    3    3    0    0 -0.43708412861E+02  0.75927913286E+02 -0.13537306177E+03  0.16124930767E+03  0.00000000000E+00 0.  1.
         22    1    1    2    0    0  0.11565169322E+03 -0.14755640889E+03  0.13148104307E+03  0.22898793120E+03  0.00000000000E+00 0.  1.
<mgrwt>
<rscale>  0 0.69947157E+03</rscale>
<asrwt>0</asrwt>
<pdfrwt beam="1">  1        2 0.94390925E-01 0.69947157E+03</pdfrwt>
<pdfrwt beam="2">  1       -2 0.30670665E-01 0.69947157E+03</pdfrwt>
<totfact> 0.47782199E+02</totfact>
</mgrwt>
</event>
<event>
 6    1  0.9562506E-007  0.1350545E+04  0.7818608E-02  0.8990416E-01
         -1   -1    0    0    0  501 -0.00000000000E+00  0.00000000000E+00  0.25806993023E+03  0.25806993023E+03  0.00000000000E+00 0.  1.
          1   -1    0    0  501    0  0.00000000000E+00 -0.00000000000E+00 -0.17669346854E+04  0.17669346854E+04  0.00000000000E+00 0. -1.
         23    2    1    2    0    0 -0.33556197826E+03  0.18080893845E+03  0.73321228153E+02  0.39755071481E+03  0.85888618962E+02 0.  0.
         13    1    3    3    0    0 -0.19356643403E+03  0.14729908107E+03  0.28373145770E+02  0.24488776831E+03  0.00000000000E+00 0.  1.
        -13    1    3    3    0    0 -0.14199554423E+03  0.33509857382E+02  0.44948082383E+02  0.15266294650E+03  0.00000000000E+00 0. -1.
         22    1    1    2    0    0  0.33556197826E+03 -0.18080893845E+03 -0.15821859833E+04  0.16274539008E+04  0.00000000000E+00 0. -1.
<mgrwt>
<rscale>  0 0.13505446E+04</rscale>
<asrwt>0</asrwt>
<pdfrwt beam="1">  1        1 0.27183611E+00 0.13505446E+04</pdfrwt>
<pdfrwt beam="2">  1       -1 0.39703065E-01 0.13505446E+04</pdfrwt>
<totfact> 0.25939469E+01</totfact>
</mgrwt>
</event>
<event>
 6    1  0.9562506E-007  0.7212143E+03  0.7818608E-02  0.9681625E-01
         -3   -1    0    0    0  501 -0.00000000000E+00  0.00000000000E+00  0.13845492217E+04  0.13845492217E+04  0.00000000000E+00 0.  1.
          3   -1    0    0  501    0  0.00000000000E+00 -0.00000000000E+00 -0.93920480541E+02  0.93920480541E+02  0.00000000000E+00 0. -1.
         23    2    1    2    0    0 -0.34273609564E+03  0.79658935432E+01  0.84075470645E+03  0.91285664208E+03  0.94378418420E+02 0.  0.
         11    1    3    3    0    0 -0.19298653771E+03 -0.13537676253E+02  0.57974821229E+03  0.61117514844E+03  0.00000000000E+00 0. -1.
        -11    1    3    3    0    0 -0.14974955792E+03  0.21503569796E+02  0.26100649415E+03  0.30168149364E+03  0.00000000000E+00 0.  1.
         22    1    1    2    0    0  0.34273609564E+03 -0.79658935432E+01  0.44987403468E+03  0.56561306014E+03  0.00000000000E+00 0. -1.
<mgrwt>
<rscale>  0 0.72121433E+03</rscale>
<asrwt>0</asrwt>
<pdfrwt beam="1">  1        3 0.14449306E-01 0.72121433E+03</pdfrwt>
<pdfrwt beam="2">  1       -3 0.21300756E+00 0.72121433E+03</pdfrwt>
<totfact> 0.13232443E+01</totfact>
</mgrwt>
</event>
<event>
 6    1  0.9562506E-007  0.7496592E+03  0.7818608E-02  0.9635885E-01
         -1   -1    0    0    0  501 -0.00000000000E+00  0.00000000000E+00  0.10511832681E+04  0.10511832681E+04  0.00000000000E+00 0.  1.
          1   -1    0    0  501    0  0.00000000000E+00 -0.00000000000E+00 -0.13365625032E+03  0.13365625032E+03  0.00000000000E+00 0. -1.
         23    2    1    2    0    0  0.15548358215E+03  0.30079636285E+03  0.23184165012E+03  0.42010556492E+03  0.89914062976E+02 0.  0.
         13    1    3    3    0    0  0.36707743994E+02  0.11768206258E+03  0.13032038819E+03  0.17938765258E+03  0.00000000000E+00 0.  1.
        -13    1    3    3    0    0  0.11877583816E+03  0.18311430027E+03  0.10152126193E+03  0.24071791233E+03  0.00000000000E+00 0. -1.
         22    1    1    2    0    0 -0.15548358215E+03 -0.30079636285E+03  0.68568536770E+03  0.76473395354E+03  0.00000000000E+00 0.  1.
<mgrwt>
<rscale>  0 0.74965916E+03</rscale>
<asrwt>0</asrwt>
<pdfrwt beam="1">  1        1 0.20562501E-01 0.74965916E+03</pdfrwt>
<pdfrwt beam="2">  1       -1 0.16172050E+00 0.74965916E+03</pdfrwt>
<totfact> 0.73014490E+01</totfact>
</mgrwt>
</event>
<event>
 6    1  0.9562506E-007  0.1591985E+04  0.7818608E-02  0.8825487E-01
         -2   -1    0    0    0  501 -0.00000000000E+00  0.00000000000E+00  0.32756024917E+03  0.32756024917E+03  0.00000000000E+00 0.  1.
          2   -1    0    0  501    0  0.00000000000E+00 -0.00000000000E+00 -0.19343136827E+04  0.19343136827E+04  0.00000000000E+00 0. -1.
         23    2    1    2    0    0  0.40682665492E+03 -0.21657290308E+03  0.11144596239E+03  0.48293578971E+03  0.91624368752E+02 0.  0.
         13    1    3    3    0    0  0.28615975050E+03 -0.16595481255E+03  0.38256348991E+02  0.33300443068E+03  0.00000000000E+00 0. -1.
        -13    1    3    3    0    0  0.12066690442E+03 -0.50618090529E+02  0.73189613401E+02  0.14993135903E+03  0.00000000000E+00 0.  1.
         22    1    1    2    0    0 -0.40682665492E+03  0.21657290308E+03 -0.17181993959E+04  0.17789381422E+04  0.00000000000E+00 0. -1.
<mgrwt>
<rscale>  0 0.15919853E+04</rscale>
<asrwt>0</asrwt>
<pdfrwt beam="1">  1        2 0.29758671E+00 0.15919853E+04</pdfrwt>
<pdfrwt beam="2">  1       -2 0.50393886E-01 0.15919853E+04</pdfrwt>
<totfact> 0.25971389E+01</totfact>
</mgrwt>
</event>
<event>
 6    1  0.9562506E-007  0.5393100E+03  0.7818608E-02  0.1003999E+00
         -2   -1    0    0    0  501 -0.00000000000E+00  0.00000000000E+00  0.19779670010E+02  0.19779670010E+02  0.00000000000E+00 0.  1.
          2   -1    0    0  501    0  0.00000000000E+00 -0.00000000000E+00 -0.36761903138E+04  0.36761903138E+04  0.00000000000E+00 0. -1.
         23    2    1    2    0    0  0.13935419506E+03 -0.26140024177E+02 -0.33901348649E+04  0.33942985019E+04  0.90249795390E+02 0.  0.
         11    1    3    3    0    0  0.23144319948E+02  0.33268681267E+01 -0.15918655842E+04  0.15920373004E+04  0.00000000000E+00 0. -1.
        -11    1    3    3    0    0  0.11620987511E+03 -0.29466892303E+02 -0.17982692807E+04  0.18022612015E+04  0.00000000000E+00 0.  1.
         22    1    1    2    0    0 -0.13935419506E+03  0.26140024177E+02 -0.26627577886E+03  0.30167148183E+03  0.00000000000E+00 0.  1.
<mgrwt>
<rscale>  0 0.53931005E+03</rscale>
<asrwt>0</asrwt>
<pdfrwt beam="1">  1        2 0.56556788E+00 0.53931005E+03</pdfrwt>
<pdfrwt beam="2">  1       -2 0.30430254E-02 0.53931005E+03</pdfrwt>
<totfact> 0.30106855E+02</totfact>
</mgrwt>
</event>
<event>
 6    1  0.9562506E-007  0.2401175E+04  0.7818608E-02  0.8439064E-01
         -1   -1    0    0    0  501 -0.00000000000E+00  0.00000000000E+00  0.18536102867E+04  0.18536102867E+04  0.00000000000E+00 0.  1.
          1   -1    0    0  501    0  0.00000000000E+00 -0.00000000000E+00 -0.77762325084E+03  0.77762325084E+03  0.00000000000E+00 0. -1.
         23    2    1    2    0    0 -0.42287574325E+03 -0.15033607668E+03 -0.67902927542E+03  0.81974048399E+03  0.97308139638E+02 0.  0.
         11    1    3    3    0    0 -0.22937804455E+03 -0.68585250187E+02 -0.44463951216E+03  0.50499754419E+03  0.00000000000E+00 0.  1.
        -11    1    3    3    0    0 -0.19349769870E+03 -0.81750826496E+02 -0.23438976326E+03  0.31474293980E+03  0.00000000000E+00 0. -1.
         22    1    1    2    0    0  0.42287574325E+03  0.15033607668E+03  0.17550163112E+04  0.18114930535E+04  0.00000000000E+00 0.  1.
<mgrwt>
<rscale>  0 0.24011751E+04</rscale>
<asrwt>0</asrwt>
<pdfrwt beam="1">  1        1 0.11963435E+00 0.24011751E+04</pdfrwt>
<pdfrwt beam="2">  1       -1 0.28517081E+00 0.24011751E+04</pdfrwt>
<totfact> 0.85424870E-01</totfact>
</mgrwt>
</event>
<event>
 6    1  0.9562506E-007  0.3074104E+04  0.7818608E-02  0.8222881E-01
         -2   -1    0    0    0  501 -0.00000000000E+00  0.00000000000E+00  0.12049668299E+04  0.12049668299E+04  0.00000000000E+00 0.  1.
          2   -1    0    0  501    0  0.00000000000E+00 -0.00000000000E+00 -0.19606583803E+04  0.19606583803E+04  0.00000000000E+00 0. -1.
         23    2    1    2    0    0 -0.84091927620E+03  0.11611620146E+04 -0.94484059053E+03  0.17195201612E+04  0.92646586175E+02 0.  0.
         11    1    3    3    0    0 -0.32831888390E+03  0.50086429954E+03 -0.35124778858E+03  0.69428621264E+03  0.00000000000E+00 0. -1.
        -11    1    3    3    0    0 -0.51260039230E+03  0.66029771509E+03 -0.59359280195E+03  0.10252339486E+04  0.00000000000E+00 0.  1.
         22    1    1    2    0    0  0.84091927620E+03 -0.11611620146E+04  0.18914904011E+03  0.14461050490E+04  0.00000000000E+00 0.  1.
<mgrwt>
<rscale>  0 0.30741037E+04</rscale>
<asrwt>0</asrwt>
<pdfrwt beam="1">  1        2 0.30163975E+00 0.30741037E+04</pdfrwt>
<pdfrwt beam="2">  1       -2 0.18537951E+00 0.30741037E+04</pdfrwt>
<totfact> 0.99583173E-01</totfact>
</mgrwt>
</event>
<event>
 6    1  0.9562506E-007  0.1851601E+04  0.7818608E-02  0.8679330E-01
         -2   -1    0    0    0  501 -0.00000000000E+00  0.00000000000E+00  0.34790442776E+03  0.34790442776E+03  0.00000000000E+00 0.  1.
          2   -1    0    0  501    0  0.00000000000E+00 -0.00000000000E+00 -0.24636256587E+04  0.24636256587E+04  0.00000000000E+00 0. -1.
         23    2    1    2    0    0  0.54107260063E+03  0.66289819041E+03 -0.15880640013E+04  0.18062362379E+04  0.91370152907E+02 0.  0.
         11    1    3    3    0    0  0.11083685783E+03  0.19929447143E+03 -0.41473210847E+03  0.47329252814E+03  0.00000000000E+00 0. -1.
        -11    1    3    3    0    0  0.43023574279E+03  0.46360371898E+03 -0.11733318928E+04  0.13329437098E+04  0.00000000000E+00 0.  1.
         22    1    1    2    0    0 -0.54107260063E+03 -0.66289819041E+03 -0.52765722967E+03  0.10052938486E+04  0.00000000000E+00 0. -1.
<mgrwt>
<rscale>  0 0.18516007E+04</rscale>
<asrwt>0</asrwt>
<pdfrwt beam="1">  1        2 0.37901933E+00 0.18516007E+04</pdfrwt>
<pdfrwt beam="2">  1       -2 0.53523759E-01 0.18516007E+04</pdfrwt>
<totfact> 0.11311180E+01</totfact>
</mgrwt>
</event>
<event>
 6    1  0.9562506E-007  0.1045481E+04  0.7818608E-02  0.9260022E-01
          2   -1    0    0  501    0  0.00000000000E+00  0.00000000000E+00  0.75787047522E+03  0.75787047522E+03  0.00000000000E+00 0. -1.
         -2   -1    0    0    0  501 -0.00000000000E+00 -0.00000000000E+00 -0.36055957170E+03  0.36055957170E+03  0.00000000000E+00 0.  1.
         23    2    1    2    0    0 -0.26212542736E+03  0.35000220174E+03  0.49864862820E+03  0.66956412558E+03  0.91947718658E+02 0.  0.
         11    1    3    3    0    0 -0.12187360563E+03  0.21979667710E+03  0.23740082816E+03  0.34572085304E+03  0.00000000000E+00 0. -1.
        -11    1    3    3    0    0 -0.14025182173E+03  0.13020552464E+03  0.26124780004E+03  0.32384327254E+03  0.00000000000E+00 0.  1.
         22    1    1    2    0    0  0.26212542736E+03 -0.35000220174E+03 -0.10133772469E+03  0.44886592134E+03  0.00000000000E+00 0.  1.
<mgrwt>
<rscale>  0 0.10454807E+04</rscale>
<asrwt>0</asrwt>
<pdfrwt beam="1">  1        2 0.11659546E+00 0.10454807E+04</pdfrwt>
<pdfrwt beam="2">  1       -2 0.55470704E-01 0.10454807E+04</pdfrwt>
<totfact> 0.11256375E+02</totfact>
</mgrwt>
</event>
<event>
 6    1  0.9562506E-007  0.6348979E+03  0.7818608E-02  0.9835537E-01
          1   -1    0    0  501    0  0.00000000000E+00  0.00000000000E+00  0.36193146976E+03  0.36193146976E+03  0.00000000000E+00 0. -1.
         -1   -1    0    0    0  501 -0.00000000000E+00 -0.00000000000E+00 -0.27843343959E+03  0.27843343959E+03  0.00000000000E+00 0.  1.
         23    2    1    2    0    0 -0.99803043195E+02 -0.24770549790E+03  0.20345290363E+03  0.34760590813E+03  0.90100622927E+02 0.  0.
         13    1    3    3    0    0 -0.77501762455E+02 -0.78702759238E+02  0.93854384105E+02  0.14494582750E+03  0.00000000000E+00 0. -1.
        -13    1    3    3    0    0 -0.22301280740E+02 -0.16900273866E+03  0.10959851953E+03  0.20266008063E+03  0.00000000000E+00 0.  1.
         22    1    1    2    0    0  0.99803043195E+02  0.24770549790E+03 -0.11995487346E+03  0.29275900121E+03  0.00000000000E+00 0.  1.
<mgrwt>
<rscale>  0 0.63489786E+03</rscale>
<asrwt>0</asrwt>
<pdfrwt beam="1">  1        1 0.55681765E-01 0.63489786E+03</pdfrwt>
<pdfrwt beam="2">  1       -1 0.42835914E-01 0.63489786E+03</pdfrwt>
<totfact> 0.37256707E+02</totfact>
</mgrwt>
</event>
<event>
 6    1  0.9562506E-007  0.5989203E+04  0.7818608E-02  0.7691742E-01
          1   -1    0    0  501    0  0.00000000000E+00  0.00000000000E+00  0.38015136523E+04  0.38015136523E+04  0.00000000000E+00 0. -1.
         -1   -1    0    0    0  501 -0.00000000000E+00 -0.00000000000E+00 -0.23589652675E+04  0.23589652675E+04  0.00000000000E+00 0.  1.
         23    2    1    2    0    0 -0.72608212438E+03  0.11876647436E+04  0.34478550160E+04  0.37193731294E+04  0.91046526995E+02 0.  0.
         11    1    3    3    0    0 -0.66670719719E+03  0.10555052547E+04  0.30301697535E+04  0.32772730379E+04  0.00000000000E+00 0.  1.
        -11    1    3    3    0    0 -0.59374927195E+02  0.13215948886E+03  0.41768526247E+03  0.44210009157E+03  0.00000000000E+00 0. -1.
         22    1    1    2    0    0  0.72608212438E+03 -0.11876647436E+04 -0.20053066313E+04  0.24411057904E+04  0.00000000000E+00 0.  1.
<mgrwt>
<rscale>  0 0.59892032E+04</rscale>
<asrwt>0</asrwt>
<pdfrwt beam="1">  1        1 0.58484825E+00 0.59892032E+04</pdfrwt>
<pdfrwt beam="2">  1       -1 0.36291773E+00 0.59892032E+04</pdfrwt>
<totfact> 0.12082036E-03</totfact>
</mgrwt>
</event>
<event>
 6    1  0.9562506E-007  0.9678843E+03  0.7818608E-02  0.9344487E-01
          1   -1    0    0  501    0  0.00000000000E+00  0.00000000000E+00  0.92388042915E+03  0.92388042915E+03  0.00000000000E+00 0. -1.
         -1   -1    0    0    0  501 -0.00000000000E+00 -0.00000000000E+00 -0.25349599927E+03  0.25349599927E+03  0.00000000000E+00 0.  1.
         23    2    1    2    0    0 -0.86269659007E+02 -0.46352222855E+03  0.44638128512E+03  0.65538723381E+03  0.89335682197E+02 0.  0.
         13    1    3    3    0    0 -0.63120700300E+02 -0.12230069854E+03  0.13748486409E+03  0.19453475659E+03  0.00000000000E+00 0.  1.
        -13    1    3    3    0    0 -0.23148958707E+02 -0.34122153001E+03  0.30889642103E+03  0.46085247722E+03  0.00000000000E+00 0. -1.
         22    1    1    2    0    0  0.86269659007E+02  0.46352222855E+03  0.22400314477E+03  0.52198919461E+03  0.00000000000E+00 0.  1.
<mgrwt>
<rscale>  0 0.96788428E+03</rscale>
<asrwt>0</asrwt>
<pdfrwt beam="1">  1        1 0.14213545E+00 0.96788428E+03</pdfrwt>
<pdfrwt beam="2">  1       -1 0.38999385E-01 0.96788428E+03</pdfrwt>
<totfact> 0.11136661E+02</totfact>
</mgrwt>
</event>
<event>
 6    1  0.9562506E-007  0.1498242E+04  0.7818608E-02  0.8885623E-01
          2   -1    0    0  501    0  0.00000000000E+00  0.00000000000E+00  0.22282623172E+03  0.22282623172E+03  0.00000000000E+00 0. -1.
         -2   -1    0    0    0  501 -0.00000000000E+00 -0.00000000000E+00 -0.25184736002E+04  0.25184736002E+04  0.00000000000E+00 0.  1.
         23    2    1    2    0    0  0.53096078089E+03  0.25702162098E+02 -0.21106254484E+04  0.21784383367E+04  0.90960711794E+02 0.  0.
         13    1    3    3    0    0  0.39584849400E+03  0.55793594557E+02 -0.15041236831E+04  0.15563409040E+04  0.00000000000E+00 0. -1.
        -13    1    3    3    0    0  0.13511228689E+03 -0.30091432459E+02 -0.60650176534E+03  0.62209743267E+03  0.00000000000E+00 0.  1.
         22    1    1    2    0    0 -0.53096078089E+03 -0.25702162098E+02 -0.18502192010E+03  0.56286149531E+03  0.00000000000E+00 0. -1.
<mgrwt>
<rscale>  0 0.14982416E+04</rscale>
<asrwt>0</asrwt>
<pdfrwt beam="1">  1        2 0.34280962E-01 0.14982416E+04</pdfrwt>
<pdfrwt beam="2">  1       -2 0.38745744E+00 0.14982416E+04</pdfrwt>
<totfact> 0.13381116E+00</totfact>
</mgrwt>
</event>
<event>
 6    1  0.9562506E-007  0.2095254E+04  0.7818608E-02  0.8563337E-01
          1   -1    0    0  501    0  0.00000000000E+00  0.00000000000E+00  0.99052030837E+03  0.99052030837E+03  0.00000000000E+00 0. -1.
         -1   -1    0    0    0  501 -0.00000000000E+00 -0.00000000000E+00 -0.11080258788E+04  0.11080258788E+04  0.00000000000E+00 0.  1.
         23    2    1    2    0    0  0.54574703401E+03 -0.55546859190E+03 -0.75818332953E+03  0.10901548084E+04  0.84913858090E+02 0.  0.
         11    1    3    3    0    0  0.15741451992E+03 -0.20595143678E+03 -0.28519508055E+03  0.38539792340E+03  0.00000000000E+00 0. -1.
        -11    1    3    3    0    0  0.38833251408E+03 -0.34951715513E+03 -0.47298824898E+03  0.70475688496E+03  0.00000000000E+00 0.  1.
         22    1    1    2    0    0 -0.54574703401E+03  0.55546859190E+03  0.64067775914E+03  0.10083913788E+04  0.00000000000E+00 0. -1.
<mgrwt>
<rscale>  0 0.20952538E+04</rscale>
<asrwt>0</asrwt>
<pdfrwt beam="1">  1        1 0.15238774E+00 0.20952538E+04</pdfrwt>
<pdfrwt beam="2">  1       -1 0.17046552E+00 0.20952538E+04</pdfrwt>
<totfact> 0.34574344E+00</totfact>
</mgrwt>
</event>
<event>
 6    1  0.9562506E-007  0.2077717E+04  0.7818608E-02  0.8571123E-01
          2   -1    0    0  501    0  0.00000000000E+00  0.00000000000E+00  0.27474229625E+04  0.27474229625E+04  0.00000000000E+00 0. -1.
         -2   -1    0    0    0  501 -0.00000000000E+00 -0.00000000000E+00 -0.39281427090E+03  0.39281427090E+03  0.00000000000E+00 0.  1.
         23    2    1    2    0    0 -0.49888403325E+03 -0.80962378881E+03  0.55522064542E+03  0.11050042495E+04  0.91588581434E+02 0.  0.
         13    1    3    3    0    0 -0.67603250684E+02 -0.13488054704E+03  0.53827160483E+02  0.16018840370E+03  0.00000000000E+00 0.  1.
        -13    1    3    3    0    0 -0.43128078256E+03 -0.67474324177E+03  0.50139348493E+03  0.94481584579E+03  0.00000000000E+00 0. -1.
         22    1    1    2    0    0  0.49888403325E+03  0.80962378881E+03  0.17993880461E+04  0.20352329839E+04  0.00000000000E+00 0.  1.
<mgrwt>
<rscale>  0 0.20777170E+04</rscale>
<asrwt>0</asrwt>
<pdfrwt beam="1">  1        2 0.42268044E+00 0.20777170E+04</pdfrwt>
<pdfrwt beam="2">  1       -2 0.60432966E-01 0.20777170E+04</pdfrwt>
<totfact> 0.58638141E+00</totfact>
</mgrwt>
</event>
<event>
 6    1  0.9562506E-007  0.2673876E+04  0.7818608E-02  0.8343531E-01
          1   -1    0    0  501    0  0.00000000000E+00  0.00000000000E+00  0.14458830230E+04  0.14458830230E+04  0.00000000000E+00 0. -1.
         -1   -1    0    0    0  501 -0.00000000000E+00 -0.00000000000E+00 -0.12362021199E+04  0.12362021199E+04  0.00000000000E+00 0.  1.
         23    2    1    2    0    0 -0.60636078604E+03 -0.97167960733E+02  0.12943931147E+04  0.14356038565E+04  0.91596299165E+02 0.  0.
         13    1    3    3    0    0 -0.12959890509E+02 -0.11877242393E+02  0.72039657332E+02  0.74153488639E+02  0.00000000000E+00 0. -1.
        -13    1    3    3    0    0 -0.59340089553E+03 -0.85290718339E+02  0.12223534574E+04  0.13614503679E+04  0.00000000000E+00 0.  1.
         22    1    1    2    0    0  0.60636078604E+03  0.97167960733E+02 -0.10847122116E+04  0.12464812864E+04  0.00000000000E+00 0.  1.
<mgrwt>
<rscale>  0 0.26738763E+04</rscale>
<asrwt>0</asrwt>
<pdfrwt beam="1">  1        1 0.22244354E+00 0.26738763E+04</pdfrwt>
<pdfrwt beam="2">  1       -1 0.19018494E+00 0.26738763E+04</pdfrwt>
<totfact> 0.10999939E+00</totfact>
</mgrwt>
</event>
<event>
 6    1  0.9562506E-007  0.1285177E+04  0.7818608E-02  0.9041403E-01
          1   -1    0    0  501    0  0.00000000000E+00  0.00000000000E+00  0.11160528555E+04  0.11160528555E+04  0.00000000000E+00 0. -1.
         -1   -1    0    0    0  501 -0.00000000000E+00 -0.00000000000E+00 -0.36998238925E+03  0.36998238925E+03  0.00000000000E+00 0.  1.
         23    2    1    2    0    0 -0.42053515368E+03 -0.16683019789E+03 -0.14483935194E+03  0.48683434675E+03  0.10652282805E+03 0.  0.
         11    1    3    3    0    0 -0.31014282677E+03 -0.14800837903E+03 -0.14948113202E+03  0.37475280131E+03  0.00000000000E+00 0. -1.
        -11    1    3    3    0    0 -0.11039232691E+03 -0.18821818867E+02  0.46417800794E+01  0.11208154544E+03  0.00000000000E+00 0.  1.
         22    1    1    2    0    0  0.42053515368E+03  0.16683019789E+03  0.89090981817E+03  0.99920089798E+03  0.00000000000E+00 0. -1.
<mgrwt>
<rscale>  0 0.12851769E+04</rscale>
<asrwt>0</asrwt>
<pdfrwt beam="1">  1        1 0.17170044E+00 0.12851769E+04</pdfrwt>
<pdfrwt beam="2">  1       -1 0.56920368E-01 0.12851769E+04</pdfrwt>
<totfact> 0.37896392E+01</totfact>
</mgrwt>
</event>
<event>
 6    1  0.9562506E-007  0.2938849E+04  0.7818608E-02  0.8261412E-01
          1   -1    0    0  501    0  0.00000000000E+00  0.00000000000E+00  0.10877122196E+04  0.10877122196E+04  0.00000000000E+00 0. -1.
         -1   -1    0    0    0  501 -0.00000000000E+00 -0.00000000000E+00 -0.19850918081E+04  0.19850918081E+04  0.00000000000E+00 0.  1.
         23    2    1    2    0    0 -0.44880004805E+03  0.77646428415E+03  0.76601341510E+03  0.11830435794E+04  0.92180750926E+02 0.  0.
         13    1    3    3    0    0 -0.20117686034E+03  0.43545240899E+03  0.38906465327E+03  0.61762628996E+03  0.00000000000E+00 0. -1.
        -13    1    3    3    0    0 -0.24762318771E+03  0.34101187516E+03  0.37694876184E+03  0.56541728939E+03  0.00000000000E+00 0.  1.
         22    1    1    2    0    0  0.44880004805E+03 -0.77646428415E+03 -0.16633930036E+04  0.18897604484E+04  0.00000000000E+00 0.  1.
<mgrwt>
<rscale>  0 0.29388492E+04</rscale>
<asrwt>0</asrwt>
<pdfrwt beam="1">  1        1 0.16734034E+00 0.29388492E+04</pdfrwt>
<pdfrwt beam="2">  1       -1 0.30539874E+00 0.29388492E+04</pdfrwt>
<totfact> 0.33754675E-01</totfact>
</mgrwt>
</event>
<event>
 6    1  0.9562506E-007  0.2444750E+04  0.7818608E-02  0.8422937E-01
          1   -1    0    0  501    0  0.00000000000E+00  0.00000000000E+00  0.13914422052E+04  0.13914422052E+04  0.00000000000E+00 0. -1.
         -1   -1    0    0    0  501 -0.00000000000E+00 -0.00000000000E+00 -0.10738505366E+04  0.10738505366E+04  0.00000000000E+00 0.  1.
         23    2    1    2    0    0 -0.47018305778E+03 -0.99567957150E+03 -0.37233098327E+03  0.11658916557E+04  0.90681170922E+02 0.  0.
         13    1    3    3    0    0 -0.26096199237E+03 -0.44950454697E+03 -0.18624840961E+03  0.55212676922E+03  0.00000000000E+00 0.  1.
        -13    1    3    3    0    0 -0.20922106541E+03 -0.54617502453E+03 -0.18608257366E+03  0.61376488646E+03  0.00000000000E+00 0. -1.
         22    1    1    2    0    0  0.47018305778E+03  0.99567957150E+03  0.68992265190E+03  0.12994010861E+04  0.00000000000E+00 0. -1.
<mgrwt>
<rscale>  0 0.24447503E+04</rscale>
<asrwt>0</asrwt>
<pdfrwt beam="1">  1        1 0.21406803E+00 0.24447503E+04</pdfrwt>
<pdfrwt beam="2">  1       -1 0.16520777E+00 0.24447503E+04</pdfrwt>
<totfact> 0.18570326E+00</totfact>
</mgrwt>
</event>
<event>
 6    1  0.9562506E-007  0.1273779E+04  0.7818608E-02  0.9050621E-01
         -1   -1    0    0    0  501 -0.00000000000E+00  0.00000000000E+00  0.10663323696E+04  0.10663323696E+04  0.00000000000E+00 0.  1.
          1   -1    0    0  501    0  0.00000000000E+00 -0.00000000000E+00 -0.38039547373E+03  0.38039547373E+03  0.00000000000E+00 0. -1.
         23    2    1    2    0    0  0.32105331621E+03 -0.54485801982E+03  0.29528911913E+03  0.70338998000E+03  0.87271452833E+02 0.  0.
         11    1    3    3    0    0  0.34322754293E+02 -0.12420957688E+03  0.49007019431E+02  0.13786862734E+03  0.00000000000E+00 0. -1.
        -11    1    3    3    0    0  0.28673056191E+03 -0.42064844293E+03  0.24628209969E+03  0.56552135265E+03  0.00000000000E+00 0.  1.
         22    1    1    2    0    0 -0.32105331621E+03  0.54485801982E+03  0.39064777677E+03  0.74333786336E+03  0.00000000000E+00 0.  1.
<mgrwt>
<rscale>  0 0.12737786E+04</rscale>
<asrwt>0</asrwt>
<pdfrwt beam="1">  1        1 0.58522381E-01 0.12737786E+04</pdfrwt>
<pdfrwt beam="2">  1       -1 0.16405113E+00 0.12737786E+04</pdfrwt>
<totfact> 0.17201331E+01</totfact>
</mgrwt>
</event>
<event>
 6    1  0.9562506E-007  0.3937382E+04  0.7818608E-02  0.8017299E-01
         -2   -1    0    0    0  501 -0.00000000000E+00  0.00000000000E+00  0.27145124216E+04  0.27145124216E+04  0.00000000000E+00 0.  1.
          2   -1    0    0  501    0  0.00000000000E+00 -0.00000000000E+00 -0.14277865677E+04  0.14277865677E+04  0.00000000000E+00 0. -1.
         23    2    1    2    0    0 -0.16976721862E+04 -0.54718058972E+03  0.15176744461E+04  0.23437343667E+04  0.90871379390E+02 0.  0.
         13    1    3    3    0    0 -0.11311718295E+04 -0.37054012290E+03  0.10678359100E+04  0.15991007539E+04  0.00000000000E+00 0.  1.
        -13    1    3    3    0    0 -0.56650035672E+03 -0.17664046682E+03  0.44983853612E+03  0.74463361277E+03  0.00000000000E+00 0. -1.
         22    1    1    2    0    0  0.16976721862E+04  0.54718058972E+03 -0.23094859221E+03  0.17985646227E+04  0.00000000000E+00 0. -1.
<mgrwt>
<rscale>  0 0.39373821E+04</rscale>
<asrwt>0</asrwt>
<pdfrwt beam="1">  1        2 0.21965947E+00 0.39373821E+04</pdfrwt>
<pdfrwt beam="2">  1       -2 0.41761730E+00 0.39373821E+04</pdfrwt>
<totfact> 0.62853326E-02</totfact>
</mgrwt>
</event>
<event>
 6    1  0.9562506E-007  0.6237977E+04  0.7818608E-02  0.7661576E-01
          2   -1    0    0  501    0  0.00000000000E+00  0.00000000000E+00  0.37085099334E+04  0.37085099334E+04  0.00000000000E+00 0. -1.
         -2   -1    0    0    0  501 -0.00000000000E+00 -0.00000000000E+00 -0.26231796759E+04  0.26231796759E+04  0.00000000000E+00 0.  1.
         23    2    1    2    0    0 -0.86504275030E+03  0.28016923811E+04 -0.53439239192E+03  0.29818716113E+04  0.90575491389E+02 0.  0.
         11    1    3    3    0    0 -0.29959847741E+03  0.10307453266E+04 -0.23615219762E+03  0.10990737175E+04  0.00000000000E+00 0. -1.
        -11    1    3    3    0    0 -0.56544427289E+03  0.17709470545E+04 -0.29824019429E+03  0.18827978939E+04  0.00000000000E+00 0.  1.
         22    1    1    2    0    0  0.86504275030E+03 -0.28016923811E+04  0.16197226495E+04  0.33498179979E+04  0.00000000000E+00 0. -1.
<mgrwt>
<rscale>  0 0.62379766E+04</rscale>
<asrwt>0</asrwt>
<pdfrwt beam="1">  1        2 0.57053999E+00 0.62379766E+04</pdfrwt>
<pdfrwt beam="2">  1       -2 0.40356610E+00 0.62379766E+04</pdfrwt>
<totfact> 0.26695765E-03</totfact>
</mgrwt>
</event>
<event>
 6    1  0.9562506E-007  0.1467931E+04  0.7818608E-02  0.8906063E-01
         -2   -1    0    0    0  501 -0.00000000000E+00  0.00000000000E+00  0.48167618307E+03  0.48167618307E+03  0.00000000000E+00 0.  1.
          2   -1    0    0  501    0  0.00000000000E+00 -0.00000000000E+00 -0.11183980429E+04  0.11183980429E+04  0.00000000000E+00 0. -1.
         23    2    1    2    0    0  0.51963393321E+03 -0.11967845073E+03  0.22449264286E+03  0.58714146622E+03  0.99978990518E+02 0.  0.
         13    1    3    3    0    0  0.32300463518E+03 -0.24796379609E+02  0.14282519024E+03  0.35404221465E+03  0.00000000000E+00 0. -1.
        -13    1    3    3    0    0  0.19662929803E+03 -0.94882071120E+02  0.81667452618E+02  0.23309925157E+03  0.00000000000E+00 0.  1.
         22    1    1    2    0    0 -0.51963393321E+03  0.11967845073E+03 -0.86121450271E+03  0.10129327598E+04  0.00000000000E+00 0. -1.
<mgrwt>
<rscale>  0 0.14679315E+04</rscale>
<asrwt>0</asrwt>
<pdfrwt beam="1">  1        2 0.17206124E+00 0.14679315E+04</pdfrwt>
<pdfrwt beam="2">  1       -2 0.74104028E-01 0.14679315E+04</pdfrwt>
<totfact> 0.33716297E+01</totfact>
</mgrwt>
</event>
<event>
 6    1  0.9562506E-007  0.7730346E+03  0.7818608E-02  0.9599890E-01
          2   -1    0    0  501    0  0.00000000000E+00  0.00000000000E+00  0.84766989041E+03  0.84766989041E+03  0.00000000000E+00 0. -1.
         -2   -1    0    0    0  501 -0.00000000000E+00 -0.00000000000E+00 -0.17624269196E+03  0.17624269196E+03  0.00000000000E+00 0.  1.
         23    2    1    2    0    0  0.27832340241E+03 -0.25677601411E+03  0.27925556094E+03  0.47875532889E+03  0.88459928108E+02 0.  0.
         13    1    3    3    0    0  0.13359212431E+03 -0.66104732266E+02  0.96139468314E+02  0.17736822904E+03  0.00000000000E+00 0.  1.
        -13    1    3    3    0    0  0.14473127809E+03 -0.19067128184E+03  0.18311609262E+03  0.30138709985E+03  0.00000000000E+00 0. -1.
         22    1    1    2    0    0 -0.27832340241E+03  0.25677601411E+03  0.39217163751E+03  0.54515725348E+03  0.00000000000E+00 0. -1.
<mgrwt>
<rscale>  0 0.77303460E+03</rscale>
<asrwt>0</asrwt>
<pdfrwt beam="1">  1        2 0.13041075E+00 0.77303460E+03</pdfrwt>
<pdfrwt beam="2">  1       -2 0.27114261E-01 0.77303460E+03</pdfrwt>
<totfact> 0.39580567E+02</totfact>
</mgrwt>
</event>
<event>
 6    1  0.9562506E-007  0.2301430E+04  0.7818608E-02  0.8477358E-01
         -1   -1    0    0    0  501 -0.00000000000E+00  0.00000000000E+00  0.18888273016E+04  0.18888273016E+04  0.00000000000E+00 0.  1.
          1   -1    0    0  501    0  0.00000000000E+00 -0.00000000000E+00 -0.70104059487E+03  0.70104059487E+03  0.00000000000E+00 0. -1.
         23    2    1    2    0    0  0.67683558823E+03  0.78566474701E+03  0.37837559901E+02  0.10413981523E+04  0.87766295207E+02 0.  0.
         13    1    3    3    0    0  0.53676648119E+03  0.63864799360E+03 -0.30366599098E+01  0.83426538725E+03  0.00000000000E+00 0.  1.
        -13    1    3    3    0    0  0.14006910705E+03  0.14701675341E+03  0.40874219811E+02  0.20713276510E+03  0.00000000000E+00 0. -1.
         22    1    1    2    0    0 -0.67683558823E+03 -0.78566474701E+03  0.11499491468E+04  0.15484697441E+04  0.00000000000E+00 0.  1.
<mgrwt>
<rscale>  0 0.23014297E+04</rscale>
<asrwt>0</asrwt>
<pdfrwt beam="1">  1        1 0.10785240E+00 0.23014297E+04</pdfrwt>
<pdfrwt beam="2">  1       -1 0.29058881E+00 0.23014297E+04</pdfrwt>
<totfact> 0.93383280E-01</totfact>
</mgrwt>
</event>
<event>
 6    1  0.9562506E-007  0.6855019E+03  0.7818608E-02  0.9742352E-01
         -2   -1    0    0    0  501 -0.00000000000E+00  0.00000000000E+00  0.19051798493E+03  0.19051798493E+03  0.00000000000E+00 0.  1.
          2   -1    0    0  501    0  0.00000000000E+00 -0.00000000000E+00 -0.61662541088E+03  0.61662541088E+03  0.00000000000E+00 0. -1.
         23    2    1    2    0    0  0.15851233041E+03  0.43925955540E+00  0.13177123534E+03  0.22718223110E+03  0.95507883567E+02 0.  0.
         11    1    3    3    0    0  0.13819541716E+03 -0.36461704952E+02  0.10292319854E+03  0.17612669886E+03  0.00000000000E+00 0. -1.
        -11    1    3    3    0    0  0.20316913252E+02  0.36900964507E+02  0.28848036800E+02  0.51055532245E+02  0.00000000000E+00 0.  1.
         22    1    1    2    0    0 -0.15851233041E+03 -0.43925955540E+00 -0.55787866129E+03  0.57996116470E+03  0.00000000000E+00 0. -1.
<mgrwt>
<rscale>  0 0.68550195E+03</rscale>
<asrwt>0</asrwt>
<pdfrwt beam="1">  1        2 0.94865449E-01 0.68550195E+03</pdfrwt>
<pdfrwt beam="2">  1       -2 0.29310459E-01 0.68550195E+03</pdfrwt>
<totfact> 0.51678189E+02</totfact>
</mgrwt>
</event>
<event>
 6    1  0.9562506E-007  0.3369270E+04  0.7818608E-02  0.8145490E-01
         -2   -1    0    0    0  501 -0.00000000000E+00  0.00000000000E+00  0.90027246381E+03  0.90027246381E+03  0.00000000000E+00 0.  1.
          2   -1    0    0  501    0  0.00000000000E+00 -0.00000000000E+00 -0.31523735648E+04  0.31523735648E+04  0.00000000000E+00 0. -1.
         23    2    1    2    0    0 -0.36507481832E+03 -0.85677065476E+03  0.55996784387E+03  0.10903720155E+04  0.89507364439E+02 0.  0.
         11    1    3    3    0    0 -0.16725765090E+03 -0.28653964399E+03  0.21068527090E+03  0.39302464648E+03  0.00000000000E+00 0.  1.
        -11    1    3    3    0    0 -0.19781716742E+03 -0.57023101077E+03  0.34928257297E+03  0.69734736907E+03  0.00000000000E+00 0. -1.
         22    1    1    2    0    0  0.36507481832E+03  0.85677065476E+03 -0.28120689449E+04  0.29622740131E+04  0.00000000000E+00 0. -1.
<mgrwt>
<rscale>  0 0.33692700E+04</rscale>
<asrwt>0</asrwt>
<pdfrwt beam="1">  1        2 0.48498054E+00 0.33692700E+04</pdfrwt>
<pdfrwt beam="2">  1       -2 0.13850346E+00 0.33692700E+04</pdfrwt>
<totfact> 0.42673367E-01</totfact>
</mgrwt>
</event>
<event>
 6    1  0.9562506E-007  0.3692261E+04  0.7818608E-02  0.8069679E-01
         -2   -1    0    0    0  501 -0.00000000000E+00  0.00000000000E+00  0.28001052916E+04  0.28001052916E+04  0.00000000000E+00 0.  1.
          2   -1    0    0  501    0  0.00000000000E+00 -0.00000000000E+00 -0.12171677593E+04  0.12171677593E+04  0.00000000000E+00 0. -1.
         23    2    1    2    0    0 -0.86491248727E+03 -0.16241417083E+04  0.64541962776E+03  0.19521217923E+04  0.91121331427E+02 0.  0.
         13    1    3    3    0    0 -0.51155948781E+03 -0.94315748685E+03  0.32939814835E+03  0.11223824191E+04  0.00000000000E+00 0. -1.
        -13    1    3    3    0    0 -0.35335299946E+03 -0.68098422141E+03  0.31602147941E+03  0.82973937323E+03  0.00000000000E+00 0.  1.
         22    1    1    2    0    0  0.86491248727E+03  0.16241417083E+04  0.93751790457E+03  0.20651512585E+04  0.00000000000E+00 0.  1.
<mgrwt>
<rscale>  0 0.36922610E+04</rscale>
<asrwt>0</asrwt>
<pdfrwt beam="1">  1        2 0.18725658E+00 0.36922610E+04</pdfrwt>
<pdfrwt beam="2">  1       -2 0.43078543E+00 0.36922610E+04</pdfrwt>
<totfact> 0.69563625E-02</totfact>
</mgrwt>
</event>
<event>
 6    1  0.9562506E-007  0.1711757E+04  0.7818608E-02  0.8754687E-01
          2   -1    0    0  501    0  0.00000000000E+00  0.00000000000E+00  0.87177877288E+03  0.87177877288E+03  0.00000000000E+00 0. -1.
         -2   -1    0    0    0  501 -0.00000000000E+00 -0.00000000000E+00 -0.84026785743E+03  0.84026785743E+03  0.00000000000E+00 0.  1.
         23    2    1    2    0    0 -0.34939548544E+03  0.67496081092E+03  0.40400510319E+03  0.86564174999E+03  0.92012033938E+02 0.  0.
         13    1    3    3    0    0 -0.11566375312E+03  0.24411806123E+03  0.19299808323E+03  0.33199396340E+03  0.00000000000E+00 0.  1.
        -13    1    3    3    0    0 -0.23373173232E+03  0.43084274969E+03  0.21100701997E+03  0.53364778659E+03  0.00000000000E+00 0. -1.
         22    1    1    2    0    0  0.34939548544E+03 -0.67496081092E+03 -0.37249418773E+03  0.84640488032E+03  0.00000000000E+00 0.  1.
<mgrwt>
<rscale>  0 0.17117566E+04</rscale>
<asrwt>0</asrwt>
<pdfrwt beam="1">  1        2 0.13411981E+00 0.17117566E+04</pdfrwt>
<pdfrwt beam="2">  1       -2 0.12927198E+00 0.17117566E+04</pdfrwt>
<totfact> 0.12835966E+01</totfact>
</mgrwt>
</event>
<event>
 6    1  0.9562506E-007  0.8093074E+03  0.7818608E-02  0.9546642E-01
          2   -1    0    0  501    0  0.00000000000E+00  0.00000000000E+00  0.72989400846E+03  0.72989400846E+03  0.00000000000E+00 0. -1.
         -2   -1    0    0    0  501 -0.00000000000E+00 -0.00000000000E+00 -0.22434029094E+03  0.22434029094E+03  0.00000000000E+00 0.  1.
         23    2    1    2    0    0  0.78591471795E+02 -0.21570236823E+03  0.64168307383E+03  0.68733481879E+03  0.89262840999E+02 0.  0.
         11    1    3    3    0    0  0.57464668948E+02 -0.72296701270E+02  0.34481139354E+03  0.35696484184E+03  0.00000000000E+00 0. -1.
        -11    1    3    3    0    0  0.21126802846E+02 -0.14340566696E+03  0.29687168029E+03  0.33036997695E+03  0.00000000000E+00 0.  1.
         22    1    1    2    0    0 -0.78591471795E+02  0.21570236823E+03 -0.13612935631E+03  0.26689948061E+03  0.00000000000E+00 0.  1.
<mgrwt>
<rscale>  0 0.80930744E+03</rscale>
<asrwt>0</asrwt>
<pdfrwt beam="1">  1        2 0.11229139E+00 0.80930744E+03</pdfrwt>
<pdfrwt beam="2">  1       -2 0.34513891E-01 0.80930744E+03</pdfrwt>
<totfact> 0.30708652E+02</totfact>
</mgrwt>
</event>
<event>
 6    1  0.9562506E-007  0.8688093E+03  0.7818608E-02  0.9465434E-01
          1   -1    0    0  501    0  0.00000000000E+00  0.00000000000E+00  0.70412455261E+03  0.70412455261E+03  0.00000000000E+00 0. -1.
         -1   -1    0    0    0  501 -0.00000000000E+00 -0.00000000000E+00 -0.26800289664E+03  0.26800289664E+03  0.00000000000E+00 0.  1.
         23    2    1    2    0    0  0.15792558184E+03 -0.32177382409E+03  0.48558862772E+03  0.61029065654E+03  0.90440515396E+02 0.  0.
         13    1    3    3    0    0  0.40256974466E+02 -0.24499104123E+02  0.90598011980E+02  0.10212164252E+03  0.00000000000E+00 0. -1.
        -13    1    3    3    0    0  0.11766860737E+03 -0.29727471997E+03  0.39499061574E+03  0.50816901402E+03  0.00000000000E+00 0.  1.
         22    1    1    2    0    0 -0.15792558184E+03  0.32177382409E+03 -0.49466971747E+02  0.36183679271E+03  0.00000000000E+00 0.  1.
<mgrwt>
<rscale>  0 0.86880935E+03</rscale>
<asrwt>0</asrwt>
<pdfrwt beam="1">  1        1 0.10832685E+00 0.86880935E+03</pdfrwt>
<pdfrwt beam="2">  1       -1 0.41231215E-01 0.86880935E+03</pdfrwt>
<totfact> 0.15682724E+02</totfact>
</mgrwt>
</event>
<event>
 6    1  0.9562506E-007  0.1469618E+04  0.7818608E-02  0.8904912E-01
         -2   -1    0    0    0  501 -0.00000000000E+00  0.00000000000E+00  0.16111212213E+03  0.16111212213E+03  0.00000000000E+00 0.  1.
          2   -1    0    0  501    0  0.00000000000E+00 -0.00000000000E+00 -0.33513571676E+04  0.33513571676E+04  0.00000000000E+00 0. -1.
         23    2    1    2    0    0  0.47414403911E+03  0.53139880935E+03 -0.11982154170E+04  0.13969600590E+04  0.92628055295E+02 0.  0.
         11    1    3    3    0    0  0.23225218077E+03  0.20205633395E+03 -0.46763510508E+03  0.55986643859E+03  0.00000000000E+00 0.  1.
        -11    1    3    3    0    0  0.24189185834E+03  0.32934247540E+03 -0.73058031189E+03  0.83709362042E+03  0.00000000000E+00 0. -1.
         22    1    1    2    0    0 -0.47414403911E+03 -0.53139880935E+03 -0.19920296285E+04  0.21155092307E+04  0.00000000000E+00 0. -1.
<mgrwt>
<rscale>  0 0.14696180E+04</rscale>
<asrwt>0</asrwt>
<pdfrwt beam="1">  1        2 0.51559338E+00 0.14696180E+04</pdfrwt>
<pdfrwt beam="2">  1       -2 0.24786482E-01 0.14696180E+04</pdfrwt>
<totfact> 0.14701744E+01</totfact>
</mgrwt>
</event>
<event>
 6    1  0.1119965E-006  0.3522717E+04  0.7818608E-02  0.8108427E-01
          1   -1    0    0  501    0  0.00000000000E+00  0.00000000000E+00  0.20148314066E+04  0.20148314066E+04  0.00000000000E+00 0. -1.
         -1   -1    0    0    0  501 -0.00000000000E+00 -0.00000000000E+00 -0.15397734104E+04  0.15397734104E+04  0.00000000000E+00 0.  1.
         23    2    1    2    0    0 -0.58220408254E+03 -0.14526822512E+04 -0.57527907381E+03  0.16698089986E+04  0.89826289545E+02 0.  0.
         13    1    3    3    0    0 -0.35778043841E+03 -0.77652021009E+03 -0.30155344370E+03  0.90660077112E+03  0.00000000000E+00 0. -1.
        -13    1    3    3    0    0 -0.22442364413E+03 -0.67616204109E+03 -0.27372563011E+03  0.76320822744E+03  0.00000000000E+00 0.  1.
         22    1    1    2    0    0  0.58220408254E+03  0.14526822512E+04  0.10503370700E+04  0.18847958184E+04  0.00000000000E+00 0. -1.
<mgrwt>
<rscale>  0 0.35227170E+04</rscale>
<asrwt>0</asrwt>
<pdfrwt beam="1">  1        1 0.30997406E+00 0.35227170E+04</pdfrwt>
<pdfrwt beam="2">  1       -1 0.23688822E+00 0.35227170E+04</pdfrwt>
<totfact> 0.20152614E-01</totfact>
</mgrwt>
</event>
<event>
 6    1  0.9562506E-007  0.1905472E+04  0.7818608E-02  0.8652137E-01
          1   -1    0    0  501    0  0.00000000000E+00  0.00000000000E+00  0.56854923912E+03  0.56854923912E+03  0.00000000000E+00 0. -1.
         -1   -1    0    0    0  501 -0.00000000000E+00 -0.00000000000E+00 -0.15965306729E+04  0.15965306729E+04  0.00000000000E+00 0.  1.
         23    2    1    2    0    0 -0.15480659088E+03  0.93236751290E+03 -0.39894542603E+03  0.10297559236E+04  0.89249927281E+02 0.  0.
         13    1    3    3    0    0 -0.34410795936E+02  0.10154164952E+03 -0.70350754129E+02  0.12823430926E+03  0.00000000000E+00 0.  1.
        -13    1    3    3    0    0 -0.12039579495E+03  0.83082586338E+03 -0.32859467190E+03  0.90152161433E+03  0.00000000000E+00 0. -1.
         22    1    1    2    0    0  0.15480659088E+03 -0.93236751290E+03 -0.62903600780E+03  0.11353239885E+04  0.00000000000E+00 0. -1.
<mgrwt>
<rscale>  0 0.19054724E+04</rscale>
<asrwt>0</asrwt>
<pdfrwt beam="1">  1        1 0.87469115E-01 0.19054724E+04</pdfrwt>
<pdfrwt beam="2">  1       -1 0.24562010E+00 0.19054724E+04</pdfrwt>
<totfact> 0.25772809E+00</totfact>
</mgrwt>
</event>
<event>
 6    1  0.9562506E-007  0.2662406E+04  0.7818608E-02  0.8347307E-01
          1   -1    0    0  501    0  0.00000000000E+00  0.00000000000E+00  0.18800851646E+04  0.18800851646E+04  0.00000000000E+00 0. -1.
         -1   -1    0    0    0  501 -0.00000000000E+00 -0.00000000000E+00 -0.94256413440E+03  0.94256413440E+03  0.00000000000E+00 0.  1.
         23    2    1    2    0    0  0.81039071443E+03 -0.39255672036E+03 -0.56794556888E+03  0.10684362077E+04  0.90332009549E+02 0.  0.
         13    1    3    3    0    0  0.29173804344E+03 -0.16176424903E+03 -0.16411631992E+03  0.37176998900E+03  0.00000000000E+00 0. -1.
        -13    1    3    3    0    0  0.51865267099E+03 -0.23079247133E+03 -0.40382924896E+03  0.69666621869E+03  0.00000000000E+00 0.  1.
         22    1    1    2    0    0 -0.81039071443E+03  0.39255672036E+03  0.15054665991E+04  0.17542130913E+04  0.00000000000E+00 0. -1.
<mgrwt>
<rscale>  0 0.26624056E+04</rscale>
<asrwt>0</asrwt>
<pdfrwt beam="1">  1        1 0.28924387E+00 0.26624056E+04</pdfrwt>
<pdfrwt beam="2">  1       -1 0.14500987E+00 0.26624056E+04</pdfrwt>
<totfact> 0.12026886E+00</totfact>
</mgrwt>
</event>
<event>
 6    1  0.9562506E-007  0.2877279E+04  0.7818608E-02  0.8279670E-01
         -2   -1    0    0    0  501 -0.00000000000E+00  0.00000000000E+00  0.16325999788E+04  0.16325999788E+04  0.00000000000E+00 0.  1.
          2   -1    0    0  501    0  0.00000000000E+00 -0.00000000000E+00 -0.12677224964E+04  0.12677224964E+04  0.00000000000E+00 0. -1.
         23    2    1    2    0    0 -0.39750552229E+03 -0.68555993182E+03  0.13912109574E+04  0.16036484753E+04  0.90650118638E+02 0.  0.
         11    1    3    3    0    0 -0.19648411161E+02 -0.81898099464E+02  0.17643929960E+03  0.19551006419E+03  0.00000000000E+00 0. -1.
        -11    1    3    3    0    0 -0.37785711113E+03 -0.60366183236E+03  0.12147716578E+04  0.14081384111E+04  0.00000000000E+00 0.  1.
         22    1    1    2    0    0  0.39750552229E+03  0.68555993182E+03 -0.10263334749E+04  0.12966739999E+04  0.00000000000E+00 0. -1.
<mgrwt>
<rscale>  0 0.28772791E+04</rscale>
<asrwt>0</asrwt>
<pdfrwt beam="1">  1        2 0.19503423E+00 0.28772791E+04</pdfrwt>
<pdfrwt beam="2">  1       -2 0.25116923E+00 0.28772791E+04</pdfrwt>
<totfact> 0.94369553E-01</totfact>
</mgrwt>
</event>
<event>
 6    1  0.9562506E-007  0.2716733E+04  0.7818608E-02  0.8329596E-01
          1   -1    0    0  501    0  0.00000000000E+00  0.00000000000E+00  0.17706131331E+04  0.17706131331E+04  0.00000000000E+00 0. -1.
         -1   -1    0    0    0  501 -0.00000000000E+00 -0.00000000000E+00 -0.10421021353E+04  0.10421021353E+04  0.00000000000E+00 0.  1.
         23    2    1    2    0    0  0.33049848032E+03 -0.61495948851E+03 -0.83983194323E+03  0.10960021303E+04  0.92187627780E+02 0.  0.
         13    1    3    3    0    0  0.43404741829E+02 -0.50429022891E+02 -0.12001495369E+03  0.13722480488E+03  0.00000000000E+00 0.  1.
        -13    1    3    3    0    0  0.28709373849E+03 -0.56453046562E+03 -0.71981698953E+03  0.95877732541E+03  0.00000000000E+00 0. -1.
         22    1    1    2    0    0 -0.33049848032E+03  0.61495948851E+03  0.15683429411E+04  0.17167131382E+04  0.00000000000E+00 0. -1.
<mgrwt>
<rscale>  0 0.27167331E+04</rscale>
<asrwt>0</asrwt>
<pdfrwt beam="1">  1        1 0.27240202E+00 0.27167331E+04</pdfrwt>
<pdfrwt beam="2">  1       -1 0.16032341E+00 0.27167331E+04</pdfrwt>
<totfact> 0.10808732E+00</totfact>
</mgrwt>
</event>
<event>
 6    1  0.9562506E-007  0.2108177E+04  0.7818608E-02  0.8557650E-01
          2   -1    0    0  501    0  0.00000000000E+00  0.00000000000E+00  0.22949403839E+04  0.22949403839E+04  0.00000000000E+00 0. -1.
         -2   -1    0    0    0  501 -0.00000000000E+00 -0.00000000000E+00 -0.48415310222E+03  0.48415310222E+03  0.00000000000E+00 0.  1.
         23    2    1    2    0    0  0.36284455080E+03 -0.60632138718E+03  0.19347578025E+04  0.20617020431E+04  0.89698202258E+02 0.  0.
         11    1    3    3    0    0  0.26614696292E+03 -0.41453782889E+03  0.14529119100E+04  0.15341541108E+04  0.00000000000E+00 0. -1.
        -11    1    3    3    0    0  0.96697587881E+02 -0.19178355829E+03  0.48184589248E+03  0.52754793227E+03  0.00000000000E+00 0.  1.
         22    1    1    2    0    0 -0.36284455080E+03  0.60632138718E+03 -0.12397052078E+03  0.71739144309E+03  0.00000000000E+00 0.  1.
<mgrwt>
<rscale>  0 0.21081769E+04</rscale>
<asrwt>0</asrwt>
<pdfrwt beam="1">  1        2 0.35306774E+00 0.21081769E+04</pdfrwt>
<pdfrwt beam="2">  1       -2 0.74485094E-01 0.21081769E+04</pdfrwt>
<totfact> 0.68145274E+00</totfact>
</mgrwt>
</event>
<event>
 6    1  0.9562506E-007  0.3271189E+04  0.7818608E-02  0.8170265E-01
         -1   -1    0    0    0  501 -0.00000000000E+00  0.00000000000E+00  0.20921167149E+04  0.20921167149E+04  0.00000000000E+00 0.  1.
          1   -1    0    0  501    0  0.00000000000E+00 -0.00000000000E+00 -0.12786903759E+04  0.12786903759E+04  0.00000000000E+00 0. -1.
         23    2    1    2    0    0  0.10935440054E+04  0.63773507659E+03  0.14724737873E+04  0.19436112182E+04  0.83072217714E+02 0.  0.
         11    1    3    3    0    0  0.26881576327E+03  0.16968369053E+03  0.31859779195E+03  0.45006557572E+03  0.00000000000E+00 0. -1.
        -11    1    3    3    0    0  0.82472824218E+03  0.46805138606E+03  0.11538759953E+04  0.14935456424E+04  0.00000000000E+00 0.  1.
         22    1    1    2    0    0 -0.10935440054E+04 -0.63773507659E+03 -0.65904744833E+03  0.14271958726E+04  0.00000000000E+00 0. -1.
<mgrwt>
<rscale>  0 0.32711891E+04</rscale>
<asrwt>0</asrwt>
<pdfrwt beam="1">  1        1 0.19672160E+00 0.32711891E+04</pdfrwt>
<pdfrwt beam="2">  1       -1 0.32186411E+00 0.32711891E+04</pdfrwt>
<totfact> 0.18539335E-01</totfact>
</mgrwt>
</event>
<event>
 6    1  0.9562506E-007  0.1523328E+04  0.7818608E-02  0.8869086E-01
          2   -1    0    0  501    0  0.00000000000E+00  0.00000000000E+00  0.11413156278E+04  0.11413156278E+04  0.00000000000E+00 0. -1.
         -2   -1    0    0    0  501 -0.00000000000E+00 -0.00000000000E+00 -0.50830139955E+03  0.50830139955E+03  0.00000000000E+00 0.  1.
         23    2    1    2    0    0  0.17820576051E+03  0.41465113431E+03  0.97842475602E+03  0.10812850039E+04  0.90384734437E+02 0.  0.
         13    1    3    3    0    0  0.85158200942E+02  0.26625379134E+03  0.51700839810E+03  0.58774202189E+03  0.00000000000E+00 0.  1.
        -13    1    3    3    0    0  0.93047559564E+02  0.14839734297E+03  0.46141635792E+03  0.49354298201E+03  0.00000000000E+00 0. -1.
         22    1    1    2    0    0 -0.17820576051E+03 -0.41465113431E+03 -0.34541052773E+03  0.56833202349E+03  0.00000000000E+00 0.  1.
<mgrwt>
<rscale>  0 0.15233284E+04</rscale>
<asrwt>0</asrwt>
<pdfrwt beam="1">  1        2 0.17558702E+00 0.15233284E+04</pdfrwt>
<pdfrwt beam="2">  1       -2 0.78200216E-01 0.15233284E+04</pdfrwt>
<totfact> 0.28840119E+01</totfact>
</mgrwt>
</event>
<event>
 6    1  0.9562506E-007  0.1502123E+04  0.7818608E-02  0.8883042E-01
          2   -1    0    0  501    0  0.00000000000E+00  0.00000000000E+00  0.77085937691E+03  0.77085937691E+03  0.00000000000E+00 0. -1.
         -2   -1    0    0    0  501 -0.00000000000E+00 -0.00000000000E+00 -0.73177239896E+03  0.73177239896E+03  0.00000000000E+00 0.  1.
         23    2    1    2    0    0  0.26566499275E+02 -0.50033321939E+03  0.57547163949E+03  0.76863748813E+03  0.92719312988E+02 0.  0.
         13    1    3    3    0    0  0.51946821092E+02 -0.18277063621E+03  0.23809295510E+03  0.30461751911E+03  0.00000000000E+00 0.  1.
        -13    1    3    3    0    0 -0.25380321817E+02 -0.31756258317E+03  0.33737868439E+03  0.46401996902E+03  0.00000000000E+00 0. -1.
         22    1    1    2    0    0 -0.26566499275E+02  0.50033321939E+03 -0.53638466153E+03  0.73399428774E+03  0.00000000000E+00 0.  1.
<mgrwt>
<rscale>  0 0.15021233E+04</rscale>
<asrwt>0</asrwt>
<pdfrwt beam="1">  1        2 0.11859375E+00 0.15021233E+04</pdfrwt>
<pdfrwt beam="2">  1       -2 0.11258037E+00 0.15021233E+04</pdfrwt>
<totfact> 0.21706905E+01</totfact>
</mgrwt>
</event>
<event>
 6    1  0.9562506E-007  0.2691848E+04  0.7818608E-02  0.8337655E-01
          2   -1    0    0  501    0  0.00000000000E+00  0.00000000000E+00  0.17492232282E+04  0.17492232282E+04  0.00000000000E+00 0. -1.
         -2   -1    0    0    0  501 -0.00000000000E+00 -0.00000000000E+00 -0.10356088490E+04  0.10356088490E+04  0.00000000000E+00 0.  1.
         23    2    1    2    0    0  0.34706882482E+03  0.11439430495E+04 -0.27937221954E+03  0.12307777490E+04  0.87764234403E+02 0.  0.
         11    1    3    3    0    0  0.35228244826E+02  0.52259983248E+02 -0.20671244421E+02  0.66328240053E+02  0.00000000000E+00 0. -1.
        -11    1    3    3    0    0  0.31184057999E+03  0.10916830662E+04 -0.25870097512E+03  0.11644495090E+04  0.00000000000E+00 0.  1.
         22    1    1    2    0    0 -0.34706882482E+03 -0.11439430495E+04  0.99298659871E+03  0.15540543282E+04  0.00000000000E+00 0. -1.
<mgrwt>
<rscale>  0 0.26918477E+04</rscale>
<asrwt>0</asrwt>
<pdfrwt beam="1">  1        2 0.26911127E+00 0.26918477E+04</pdfrwt>
<pdfrwt beam="2">  1       -2 0.15932444E+00 0.26918477E+04</pdfrwt>
<totfact> 0.20600481E+00</totfact>
</mgrwt>
</event>
<event>
 6    1  0.9562506E-007  0.1747280E+04  0.7818608E-02  0.8734849E-01
         -1   -1    0    0    0  501 -0.00000000000E+00  0.00000000000E+00  0.57172101319E+03  0.57172101319E+03  0.00000000000E+00 0.  1.
          1   -1    0    0  501    0  0.00000000000E+00 -0.00000000000E+00 -0.13349986411E+04  0.13349986411E+04  0.00000000000E+00 0. -1.
         23    2    1    2    0    0 -0.12375817481E+03  0.24430465235E+03 -0.12851517041E+04  0.13173527054E+04  0.93821099490E+02 0.  0.
         13    1    3    3    0    0 -0.16568829062E+02  0.13604527773E+03 -0.62505662502E+03  0.63990517123E+03  0.00000000000E+00 0. -1.
        -13    1    3    3    0    0 -0.10718934575E+03  0.10825937463E+03 -0.66009507910E+03  0.67744753413E+03  0.00000000000E+00 0.  1.
         22    1    1    2    0    0  0.12375817481E+03 -0.24430465235E+03  0.52187407624E+03  0.58936694890E+03  0.00000000000E+00 0.  1.
<mgrwt>
<rscale>  0 0.17472799E+04</rscale>
<asrwt>0</asrwt>
<pdfrwt beam="1">  1        1 0.20538440E+00 0.17472799E+04</pdfrwt>
<pdfrwt beam="2">  1       -1 0.87957080E-01 0.17472799E+04</pdfrwt>
<totfact> 0.10285614E+01</totfact>
</mgrwt>
</event>
<event>
 6    1  0.1180332E-006  0.3441314E+04  0.7818608E-02  0.8127840E-01
          2   -1    0    0  501    0  0.00000000000E+00  0.00000000000E+00  0.16214952487E+04  0.16214952487E+04  0.00000000000E+00 0. -1.
         -2   -1    0    0    0  501 -0.00000000000E+00 -0.00000000000E+00 -0.18258829459E+04  0.18258829459E+04  0.00000000000E+00 0.  1.
         23    2    1    2    0    0  0.28413158815E+02  0.10381693529E+04  0.12705301322E+04  0.16434975121E+04  0.90743277885E+02 0.  0.
         13    1    3    3    0    0 -0.24336177314E+02  0.27642553278E+03  0.37784090393E+03  0.46879320961E+03  0.00000000000E+00 0. -1.
        -13    1    3    3    0    0  0.52749336129E+02  0.76174382013E+03  0.89268922829E+03  0.11747043025E+04  0.00000000000E+00 0.  1.
         22    1    1    2    0    0 -0.28413158815E+02 -0.10381693529E+04 -0.14749178295E+04  0.18038806825E+04  0.00000000000E+00 0.  1.
<mgrwt>
<rscale>  0 0.34413140E+04</rscale>
<asrwt>0</asrwt>
<pdfrwt beam="1">  1        2 0.24946081E+00 0.34413140E+04</pdfrwt>
<pdfrwt beam="2">  1       -2 0.28090507E+00 0.34413140E+04</pdfrwt>
<totfact> 0.37239000E-01</totfact>
</mgrwt>
</event>
<event>
 6    1  0.9562506E-007  0.1434173E+04  0.7818608E-02  0.8929447E-01
         -1   -1    0    0    0  501 -0.00000000000E+00  0.00000000000E+00  0.26061928041E+03  0.26061928041E+03  0.00000000000E+00 0.  1.
          1   -1    0    0  501    0  0.00000000000E+00 -0.00000000000E+00 -0.19730426576E+04  0.19730426576E+04  0.00000000000E+00 0. -1.
         23    2    1    2    0    0 -0.14995513520E+03 -0.43301293550E+02 -0.19450062516E+04  0.19535613525E+04  0.94821383685E+02 0.  0.
         11    1    3    3    0    0 -0.71200415326E+02  0.24842671034E+02 -0.64584510138E+03  0.65023269098E+03  0.00000000000E+00 0. -1.
        -11    1    3    3    0    0 -0.78754719878E+02 -0.68143964584E+02 -0.12991611502E+04  0.13033286615E+04  0.00000000000E+00 0.  1.
         22    1    1    2    0    0  0.14995513520E+03  0.43301293550E+02  0.23258287432E+03  0.28010058555E+03  0.00000000000E+00 0.  1.
<mgrwt>
<rscale>  0 0.14341729E+04</rscale>
<asrwt>0</asrwt>
<pdfrwt beam="1">  1        1 0.30354503E+00 0.14341729E+04</pdfrwt>
<pdfrwt beam="2">  1       -1 0.40095273E-01 0.14341729E+04</pdfrwt>
<totfact> 0.18343717E+01</totfact>
</mgrwt>
</event>
<event>
 6    1  0.9562506E-007  0.2376848E+04  0.7818608E-02  0.8448223E-01
          2   -1    0    0  501    0  0.00000000000E+00  0.00000000000E+00  0.13674350087E+04  0.13674350087E+04  0.00000000000E+00 0. -1.
         -2   -1    0    0    0  501 -0.00000000000E+00 -0.00000000000E+00 -0.10328470570E+04  0.10328470570E+04  0.00000000000E+00 0.  1.
         23    2    1    2    0    0  0.88550077522E+03 -0.78993877828E+03  0.16261484204E+03  0.12012450993E+04  0.91822140333E+02 0.  0.
         13    1    3    3    0    0  0.52526499675E+03 -0.41800111163E+03  0.66089112595E+02  0.67453392571E+03  0.00000000000E+00 0. -1.
        -13    1    3    3    0    0  0.36023577847E+03 -0.37193766665E+03  0.96525729445E+02  0.52671117361E+03  0.00000000000E+00 0.  1.
         22    1    1    2    0    0 -0.88550077522E+03  0.78993877828E+03  0.17197310965E+03  0.11990369664E+04  0.00000000000E+00 0. -1.
<mgrwt>
<rscale>  0 0.23768477E+04</rscale>
<asrwt>0</asrwt>
<pdfrwt beam="1">  1        2 0.21037462E+00 0.23768477E+04</pdfrwt>
<pdfrwt beam="2">  1       -2 0.15889955E+00 0.23768477E+04</pdfrwt>
<totfact> 0.34940383E+00</totfact>
</mgrwt>
</event>
<event>
 6    1  0.9562506E-007  0.9757654E+03  0.7818608E-02  0.9335532E-01
         -2   -1    0    0    0  501 -0.00000000000E+00  0.00000000000E+00  0.16147738209E+03  0.16147738209E+03  0.00000000000E+00 0.  1.
          2   -1    0    0  501    0  0.00000000000E+00 -0.00000000000E+00 -0.14740735899E+04  0.14740735899E+04  0.00000000000E+00 0. -1.
         23    2    1    2    0    0 -0.35257458220E+03  0.89067276142E+02 -0.11965837623E+04  0.12538433572E+04  0.89825656206E+02 0.  0.
         13    1    3    3    0    0 -0.11841499516E+03  0.47450473654E+02 -0.29464405342E+03  0.32107440998E+03  0.00000000000E+00 0.  1.
        -13    1    3    3    0    0 -0.23415958704E+03  0.41616802487E+02 -0.90193970883E+03  0.93276894718E+03  0.00000000000E+00 0. -1.
         22    1    1    2    0    0  0.35257458220E+03 -0.89067276142E+02 -0.11601244556E+03  0.38170761483E+03  0.00000000000E+00 0.  1.
<mgrwt>
<rscale>  0 0.97576543E+03</rscale>
<asrwt>0</asrwt>
<pdfrwt beam="1">  1        2 0.22678055E+00 0.97576543E+03</pdfrwt>
<pdfrwt beam="2">  1       -2 0.24842674E-01 0.97576543E+03</pdfrwt>
<totfact> 0.19028462E+02</totfact>
</mgrwt>
</event>
<event>
 6    1  0.9562506E-007  0.3977199E+04  0.7818608E-02  0.8009162E-01
          1   -1    0    0  501    0  0.00000000000E+00  0.00000000000E+00  0.20642410057E+04  0.20642410057E+04  0.00000000000E+00 0. -1.
         -1   -1    0    0    0  501 -0.00000000000E+00 -0.00000000000E+00 -0.19157298130E+04  0.19157298130E+04  0.00000000000E+00 0.  1.
         23    2    1    2    0    0  0.44142099644E+03 -0.18604740327E+04 -0.46831278094E+03  0.19708197699E+04  0.92723147526E+02 0.  0.
         11    1    3    3    0    0  0.38063647351E+03 -0.15335889368E+04 -0.35456253743E+03  0.16194115428E+04  0.00000000000E+00 0. -1.
        -11    1    3    3    0    0  0.60784522935E+02 -0.32688509595E+03 -0.11375024352E+03  0.35140822711E+03  0.00000000000E+00 0.  1.
         22    1    1    2    0    0 -0.44142099644E+03  0.18604740327E+04  0.61682397367E+03  0.20091510488E+04  0.00000000000E+00 0. -1.
<mgrwt>
<rscale>  0 0.39771990E+04</rscale>
<asrwt>0</asrwt>
<pdfrwt beam="1">  1        1 0.31757554E+00 0.39771990E+04</pdfrwt>
<pdfrwt beam="2">  1       -1 0.29472766E+00 0.39771990E+04</pdfrwt>
<totfact> 0.75506323E-02</totfact>
</mgrwt>
</event>
<event>
 6    1  0.9562506E-007  0.3601350E+04  0.7818608E-02  0.8090183E-01
         -2   -1    0    0    0  501 -0.00000000000E+00  0.00000000000E+00  0.10582648132E+04  0.10582648132E+04  0.00000000000E+00 0.  1.
          2   -1    0    0  501    0  0.00000000000E+00 -0.00000000000E+00 -0.30639117942E+04  0.30639117942E+04  0.00000000000E+00 0. -1.
         23    2    1    2    0    0  0.85867746094E+03 -0.12392248735E+04  0.12079765104E+03  0.15154982533E+04  0.95590869420E+02 0.  0.
         13    1    3    3    0    0  0.31312256949E+03 -0.47523043955E+03  0.11097806556E+01  0.56911417643E+03  0.00000000000E+00 0. -1.
        -13    1    3    3    0    0  0.54555489145E+03 -0.76399443394E+03  0.11968787038E+03  0.94638407689E+03  0.00000000000E+00 0.  1.
         22    1    1    2    0    0 -0.85867746094E+03  0.12392248735E+04 -0.21264446320E+04  0.26066783542E+04  0.00000000000E+00 0. -1.
<mgrwt>
<rscale>  0 0.36013498E+04</rscale>
<asrwt>0</asrwt>
<pdfrwt beam="1">  1        2 0.47137105E+00 0.36013498E+04</pdfrwt>
<pdfrwt beam="2">  1       -2 0.16280997E+00 0.36013498E+04</pdfrwt>
<totfact> 0.31032371E-01</totfact>
</mgrwt>
</event>
<event>
 6    1  0.9562506E-007  0.1669430E+04  0.7818608E-02  0.8778994E-01
          2   -1    0    0  501    0  0.00000000000E+00  0.00000000000E+00  0.22272047470E+04  0.22272047470E+04  0.00000000000E+00 0. -1.
         -2   -1    0    0    0  501 -0.00000000000E+00 -0.00000000000E+00 -0.31283552647E+03  0.31283552647E+03  0.00000000000E+00 0.  1.
         23    2    1    2    0    0 -0.34424794714E+03  0.12795518557E+03  0.20963362625E+04  0.21301729986E+04  0.90178156466E+02 0.  0.
         11    1    3    3    0    0 -0.18567405641E+03  0.24029708645E+02  0.95166965298E+03  0.96991103227E+03  0.00000000000E+00 0. -1.
        -11    1    3    3    0    0 -0.15857389073E+03  0.10392547692E+03  0.11446666095E+04  0.11602619664E+04  0.00000000000E+00 0.  1.
         22    1    1    2    0    0  0.34424794714E+03 -0.12795518557E+03 -0.18196704199E+03  0.40986727485E+03  0.00000000000E+00 0.  1.
<mgrwt>
<rscale>  0 0.16694296E+04</rscale>
<asrwt>0</asrwt>
<pdfrwt beam="1">  1        2 0.34264687E+00 0.16694296E+04</pdfrwt>
<pdfrwt beam="2">  1       -2 0.48128544E-01 0.16694296E+04</pdfrwt>
<totfact> 0.19458274E+01</totfact>
</mgrwt>
</event>
<event>
 6    1  0.9562506E-007  0.1800355E+04  0.7818608E-02  0.8706111E-01
          2   -1    0    0  501    0  0.00000000000E+00  0.00000000000E+00  0.14086524652E+04  0.14086524652E+04  0.00000000000E+00 0. -1.
         -2   -1    0    0    0  501 -0.00000000000E+00 -0.00000000000E+00 -0.57524416647E+03  0.57524416647E+03  0.00000000000E+00 0.  1.
         23    2    1    2    0    0  0.43642633255E+03 -0.16491406448E+03 -0.42762827015E+03  0.63932316011E+03  0.90573578988E+02 0.  0.
         11    1    3    3    0    0  0.27183286319E+03 -0.10337714399E+03 -0.32375135294E+03  0.43519521819E+03  0.00000000000E+00 0. -1.
        -11    1    3    3    0    0  0.16459346937E+03 -0.61536920487E+02 -0.10387691721E+03  0.20412794192E+03  0.00000000000E+00 0.  1.
         22    1    1    2    0    0 -0.43642633255E+03  0.16491406448E+03  0.12610365689E+04  0.13445734716E+04  0.00000000000E+00 0. -1.
<mgrwt>
<rscale>  0 0.18003545E+04</rscale>
<asrwt>0</asrwt>
<pdfrwt beam="1">  1        2 0.21671576E+00 0.18003545E+04</pdfrwt>
<pdfrwt beam="2">  1       -2 0.88499103E-01 0.18003545E+04</pdfrwt>
<totfact> 0.14838462E+01</totfact>
</mgrwt>
</event>
<event>
 6    1  0.9562506E-007  0.6221710E+04  0.7818608E-02  0.7663504E-01
         -1   -1    0    0    0  501 -0.00000000000E+00  0.00000000000E+00  0.29477771008E+04  0.29477771008E+04  0.00000000000E+00 0.  1.
          1   -1    0    0  501    0  0.00000000000E+00 -0.00000000000E+00 -0.32829542928E+04  0.32829542928E+04  0.00000000000E+00 0. -1.
         23    2    1    2    0    0  0.21797876140E+04 -0.22127607683E+04 -0.81773331278E+01  0.31074777747E+04  0.92558041908E+02 0.  0.
         13    1    3    3    0    0  0.91282463306E+03 -0.95690789970E+03 -0.44016999615E+02  0.13232003006E+04  0.00000000000E+00 0. -1.
        -13    1    3    3    0    0  0.12669629810E+04 -0.12558528686E+04  0.35839666487E+02  0.17842774741E+04  0.00000000000E+00 0.  1.
         22    1    1    2    0    0 -0.21797876140E+04  0.22127607683E+04 -0.32699985891E+03  0.31232536189E+04  0.00000000000E+00 0. -1.
<mgrwt>
<rscale>  0 0.62217096E+04</rscale>
<asrwt>0</asrwt>
<pdfrwt beam="1">  1        1 0.50506989E+00 0.62217096E+04</pdfrwt>
<pdfrwt beam="2">  1       -1 0.45350417E+00 0.62217096E+04</pdfrwt>
<totfact> 0.74297156E-04</totfact>
</mgrwt>
</event>
<event>
 6    1  0.9562506E-007  0.1481410E+04  0.7818608E-02  0.8896910E-01
         -2   -1    0    0    0  501 -0.00000000000E+00  0.00000000000E+00  0.11922588775E+04  0.11922588775E+04  0.00000000000E+00 0.  1.
          2   -1    0    0  501    0  0.00000000000E+00 -0.00000000000E+00 -0.46017174997E+03  0.46017174997E+03  0.00000000000E+00 0. -1.
         23    2    1    2    0    0 -0.76967321983E+02  0.47989541998E+03  0.98652867154E+03  0.11038286934E+04  0.94738491897E+02 0.  0.
         13    1    3    3    0    0 -0.17684042260E+02  0.20450914265E+03  0.51727482676E+03  0.55651591278E+03  0.00000000000E+00 0.  1.
        -13    1    3    3    0    0 -0.59283279723E+02  0.27538627733E+03  0.46925384478E+03  0.54731278063E+03  0.00000000000E+00 0. -1.
         22    1    1    2    0    0  0.76967321983E+02 -0.47989541998E+03 -0.25444154399E+03  0.54860193408E+03  0.00000000000E+00 0. -1.
<mgrwt>
<rscale>  0 0.14814099E+04</rscale>
<asrwt>0</asrwt>
<pdfrwt beam="1">  1        2 0.70795654E-01 0.14814099E+04</pdfrwt>
<pdfrwt beam="2">  1       -2 0.18342444E+00 0.14814099E+04</pdfrwt>
<totfact> 0.11251955E+01</totfact>
</mgrwt>
</event>
<event>
 6    1  0.9562506E-007  0.5220486E+04  0.7818608E-02  0.7795367E-01
          2   -1    0    0  501    0  0.00000000000E+00  0.00000000000E+00  0.26911887270E+04  0.26911887270E+04  0.00000000000E+00 0. -1.
         -2   -1    0    0    0  501 -0.00000000000E+00 -0.00000000000E+00 -0.25317318298E+04  0.25317318298E+04  0.00000000000E+00 0.  1.
         23    2    1    2    0    0  0.15046042269E+04 -0.59616183805E+03  0.21276535452E+04  0.26747759648E+04  0.90961732061E+02 0.  0.
         13    1    3    3    0    0  0.13865547829E+04 -0.57385427935E+03  0.19584548369E+04  0.24672633115E+04  0.00000000000E+00 0.  1.
        -13    1    3    3    0    0  0.11804944395E+03 -0.22307558701E+02  0.16919870828E+03  0.20751265329E+03  0.00000000000E+00 0. -1.
         22    1    1    2    0    0 -0.15046042269E+04  0.59616183805E+03 -0.19681966481E+04  0.25481445921E+04  0.00000000000E+00 0.  1.
<mgrwt>
<rscale>  0 0.52204859E+04</rscale>
<asrwt>0</asrwt>
<pdfrwt beam="1">  1        2 0.41402904E+00 0.52204859E+04</pdfrwt>
<pdfrwt beam="2">  1       -2 0.38949720E+00 0.52204859E+04</pdfrwt>
<totfact> 0.16719543E-02</totfact>
</mgrwt>
</event>
<event>
 6    1  0.9562506E-007  0.3622376E+04  0.7818608E-02  0.8085385E-01
          2   -1    0    0  501    0  0.00000000000E+00  0.00000000000E+00  0.29545444589E+04  0.29545444589E+04  0.00000000000E+00 0. -1.
         -2   -1    0    0    0  501 -0.00000000000E+00 -0.00000000000E+00 -0.11102900606E+04  0.11102900606E+04  0.00000000000E+00 0.  1.
         23    2    1    2    0    0 -0.12111285097E+04 -0.14422137584E+03  0.24234558326E+04  0.27146099553E+04  0.91306980777E+02 0.  0.
         11    1    3    3    0    0 -0.25129774721E+03 -0.18664700091E+01  0.44654022183E+03  0.51239848865E+03  0.00000000000E+00 0. -1.
        -11    1    3    3    0    0 -0.95983076245E+03 -0.14235490583E+03  0.19769156107E+04  0.22022114666E+04  0.00000000000E+00 0.  1.
         22    1    1    2    0    0  0.12111285097E+04  0.14422137584E+03 -0.57920143429E+03  0.13502245642E+04  0.00000000000E+00 0.  1.
<mgrwt>
<rscale>  0 0.36223757E+04</rscale>
<asrwt>0</asrwt>
<pdfrwt beam="1">  1        2 0.45454530E+00 0.36223757E+04</pdfrwt>
<pdfrwt beam="2">  1       -2 0.17081386E+00 0.36223757E+04</pdfrwt>
<totfact> 0.31784148E-01</totfact>
</mgrwt>
</event>
<event>
 6    1  0.9562506E-007  0.5532761E+04  0.7818608E-02  0.7751197E-01
         -1   -1    0    0    0  501 -0.00000000000E+00  0.00000000000E+00  0.22251496123E+04  0.22251496123E+04  0.00000000000E+00 0.  1.
          1   -1    0    0  501    0  0.00000000000E+00 -0.00000000000E+00 -0.34392562694E+04  0.34392562694E+04  0.00000000000E+00 0. -1.
         23    2    1    2    0    0  0.19384660110E+04 -0.11939029350E+04 -0.22148547515E+04  0.31775300420E+04  0.89782533619E+02 0.  0.
         11    1    3    3    0    0  0.37575758110E+03 -0.24009021485E+03 -0.38616077979E+03  0.58987898663E+03  0.00000000000E+00 0. -1.
        -11    1    3    3    0    0  0.15627084299E+04 -0.95381272010E+03 -0.18286939717E+04  0.25876510553E+04  0.00000000000E+00 0.  1.
         22    1    1    2    0    0 -0.19384660110E+04  0.11939029350E+04  0.10007480943E+04  0.24868758397E+04  0.00000000000E+00 0.  1.
<mgrwt>
<rscale>  0 0.55327605E+04</rscale>
<asrwt>0</asrwt>
<pdfrwt beam="1">  1        1 0.52911635E+00 0.55327605E+04</pdfrwt>
<pdfrwt beam="2">  1       -1 0.34233071E+00 0.55327605E+04</pdfrwt>
<totfact> 0.33693599E-03</totfact>
</mgrwt>
</event>
<event>
 6    1  0.9562506E-007  0.5154955E+03  0.7818608E-02  0.1009812E+00
          1   -1    0    0  501    0  0.00000000000E+00  0.00000000000E+00  0.36841599342E+03  0.36841599342E+03  0.00000000000E+00 0. -1.
         -1   -1    0    0    0  501 -0.00000000000E+00 -0.00000000000E+00 -0.18032308487E+03  0.18032308487E+03  0.00000000000E+00 0.  1.
         23    2    1    2    0    0 -0.96721759745E+02 -0.48463517673E+02  0.33650199640E+03  0.36508432417E+03  0.91373731581E+02 0.  0.
         11    1    3    3    0    0 -0.33509408946E+02  0.25293371556E+02  0.13523678166E+03  0.14160375082E+03  0.00000000000E+00 0. -1.
        -11    1    3    3    0    0 -0.63212350799E+02 -0.73756889229E+02  0.20126521474E+03  0.22348057335E+03  0.00000000000E+00 0.  1.
         22    1    1    2    0    0  0.96721759745E+02  0.48463517673E+02 -0.14840908785E+03  0.18365475412E+03  0.00000000000E+00 0.  1.
<mgrwt>
<rscale>  0 0.51549552E+03</rscale>
<asrwt>0</asrwt>
<pdfrwt beam="1">  1        1 0.56679383E-01 0.51549552E+03</pdfrwt>
<pdfrwt beam="2">  1       -1 0.27742013E-01 0.51549552E+03</pdfrwt>
<totfact> 0.78768770E+02</totfact>
</mgrwt>
</event>
<event>
 6    1  0.9562506E-007  0.1946760E+04  0.7818608E-02  0.8631925E-01
         -2   -1    0    0    0  501 -0.00000000000E+00  0.00000000000E+00  0.11004933676E+04  0.11004933676E+04  0.00000000000E+00 0.  1.
          2   -1    0    0  501    0  0.00000000000E+00 -0.00000000000E+00 -0.86094856118E+03  0.86094856118E+03  0.00000000000E+00 0. -1.
         23    2    1    2    0    0  0.25001555288E+02  0.31935030160E+03  0.10442195600E+04  0.10953523538E+04  0.82417210881E+02 0.  0.
         13    1    3    3    0    0 -0.15858254499E+02  0.13871439805E+03  0.55381655576E+03  0.57114441772E+03  0.00000000000E+00 0. -1.
        -13    1    3    3    0    0  0.40859809787E+02  0.18063590355E+03  0.49040300425E+03  0.52420793611E+03  0.00000000000E+00 0.  1.
         22    1    1    2    0    0 -0.25001555288E+02 -0.31935030160E+03 -0.80467475355E+03  0.86608957498E+03  0.00000000000E+00 0. -1.
<mgrwt>
<rscale>  0 0.19467595E+04</rscale>
<asrwt>0</asrwt>
<pdfrwt beam="1">  1        2 0.13245362E+00 0.19467595E+04</pdfrwt>
<pdfrwt beam="2">  1       -2 0.16930667E+00 0.19467595E+04</pdfrwt>
<totfact> 0.62704393E+00</totfact>
</mgrwt>
</event>
<event>
 6    1  0.9562506E-007  0.2618125E+04  0.7818608E-02  0.8362071E-01
          1   -1    0    0  501    0  0.00000000000E+00  0.00000000000E+00  0.15984208613E+04  0.15984208613E+04  0.00000000000E+00 0. -1.
         -1   -1    0    0    0  501 -0.00000000000E+00 -0.00000000000E+00 -0.10720857317E+04  0.10720857317E+04  0.00000000000E+00 0.  1.
         23    2    1    2    0    0  0.26079028724E+03 -0.99119029406E+03  0.10913945098E+04  0.15001383278E+04  0.93825655129E+02 0.  0.
         11    1    3    3    0    0  0.18060059365E+03 -0.66112490117E+03  0.79195316235E+03  0.10473263678E+04  0.00000000000E+00 0. -1.
        -11    1    3    3    0    0  0.80189693589E+02 -0.33006539289E+03  0.29944134748E+03  0.45281196001E+03  0.00000000000E+00 0.  1.
         22    1    1    2    0    0 -0.26079028724E+03  0.99119029406E+03 -0.56505938029E+03  0.11703682652E+04  0.00000000000E+00 0.  1.
<mgrwt>
<rscale>  0 0.26181247E+04</rscale>
<asrwt>0</asrwt>
<pdfrwt beam="1">  1        1 0.24591090E+00 0.26181247E+04</pdfrwt>
<pdfrwt beam="2">  1       -1 0.16493627E+00 0.26181247E+04</pdfrwt>
<totfact> 0.13197726E+00</totfact>
</mgrwt>
</event>
<event>
 6    1  0.9562506E-007  0.2233570E+04  0.7818608E-02  0.8504584E-01
         -2   -1    0    0    0  501 -0.00000000000E+00  0.00000000000E+00  0.37560535273E+03  0.37560535273E+03  0.00000000000E+00 0.  1.
          2   -1    0    0  501    0  0.00000000000E+00 -0.00000000000E+00 -0.33205287740E+04  0.33205287740E+04  0.00000000000E+00 0. -1.
         23    2    1    2    0    0  0.10978612229E+04  0.55947240929E+02 -0.17853848859E+04  0.20983359625E+04  0.83577881512E+02 0.  0.
         11    1    3    3    0    0  0.28668259773E+03  0.49813667653E+02 -0.45077074552E+03  0.53652826425E+03  0.00000000000E+00 0.  1.
        -11    1    3    3    0    0  0.81117862519E+03  0.61335732763E+01 -0.13346141404E+04  0.15618076983E+04  0.00000000000E+00 0. -1.
         22    1    1    2    0    0 -0.10978612229E+04 -0.55947240929E+02 -0.11595385354E+04  0.15977981643E+04  0.00000000000E+00 0.  1.
<mgrwt>
<rscale>  0 0.22335697E+04</rscale>
<asrwt>0</asrwt>
<pdfrwt beam="1">  1        2 0.51085059E+00 0.22335697E+04</pdfrwt>
<pdfrwt beam="2">  1       -2 0.57785437E-01 0.22335697E+04</pdfrwt>
<totfact> 0.27643857E+00</totfact>
</mgrwt>
</event>
<event>
 6    1  0.9562506E-007  0.2077508E+04  0.7818608E-02  0.8571216E-01
          2   -1    0    0  501    0  0.00000000000E+00  0.00000000000E+00  0.26392000484E+04  0.26392000484E+04  0.00000000000E+00 0. -1.
         -2   -1    0    0    0  501 -0.00000000000E+00 -0.00000000000E+00 -0.40883980591E+03  0.40883980591E+03  0.00000000000E+00 0.  1.
         23    2    1    2    0    0 -0.13877339994E+03 -0.70029191898E+03  0.14405323147E+02  0.71992408551E+03  0.91740652082E+02 0.  0.
         13    1    3    3    0    0 -0.77116192575E+02 -0.19023329421E+03  0.18848132291E+02  0.20613312561E+03  0.00000000000E+00 0. -1.
        -13    1    3    3    0    0 -0.61657207370E+02 -0.51005862477E+03 -0.44428091440E+01  0.51379095991E+03  0.00000000000E+00 0.  1.
         22    1    1    2    0    0  0.13877339994E+03  0.70029191898E+03  0.22159549194E+04  0.23281157688E+04  0.00000000000E+00 0. -1.
<mgrwt>
<rscale>  0 0.20775082E+04</rscale>
<asrwt>0</asrwt>
<pdfrwt beam="1">  1        2 0.40603077E+00 0.20775082E+04</pdfrwt>
<pdfrwt beam="2">  1       -2 0.62898433E-01 0.20775082E+04</pdfrwt>
<totfact> 0.62451689E+00</totfact>
</mgrwt>
</event>
<event>
 6    1  0.9562506E-007  0.3292060E+04  0.7818608E-02  0.8164919E-01
          1   -1    0    0  501    0  0.00000000000E+00  0.00000000000E+00  0.14995714239E+04  0.14995714239E+04  0.00000000000E+00 0. -1.
         -1   -1    0    0    0  501 -0.00000000000E+00 -0.00000000000E+00 -0.18067929876E+04  0.18067929876E+04  0.00000000000E+00 0.  1.
         23    2    1    2    0    0 -0.87403617339E+03 -0.15677073977E+03 -0.15442311223E+04  0.17836336588E+04  0.90459782964E+02 0.  0.
         13    1    3    3    0    0 -0.38417696655E+03 -0.29381453094E+02 -0.71213399983E+03  0.80968515185E+03  0.00000000000E+00 0. -1.
        -13    1    3    3    0    0 -0.48985920684E+03 -0.12738928668E+03 -0.83209712249E+03  0.97394850692E+03  0.00000000000E+00 0.  1.
         22    1    1    2    0    0  0.87403617339E+03  0.15677073977E+03  0.12370095587E+04  0.15227307528E+04  0.00000000000E+00 0. -1.
<mgrwt>
<rscale>  0 0.32920602E+04</rscale>
<asrwt>0</asrwt>
<pdfrwt beam="1">  1        1 0.23070330E+00 0.32920602E+04</pdfrwt>
<pdfrwt beam="2">  1       -1 0.27796815E+00 0.32920602E+04</pdfrwt>
<totfact> 0.24929293E-01</totfact>
</mgrwt>
</event>
<event>
 6    1  0.9562506E-007  0.3069985E+04  0.7818608E-02  0.8224024E-01
         -2   -1    0    0    0  501 -0.00000000000E+00  0.00000000000E+00  0.12677951494E+04  0.12677951494E+04  0.00000000000E+00 0.  1.
          2   -1    0    0  501    0  0.00000000000E+00 -0.00000000000E+00 -0.18585035965E+04  0.18585035965E+04  0.00000000000E+00 0. -1.
         23    2    1    2    0    0 -0.31424490233E+03 -0.14281746871E+04  0.17504848639E+03  0.14755969325E+04  0.91167642759E+02 0.  0.
         11    1    3    3    0    0 -0.25628770022E+03 -0.10071058445E+04  0.10027338109E+03  0.10440308033E+04  0.00000000000E+00 0.  1.
        -11    1    3    3    0    0 -0.57957202111E+02 -0.42106884261E+03  0.74775105294E+02  0.43156612919E+03  0.00000000000E+00 0. -1.
         22    1    1    2    0    0  0.31424490233E+03  0.14281746871E+04 -0.76575693342E+03  0.16507018134E+04  0.00000000000E+00 0. -1.
<mgrwt>
<rscale>  0 0.30699849E+04</rscale>
<asrwt>0</asrwt>
<pdfrwt beam="1">  1        2 0.28592363E+00 0.30699849E+04</pdfrwt>
<pdfrwt beam="2">  1       -2 0.19504541E+00 0.30699849E+04</pdfrwt>
<totfact> 0.97749299E-01</totfact>
</mgrwt>
</event>
<event>
 6    1  0.9562506E-007  0.2114302E+04  0.7818608E-02  0.8554969E-01
          2   -1    0    0  501    0  0.00000000000E+00  0.00000000000E+00  0.10642458754E+04  0.10642458754E+04  0.00000000000E+00 0. -1.
         -2   -1    0    0    0  501 -0.00000000000E+00 -0.00000000000E+00 -0.10501035492E+04  0.10501035492E+04  0.00000000000E+00 0.  1.
         23    2    1    2    0    0 -0.35928752960E+03  0.94937542904E+03  0.29526337166E+03  0.10610544629E+04  0.90856372058E+02 0.  0.
         11    1    3    3    0    0 -0.14409963852E+03  0.48627208680E+03  0.17405971153E+03  0.53621080873E+03  0.00000000000E+00 0. -1.
        -11    1    3    3    0    0 -0.21518789108E+03  0.46310334225E+03  0.12120366012E+03  0.52484365414E+03  0.00000000000E+00 0.  1.
         22    1    1    2    0    0  0.35928752960E+03 -0.94937542904E+03 -0.28112104548E+03  0.10532949617E+04  0.00000000000E+00 0.  1.
<mgrwt>
<rscale>  0 0.21143021E+04</rscale>
<asrwt>0</asrwt>
<pdfrwt beam="1">  1        2 0.16373013E+00 0.21143021E+04</pdfrwt>
<pdfrwt beam="2">  1       -2 0.16155439E+00 0.21143021E+04</pdfrwt>
<totfact> 0.51778617E+00</totfact>
</mgrwt>
</event>
<event>
 6    1  0.9562506E-007  0.7440417E+03  0.7818608E-02  0.9644745E-01
          1   -1    0    0  501    0  0.00000000000E+00  0.00000000000E+00  0.12048405238E+04  0.12048405238E+04  0.00000000000E+00 0. -1.
         -1   -1    0    0    0  501 -0.00000000000E+00 -0.00000000000E+00 -0.11486955460E+03  0.11486955460E+03  0.00000000000E+00 0.  1.
         23    2    1    2    0    0 -0.16385956937E+03 -0.25700498442E+03  0.91384141630E+03  0.96768289213E+03  0.91665288340E+02 0.  0.
         11    1    3    3    0    0  0.61505897407E+01 -0.48142422738E+02  0.12208339347E+03  0.13137685330E+03  0.00000000000E+00 0.  1.
        -11    1    3    3    0    0 -0.17001015911E+03 -0.20886256168E+03  0.79175802283E+03  0.83630603884E+03  0.00000000000E+00 0. -1.
         22    1    1    2    0    0  0.16385956937E+03  0.25700498442E+03  0.17612955294E+03  0.35202718632E+03  0.00000000000E+00 0.  1.
<mgrwt>
<rscale>  0 0.74404165E+03</rscale>
<asrwt>0</asrwt>
<pdfrwt beam="1">  1        1 0.18536007E+00 0.74404165E+03</pdfrwt>
<pdfrwt beam="2">  1       -1 0.17672240E-01 0.74404165E+03</pdfrwt>
<totfact> 0.27001083E+02</totfact>
</mgrwt>
</event>
<event>
 6    1  0.9562506E-007  0.5641097E+04  0.7818608E-02  0.7736567E-01
          2   -1    0    0  501    0  0.00000000000E+00  0.00000000000E+00  0.41194954640E+04  0.41194954640E+04  0.00000000000E+00 0. -1.
         -2   -1    0    0    0  501 -0.00000000000E+00 -0.00000000000E+00 -0.19311818426E+04  0.19311818426E+04  0.00000000000E+00 0.  1.
         23    2    1    2    0    0 -0.67771742315E+03 -0.16922994940E+04  0.34019533654E+04  0.38606773268E+04  0.91456210085E+02 0.  0.
         11    1    3    3    0    0 -0.61163735010E+02 -0.12616336561E+03  0.31185148143E+03  0.34192037636E+03  0.00000000000E+00 0. -1.
        -11    1    3    3    0    0 -0.61655368814E+03 -0.15661361284E+04  0.30901018840E+04  0.35187569504E+04  0.00000000000E+00 0.  1.
         22    1    1    2    0    0  0.67771742315E+03  0.16922994940E+04 -0.12136397441E+04  0.21899999798E+04  0.00000000000E+00 0.  1.
<mgrwt>
<rscale>  0 0.56410974E+04</rscale>
<asrwt>0</asrwt>
<pdfrwt beam="1">  1        2 0.63376853E+00 0.56410974E+04</pdfrwt>
<pdfrwt beam="2">  1       -2 0.29710490E+00 0.56410974E+04</pdfrwt>
<totfact> 0.62045964E-03</totfact>
</mgrwt>
</event>
<event>
 6    1  0.9562506E-007  0.1900764E+04  0.7818608E-02  0.8654476E-01
         -2   -1    0    0    0  501 -0.00000000000E+00  0.00000000000E+00  0.70667134614E+03  0.70667134614E+03  0.00000000000E+00 0.  1.
          2   -1    0    0  501    0  0.00000000000E+00 -0.00000000000E+00 -0.12781410613E+04  0.12781410613E+04  0.00000000000E+00 0. -1.
         23    2    1    2    0    0  0.20006534702E+03 -0.46617247604E+03  0.55026826358E+03  0.75369949084E+03  0.89021570938E+02 0.  0.
         11    1    3    3    0    0  0.14125931422E+02 -0.27591072676E+02  0.82086587332E+01  0.32065422314E+02  0.00000000000E+00 0.  1.
        -11    1    3    3    0    0  0.18593941560E+03 -0.43858140336E+03  0.54205960485E+03  0.72163406852E+03  0.00000000000E+00 0. -1.
         22    1    1    2    0    0 -0.20006534702E+03  0.46617247604E+03 -0.11217379788E+04  0.12311129166E+04  0.00000000000E+00 0. -1.
<mgrwt>
<rscale>  0 0.19007637E+04</rscale>
<asrwt>0</asrwt>
<pdfrwt beam="1">  1        2 0.19663708E+00 0.19007637E+04</pdfrwt>
<pdfrwt beam="2">  1       -2 0.10871867E+00 0.19007637E+04</pdfrwt>
<totfact> 0.10779306E+01</totfact>
</mgrwt>
</event>
<event>
 6    1  0.9562506E-007  0.9744636E+03  0.7818608E-02  0.9337005E-01
         -1   -1    0    0    0  501 -0.00000000000E+00  0.00000000000E+00  0.19191303707E+03  0.19191303707E+03  0.00000000000E+00 0.  1.
          1   -1    0    0  501    0  0.00000000000E+00 -0.00000000000E+00 -0.12369917825E+04  0.12369917825E+04  0.00000000000E+00 0. -1.
         23    2    1    2    0    0 -0.39528100622E+03  0.27602643339E+03 -0.48153219449E+03  0.68726988181E+03  0.89604521638E+02 0.  0.
         13    1    3    3    0    0 -0.26749365073E+03  0.22739271536E+03 -0.31391979243E+03  0.47096277587E+03  0.00000000000E+00 0. -1.
        -13    1    3    3    0    0 -0.12778735549E+03  0.48633718035E+02 -0.16761240206E+03  0.21630710593E+03  0.00000000000E+00 0.  1.
         22    1    1    2    0    0  0.39528100622E+03 -0.27602643339E+03 -0.56354655092E+03  0.74163493773E+03  0.00000000000E+00 0. -1.
<mgrwt>
<rscale>  0 0.97446365E+03</rscale>
<asrwt>0</asrwt>
<pdfrwt beam="1">  1        1 0.19030643E+00 0.97446365E+03</pdfrwt>
<pdfrwt beam="2">  1       -1 0.29525082E-01 0.97446365E+03</pdfrwt>
<totfact> 0.10569775E+02</totfact>
</mgrwt>
</event>
<event>
 6    1  0.9562506E-007  0.1156247E+04  0.7818608E-02  0.9152039E-01
         -1   -1    0    0    0  501 -0.00000000000E+00  0.00000000000E+00  0.48050922687E+03  0.48050922687E+03  0.00000000000E+00 0.  1.
          1   -1    0    0  501    0  0.00000000000E+00 -0.00000000000E+00 -0.69556814174E+03  0.69556814174E+03  0.00000000000E+00 0. -1.
         23    2    1    2    0    0 -0.21234942894E+03 -0.17907213071E+03 -0.61967480894E+03  0.68528909480E+03  0.92006340237E+02 0.  0.
         13    1    3    3    0    0 -0.18372651055E+03 -0.17550859419E+03 -0.48461977045E+03  0.54718828498E+03  0.00000000000E+00 0. -1.
        -13    1    3    3    0    0 -0.28622918397E+02 -0.35635365240E+01 -0.13505503849E+03  0.13810080981E+03  0.00000000000E+00 0.  1.
         22    1    1    2    0    0  0.21234942894E+03  0.17907213071E+03  0.40461589407E+03  0.49078827381E+03  0.00000000000E+00 0.  1.
<mgrwt>
<rscale>  0 0.11562472E+04</rscale>
<asrwt>0</asrwt>
<pdfrwt beam="1">  1        1 0.10701048E+00 0.11562472E+04</pdfrwt>
<pdfrwt beam="2">  1       -1 0.73924496E-01 0.11562472E+04</pdfrwt>
<totfact> 0.50345015E+01</totfact>
</mgrwt>
</event>
<event>
 6    1  0.9562506E-007  0.5305596E+04  0.7818608E-02  0.7783021E-01
         -1   -1    0    0    0  501 -0.00000000000E+00  0.00000000000E+00  0.45351855472E+04  0.45351855472E+04  0.00000000000E+00 0.  1.
          1   -1    0    0  501    0  0.00000000000E+00 -0.00000000000E+00 -0.15517195606E+04  0.15517195606E+04  0.00000000000E+00 0. -1.
         23    2    1    2    0    0  0.18026158566E+04  0.13391617512E+04  0.31108004885E+04  0.38376847546E+04  0.89255109495E+02 0.  0.
         11    1    3    3    0    0  0.16658918678E+04  0.12632083076E+04  0.28775702075E+04  0.35568667732E+04  0.00000000000E+00 0.  1.
        -11    1    3    3    0    0  0.13672398875E+03  0.75953443616E+02  0.23323028097E+03  0.28081798136E+03  0.00000000000E+00 0. -1.
         22    1    1    2    0    0 -0.18026158566E+04 -0.13391617512E+04 -0.12733450185E+03  0.22492203533E+04  0.00000000000E+00 0. -1.
<mgrwt>
<rscale>  0 0.53055956E+04</rscale>
<asrwt>0</asrwt>
<pdfrwt beam="1">  1        1 0.23872609E+00 0.53055956E+04</pdfrwt>
<pdfrwt beam="2">  1       -1 0.69772085E+00 0.53055956E+04</pdfrwt>
<totfact> 0.87606971E-04</totfact>
</mgrwt>
</event>
<event>
 6    1  0.9562506E-007  0.1449253E+04  0.7818608E-02  0.8918918E-01
         -4   -1    0    0    0  501 -0.00000000000E+00  0.00000000000E+00  0.38548647776E+03  0.38548647776E+03  0.00000000000E+00 0.  1.
          4   -1    0    0  501    0  0.00000000000E+00 -0.00000000000E+00 -0.13621323633E+04  0.13621323633E+04  0.00000000000E+00 0. -1.
         23    2    1    2    0    0 -0.68214906501E+03  0.23254398855E+03 -0.44658714882E+03  0.85298689557E+03  0.93501385152E+02 0.  0.
         11    1    3    3    0    0 -0.33419229927E+03  0.11618932720E+03 -0.16450183976E+03  0.39018624775E+03  0.00000000000E+00 0.  1.
        -11    1    3    3    0    0 -0.34795676574E+03  0.11635466135E+03 -0.28208530906E+03  0.46280064783E+03  0.00000000000E+00 0. -1.
         22    1    1    2    0    0  0.68214906501E+03 -0.23254398855E+03 -0.53005873672E+03  0.89463194548E+03  0.00000000000E+00 0.  1.
<mgrwt>
<rscale>  0 0.14492531E+04</rscale>
<asrwt>0</asrwt>
<pdfrwt beam="1">  1        4 0.20955882E+00 0.14492531E+04</pdfrwt>
<pdfrwt beam="2">  1       -4 0.59305613E-01 0.14492531E+04</pdfrwt>
<totfact> 0.59413571E-01</totfact>
</mgrwt>
</event>
<event>
 6    1  0.9562506E-007  0.5113078E+04  0.7818608E-02  0.7811297E-01
         -1   -1    0    0    0  501 -0.00000000000E+00  0.00000000000E+00  0.22957517760E+04  0.22957517760E+04  0.00000000000E+00 0.  1.
          1   -1    0    0  501    0  0.00000000000E+00 -0.00000000000E+00 -0.28469510507E+04  0.28469510507E+04  0.00000000000E+00 0. -1.
         23    2    1    2    0    0  0.61685954393E+03 -0.23904056747E+02 -0.27701194503E+04  0.28395107274E+04  0.90400781293E+02 0.  0.
         13    1    3    3    0    0  0.39146321627E+03  0.28013976793E+02 -0.17722059164E+04  0.18151424304E+04  0.00000000000E+00 0.  1.
        -13    1    3    3    0    0  0.22539632766E+03 -0.51918033540E+02 -0.99791353383E+03  0.10243682969E+04  0.00000000000E+00 0. -1.
         22    1    1    2    0    0 -0.61685954393E+03  0.23904056747E+02  0.22189201756E+04  0.23031920994E+04  0.00000000000E+00 0.  1.
<mgrwt>
<rscale>  0 0.51130785E+04</rscale>
<asrwt>0</asrwt>
<pdfrwt beam="1">  1        1 0.43799247E+00 0.51130785E+04</pdfrwt>
<pdfrwt beam="2">  1       -1 0.35319258E+00 0.51130785E+04</pdfrwt>
<totfact> 0.81684007E-03</totfact>
</mgrwt>
</event>
<event>
 6    1  0.9562506E-007  0.1259573E+04  0.7818608E-02  0.9062253E-01
         -1   -1    0    0    0  501 -0.00000000000E+00  0.00000000000E+00  0.24984097209E+03  0.24984097209E+03  0.00000000000E+00 0.  1.
          1   -1    0    0  501    0  0.00000000000E+00 -0.00000000000E+00 -0.15875340051E+04  0.15875340051E+04  0.00000000000E+00 0. -1.
         23    2    1    2    0    0 -0.41632939564E+03  0.55479921345E+02 -0.13503026696E+04  0.14171759883E+04  0.93071450101E+02 0.  0.
         11    1    3    3    0    0 -0.15892955580E+03  0.52428576560E+02 -0.42588506581E+03  0.45758654769E+03  0.00000000000E+00 0.  1.
        -11    1    3    3    0    0 -0.25739983984E+03  0.30513447848E+01 -0.92441760383E+03  0.95958944061E+03  0.00000000000E+00 0. -1.
         22    1    1    2    0    0  0.41632939564E+03 -0.55479921345E+02  0.12609636614E+02  0.42019898891E+03  0.00000000000E+00 0.  1.
<mgrwt>
<rscale>  0 0.12595730E+04</rscale>
<asrwt>0</asrwt>
<pdfrwt beam="1">  1        1 0.24423599E+00 0.12595730E+04</pdfrwt>
<pdfrwt beam="2">  1       -1 0.38437074E-01 0.12595730E+04</pdfrwt>
<totfact> 0.36740287E+01</totfact>
</mgrwt>
</event>
<event>
 6    1  0.9562506E-007  0.1942207E+04  0.7818608E-02  0.8634128E-01
          3   -1    0    0  501    0  0.00000000000E+00  0.00000000000E+00  0.76072260113E+03  0.76072260113E+03  0.00000000000E+00 0. -1.
         -3   -1    0    0    0  501 -0.00000000000E+00 -0.00000000000E+00 -0.12396663769E+04  0.12396663769E+04  0.00000000000E+00 0.  1.
         23    2    1    2    0    0 -0.79584111163E+03 -0.55193842349E+03 -0.20920490146E+03  0.99502428871E+03  0.91145740683E+02 0.  0.
         13    1    3    3    0    0 -0.15875538768E+03 -0.14657292576E+03 -0.23021446718E+02  0.21729446080E+03  0.00000000000E+00 0. -1.
        -13    1    3    3    0    0 -0.63708572394E+03 -0.40536549773E+03 -0.18618345474E+03  0.77772982791E+03  0.00000000000E+00 0.  1.
         22    1    1    2    0    0  0.79584111163E+03  0.55193842349E+03 -0.26973887435E+03  0.10053646894E+04  0.00000000000E+00 0.  1.
<mgrwt>
<rscale>  0 0.19422072E+04</rscale>
<asrwt>0</asrwt>
<pdfrwt beam="1">  1        3 0.11703425E+00 0.19422072E+04</pdfrwt>
<pdfrwt beam="2">  1       -3 0.19071790E+00 0.19422072E+04</pdfrwt>
<totfact> 0.24665267E-01</totfact>
</mgrwt>
</event>
<event>
 6    1  0.9562506E-007  0.3380107E+04  0.7818608E-02  0.8142806E-01
          2   -1    0    0  501    0  0.00000000000E+00  0.00000000000E+00  0.25546596452E+04  0.25546596452E+04  0.00000000000E+00 0. -1.
         -2   -1    0    0    0  501 -0.00000000000E+00 -0.00000000000E+00 -0.11180667602E+04  0.11180667602E+04  0.00000000000E+00 0.  1.
         23    2    1    2    0    0 -0.59676797459E+03  0.98969438391E+03  0.20568573585E+04  0.23611033627E+04  0.92303343936E+02 0.  0.
         11    1    3    3    0    0 -0.21739951618E+03  0.27999892812E+03  0.61121246552E+03  0.70657103492E+03  0.00000000000E+00 0.  1.
        -11    1    3    3    0    0 -0.37936845841E+03  0.70969545579E+03  0.14456448930E+04  0.16545323278E+04  0.00000000000E+00 0. -1.
         22    1    1    2    0    0  0.59676797459E+03 -0.98969438391E+03 -0.62026447343E+03  0.13116230427E+04  0.00000000000E+00 0.  1.
<mgrwt>
<rscale>  0 0.33801065E+04</rscale>
<asrwt>0</asrwt>
<pdfrwt beam="1">  1        2 0.39302456E+00 0.33801065E+04</pdfrwt>
<pdfrwt beam="2">  1       -2 0.17201027E+00 0.33801065E+04</pdfrwt>
<totfact> 0.55356276E-01</totfact>
</mgrwt>
</event>
<event>
 6    1  0.9562506E-007  0.1669114E+04  0.7818608E-02  0.8779179E-01
         -1   -1    0    0    0  501 -0.00000000000E+00  0.00000000000E+00  0.12131874247E+04  0.12131874247E+04  0.00000000000E+00 0.  1.
          1   -1    0    0  501    0  0.00000000000E+00 -0.00000000000E+00 -0.57409532551E+03  0.57409532551E+03  0.00000000000E+00 0. -1.
         23    2    1    2    0    0  0.64095101264E+03  0.38937035541E+03 -0.66110467108E+02  0.75784691746E+03  0.86797938727E+02 0.  0.
         11    1    3    3    0    0  0.45316646573E+03  0.23615396021E+03 -0.67768186397E+02  0.51548139217E+03  0.00000000000E+00 0. -1.
        -11    1    3    3    0    0  0.18778454690E+03  0.15321639520E+03  0.16577192887E+01  0.24236552529E+03  0.00000000000E+00 0.  1.
         22    1    1    2    0    0 -0.64095101264E+03 -0.38937035541E+03  0.70520256635E+03  0.10294358328E+04  0.00000000000E+00 0.  1.
<mgrwt>
<rscale>  0 0.16691138E+04</rscale>
<asrwt>0</asrwt>
<pdfrwt beam="1">  1        1 0.88322358E-01 0.16691138E+04</pdfrwt>
<pdfrwt beam="2">  1       -1 0.18664422E+00 0.16691138E+04</pdfrwt>
<totfact> 0.64959387E+00</totfact>
</mgrwt>
</event>
<event>
 6    1  0.9562506E-007  0.8198814E+03  0.7818608E-02  0.9531677E-01
         -1   -1    0    0    0  501 -0.00000000000E+00  0.00000000000E+00  0.35768865015E+03  0.35768865015E+03  0.00000000000E+00 0.  1.
          1   -1    0    0  501    0  0.00000000000E+00 -0.00000000000E+00 -0.46982587128E+03  0.46982587128E+03  0.00000000000E+00 0. -1.
         23    2    1    2    0    0  0.31776481098E+03 -0.40476655077E+02  0.19312751874E+03  0.38502226600E+03  0.91274706861E+02 0.  0.
         11    1    3    3    0    0  0.16928546880E+03 -0.27359116567E+02  0.15503281252E+03  0.23117366667E+03  0.00000000000E+00 0.  1.
        -11    1    3    3    0    0  0.14847934218E+03 -0.13117538510E+02  0.38094706226E+02  0.15384859932E+03  0.00000000000E+00 0. -1.
         22    1    1    2    0    0 -0.31776481098E+03  0.40476655077E+02 -0.30526473987E+03  0.44249225543E+03  0.00000000000E+00 0. -1.
<mgrwt>
<rscale>  0 0.81988141E+03</rscale>
<asrwt>0</asrwt>
<pdfrwt beam="1">  1        1 0.72280903E-01 0.81988141E+03</pdfrwt>
<pdfrwt beam="2">  1       -1 0.55029023E-01 0.81988141E+03</pdfrwt>
<totfact> 0.16295617E+02</totfact>
</mgrwt>
</event>
<event>
 6    1  0.9562506E-007  0.3939245E+04  0.7818608E-02  0.8016916E-01
         -2   -1    0    0    0  501 -0.00000000000E+00  0.00000000000E+00  0.20445892904E+04  0.20445892904E+04  0.00000000000E+00 0.  1.
          2   -1    0    0  501    0  0.00000000000E+00 -0.00000000000E+00 -0.18974042658E+04  0.18974042658E+04  0.00000000000E+00 0. -1.
         23    2    1    2    0    0  0.80941023844E+03 -0.20570027154E+03 -0.17102270911E+04  0.19054677638E+04  0.92049767875E+02 0.  0.
         13    1    3    3    0    0  0.20364313696E+03 -0.39268504195E+02 -0.51521811103E+03  0.55539377435E+03  0.00000000000E+00 0. -1.
        -13    1    3    3    0    0  0.60576710148E+03 -0.16643176734E+03 -0.11950089801E+04  0.13500739894E+04  0.00000000000E+00 0.  1.
         22    1    1    2    0    0 -0.80941023844E+03  0.20570027154E+03  0.18574121156E+04  0.20365257924E+04  0.00000000000E+00 0.  1.
<mgrwt>
<rscale>  0 0.39392448E+04</rscale>
<asrwt>0</asrwt>
<pdfrwt beam="1">  1        2 0.29190835E+00 0.39392448E+04</pdfrwt>
<pdfrwt beam="2">  1       -2 0.31455220E+00 0.39392448E+04</pdfrwt>
<totfact> 0.15624616E-01</totfact>
</mgrwt>
</event>
<event>
 6    1  0.9562506E-007  0.2796737E+04  0.7818608E-02  0.8304282E-01
         -2   -1    0    0    0  501 -0.00000000000E+00  0.00000000000E+00  0.17919603694E+04  0.17919603694E+04  0.00000000000E+00 0.  1.
          2   -1    0    0  501    0  0.00000000000E+00 -0.00000000000E+00 -0.10912261509E+04  0.10912261509E+04  0.00000000000E+00 0. -1.
         23    2    1    2    0    0  0.11020677289E+04 -0.45420950687E+03 -0.40017833393E+03  0.12605750438E+04  0.89706114167E+02 0.  0.
         11    1    3    3    0    0  0.35264134896E+03 -0.15586967100E+03 -0.17285484981E+03  0.42252819366E+03  0.00000000000E+00 0. -1.
        -11    1    3    3    0    0  0.74942637997E+03 -0.29833983586E+03 -0.22732348413E+03  0.83804685018E+03  0.00000000000E+00 0.  1.
         22    1    1    2    0    0 -0.11020677289E+04  0.45420950687E+03  0.11009125525E+04  0.16226114764E+04  0.00000000000E+00 0.  1.
<mgrwt>
<rscale>  0 0.27967367E+04</rscale>
<asrwt>0</asrwt>
<pdfrwt beam="1">  1        2 0.16788095E+00 0.27967367E+04</pdfrwt>
<pdfrwt beam="2">  1       -2 0.27568621E+00 0.27967367E+04</pdfrwt>
<totfact> 0.85909540E-01</totfact>
</mgrwt>
</event>
<event>
 6    1  0.9562506E-007  0.8458529E+03  0.7818608E-02  0.9495920E-01
          2   -1    0    0  501    0  0.00000000000E+00  0.00000000000E+00  0.33737773301E+04  0.33737773301E+04  0.00000000000E+00 0. -1.
         -2   -1    0    0    0  501 -0.00000000000E+00 -0.00000000000E+00 -0.53016766671E+02  0.53016766671E+02  0.00000000000E+00 0.  1.
         23    2    1    2    0    0  0.12217452403E+03  0.38481604921E+03  0.21209387071E+04  0.21608626243E+04  0.89085777717E+02 0.  0.
         11    1    3    3    0    0  0.76130773215E+02  0.34247387083E+03  0.17855225334E+04  0.18196634206E+04  0.00000000000E+00 0. -1.
        -11    1    3    3    0    0  0.46043750820E+02  0.42342178383E+02  0.33541617364E+03  0.34119920369E+03  0.00000000000E+00 0.  1.
         22    1    1    2    0    0 -0.12217452403E+03 -0.38481604921E+03  0.11998218564E+04  0.12659314725E+04  0.00000000000E+00 0.  1.
<mgrwt>
<rscale>  0 0.84585286E+03</rscale>
<asrwt>0</asrwt>
<pdfrwt beam="1">  1        2 0.51904250E+00 0.84585286E+03</pdfrwt>
<pdfrwt beam="2">  1       -2 0.81564283E-02 0.84585286E+03</pdfrwt>
<totfact> 0.10020140E+02</totfact>
</mgrwt>
</event>
<event>
 6    1  0.9562506E-007  0.1939793E+04  0.7818608E-02  0.8635299E-01
         -1   -1    0    0    0  501 -0.00000000000E+00  0.00000000000E+00  0.29756745780E+03  0.29756745780E+03  0.00000000000E+00 0.  1.
          1   -1    0    0  501    0  0.00000000000E+00 -0.00000000000E+00 -0.31612974311E+04  0.31612974311E+04  0.00000000000E+00 0. -1.
         23    2    1    2    0    0 -0.49869773882E+03  0.65426993216E+03 -0.52610545529E+03  0.98070892811E+03  0.90743995739E+02 0.  0.
         13    1    3    3    0    0 -0.35619564692E+02  0.63509554629E+02 -0.20383124165E+02  0.75615399680E+02  0.00000000000E+00 0. -1.
        -13    1    3    3    0    0 -0.46307817413E+03  0.59076037753E+03 -0.50572233112E+03  0.90509352843E+03  0.00000000000E+00 0.  1.
         22    1    1    2    0    0  0.49869773882E+03 -0.65426993216E+03 -0.23376245180E+04  0.24781559608E+04  0.00000000000E+00 0. -1.
<mgrwt>
<rscale>  0 0.19397930E+04</rscale>
<asrwt>0</asrwt>
<pdfrwt beam="1">  1        1 0.48635342E+00 0.19397930E+04</pdfrwt>
<pdfrwt beam="2">  1       -1 0.45779611E-01 0.19397930E+04</pdfrwt>
<totfact> 0.20153809E+00</totfact>
</mgrwt>
</event>
<event>
 6    1  0.9562506E-007  0.2466217E+04  0.7818608E-02  0.8415121E-01
          2   -1    0    0  501    0  0.00000000000E+00  0.00000000000E+00  0.11023401675E+04  0.11023401675E+04  0.00000000000E+00 0. -1.
         -2   -1    0    0    0  501 -0.00000000000E+00 -0.00000000000E+00 -0.13793899628E+04  0.13793899628E+04  0.00000000000E+00 0.  1.
         23    2    1    2    0    0 -0.51627500100E+03 -0.14620604629E+01 -0.12637359178E+04  0.13681361654E+04  0.90697756058E+02 0.  0.
         11    1    3    3    0    0 -0.17156663760E+03 -0.32112630274E+02 -0.50181841594E+03  0.53130787189E+03  0.00000000000E+00 0. -1.
        -11    1    3    3    0    0 -0.34470836340E+03  0.30650569811E+02 -0.76191750182E+03  0.83682829350E+03  0.00000000000E+00 0.  1.
         22    1    1    2    0    0  0.51627500100E+03  0.14620604629E+01  0.98668612249E+03  0.11135939649E+04  0.00000000000E+00 0. -1.
<mgrwt>
<rscale>  0 0.24662173E+04</rscale>
<asrwt>0</asrwt>
<pdfrwt beam="1">  1        2 0.16959079E+00 0.24662173E+04</pdfrwt>
<pdfrwt beam="2">  1       -2 0.21221384E+00 0.24662173E+04</pdfrwt>
<totfact> 0.21517516E+00</totfact>
</mgrwt>
</event>
<event>
 6    1  0.9562506E-007  0.3395958E+04  0.7818608E-02  0.8138899E-01
         -2   -1    0    0    0  501 -0.00000000000E+00  0.00000000000E+00  0.12821679552E+04  0.12821679552E+04  0.00000000000E+00 0.  1.
          2   -1    0    0  501    0  0.00000000000E+00 -0.00000000000E+00 -0.22486390732E+04  0.22486390732E+04  0.00000000000E+00 0. -1.
         23    2    1    2    0    0 -0.88528184822E+03 -0.88556770881E+03  0.70710087935E+03  0.14406402055E+04  0.86593477773E+02 0.  0.
         11    1    3    3    0    0 -0.11254534106E+03 -0.14164889201E+03  0.12847072219E+03  0.22189093911E+03  0.00000000000E+00 0. -1.
        -11    1    3    3    0    0 -0.77273650716E+03 -0.74391881680E+03  0.57863015717E+03  0.12187492664E+04  0.00000000000E+00 0.  1.
         22    1    1    2    0    0  0.88528184822E+03  0.88556770881E+03 -0.16735719973E+04  0.20901668230E+04  0.00000000000E+00 0. -1.
<mgrwt>
<rscale>  0 0.33959582E+04</rscale>
<asrwt>0</asrwt>
<pdfrwt beam="1">  1        2 0.34594447E+00 0.33959582E+04</pdfrwt>
<pdfrwt beam="2">  1       -2 0.19725661E+00 0.33959582E+04</pdfrwt>
<totfact> 0.55703115E-01</totfact>
</mgrwt>
</event>
<event>
 6    1  0.9562506E-007  0.1483341E+04  0.7818608E-02  0.8895607E-01
          1   -1    0    0  501    0  0.00000000000E+00  0.00000000000E+00  0.20901246736E+04  0.20901246736E+04  0.00000000000E+00 0. -1.
         -1   -1    0    0    0  501 -0.00000000000E+00 -0.00000000000E+00 -0.26317799444E+03  0.26317799444E+03  0.00000000000E+00 0.  1.
         23    2    1    2    0    0  0.12919021770E+03  0.17192182026E+03  0.20383229252E+04  0.20517613906E+04  0.93366117913E+02 0.  0.
         11    1    3    3    0    0  0.26517935973E+02 -0.54287244790E+01  0.35045932143E+03  0.35150306962E+03  0.00000000000E+00 0. -1.
        -11    1    3    3    0    0  0.10267228173E+03  0.17735054474E+03  0.16878636037E+04  0.17002583210E+04  0.00000000000E+00 0.  1.
         22    1    1    2    0    0 -0.12919021770E+03 -0.17192182026E+03 -0.21137624601E+03  0.30154127745E+03  0.00000000000E+00 0.  1.
<mgrwt>
<rscale>  0 0.14833406E+04</rscale>
<asrwt>0</asrwt>
<pdfrwt beam="1">  1        1 0.32155763E+00 0.14833406E+04</pdfrwt>
<pdfrwt beam="2">  1       -1 0.40488924E-01 0.14833406E+04</pdfrwt>
<totfact> 0.14947524E+01</totfact>
</mgrwt>
</event>
<event>
 6    1  0.9562506E-007  0.3021169E+04  0.7818608E-02  0.8237712E-01
         -2   -1    0    0    0  501 -0.00000000000E+00  0.00000000000E+00  0.23703741647E+04  0.23703741647E+04  0.00000000000E+00 0.  1.
          2   -1    0    0  501    0  0.00000000000E+00 -0.00000000000E+00 -0.96266018869E+03  0.96266018869E+03  0.00000000000E+00 0. -1.
         23    2    1    2    0    0 -0.85232238261E+03  0.79383559445E+03  0.17632617008E+04  0.21152319969E+04  0.92120467024E+02 0.  0.
         13    1    3    3    0    0 -0.44902504391E+03  0.35694664762E+03  0.88488201621E+03  0.10545380894E+04  0.00000000000E+00 0. -1.
        -13    1    3    3    0    0 -0.40329733869E+03  0.43688894682E+03  0.87837968461E+03  0.10606939076E+04  0.00000000000E+00 0.  1.
         22    1    1    2    0    0  0.85232238261E+03 -0.79383559445E+03 -0.35554772476E+03  0.12178023565E+04  0.00000000000E+00 0. -1.
<mgrwt>
<rscale>  0 0.30211685E+04</rscale>
<asrwt>0</asrwt>
<pdfrwt beam="1">  1        2 0.14810157E+00 0.30211685E+04</pdfrwt>
<pdfrwt beam="2">  1       -2 0.36467294E+00 0.30211685E+04</pdfrwt>
<totfact> 0.28568718E-01</totfact>
</mgrwt>
</event>
<event>
 6    1  0.9562506E-007  0.8789943E+03  0.7818608E-02  0.9452227E-01
          2   -1    0    0  501    0  0.00000000000E+00  0.00000000000E+00  0.11581740194E+04  0.11581740194E+04  0.00000000000E+00 0. -1.
         -2   -1    0    0    0  501 -0.00000000000E+00 -0.00000000000E+00 -0.16677782198E+03  0.16677782198E+03  0.00000000000E+00 0.  1.
         23    2    1    2    0    0 -0.40326937181E+03  0.55427435832E+02  0.27131813732E+03  0.49778148437E+03  0.92056980468E+02 0.  0.
         11    1    3    3    0    0 -0.17303365502E+03  0.28498359106E+02  0.63650268513E+02  0.18655872782E+03  0.00000000000E+00 0. -1.
        -11    1    3    3    0    0 -0.23023571679E+03  0.26929076726E+02  0.20766786881E+03  0.31122275655E+03  0.00000000000E+00 0.  1.
         22    1    1    2    0    0  0.40326937181E+03 -0.55427435832E+02  0.72007806013E+03  0.82717035704E+03  0.00000000000E+00 0. -1.
<mgrwt>
<rscale>  0 0.87899429E+03</rscale>
<asrwt>0</asrwt>
<pdfrwt beam="1">  1        2 0.17818061E+00 0.87899429E+03</pdfrwt>
<pdfrwt beam="2">  1       -2 0.25658127E-01 0.87899429E+03</pdfrwt>
<totfact> 0.27514064E+02</totfact>
</mgrwt>
</event>
<event>
 6    1  0.9562506E-007  0.1319425E+04  0.7818608E-02  0.9014301E-01
         -2   -1    0    0    0  501 -0.00000000000E+00  0.00000000000E+00  0.18727579192E+03  0.18727579192E+03  0.00000000000E+00 0.  1.
          2   -1    0    0  501    0  0.00000000000E+00 -0.00000000000E+00 -0.23239554580E+04  0.23239554580E+04  0.00000000000E+00 0. -1.
         23    2    1    2    0    0 -0.59953539240E+03 -0.24246010452E+03 -0.85836164458E+03  0.10786369064E+04  0.91887289180E+02 0.  0.
         13    1    3    3    0    0 -0.29847709666E+03 -0.73077595855E+02 -0.38366423805E+03  0.49155585624E+03  0.00000000000E+00 0.  1.
        -13    1    3    3    0    0 -0.30105829574E+03 -0.16938250866E+03 -0.47469740652E+03  0.58708105014E+03  0.00000000000E+00 0. -1.
         22    1    1    2    0    0  0.59953539240E+03  0.24246010452E+03 -0.12783180215E+04  0.14325943435E+04  0.00000000000E+00 0. -1.
<mgrwt>
<rscale>  0 0.13194250E+04</rscale>
<asrwt>0</asrwt>
<pdfrwt beam="1">  1        2 0.35753159E+00 0.13194250E+04</pdfrwt>
<pdfrwt beam="2">  1       -2 0.28811662E-01 0.13194250E+04</pdfrwt>
<totfact> 0.47689452E+01</totfact>
</mgrwt>
</event>
<event>
 6    1  0.9562506E-007  0.1873476E+04  0.7818608E-02  0.8668173E-01
         -1   -1    0    0    0  501 -0.00000000000E+00  0.00000000000E+00  0.17240676275E+04  0.17240676275E+04  0.00000000000E+00 0.  1.
          1   -1    0    0  501    0  0.00000000000E+00 -0.00000000000E+00 -0.50895817469E+03  0.50895817469E+03  0.00000000000E+00 0. -1.
         23    2    1    2    0    0  0.68415844450E+03 -0.37914815898E+03  0.12186572303E+04  0.14508246194E+04  0.89109637384E+02 0.  0.
         13    1    3    3    0    0  0.11789997245E+03 -0.58440839076E+02  0.27068713550E+03  0.30097717605E+03  0.00000000000E+00 0.  1.
        -13    1    3    3    0    0  0.56625847206E+03 -0.32070731990E+03  0.94797009485E+03  0.11498474433E+04  0.00000000000E+00 0. -1.
         22    1    1    2    0    0 -0.68415844450E+03  0.37914815898E+03 -0.35477775600E+01  0.78220118280E+03  0.00000000000E+00 0. -1.
<mgrwt>
<rscale>  0 0.18734762E+04</rscale>
<asrwt>0</asrwt>
<pdfrwt beam="1">  1        1 0.78301258E-01 0.18734762E+04</pdfrwt>
<pdfrwt beam="2">  1       -1 0.26524117E+00 0.18734762E+04</pdfrwt>
<totfact> 0.22503176E+00</totfact>
</mgrwt>
</event>
<event>
 6    1  0.9562506E-007  0.6871061E+03  0.7818608E-02  0.9739540E-01
          2   -1    0    0  501    0  0.00000000000E+00  0.00000000000E+00  0.23324935443E+04  0.23324935443E+04  0.00000000000E+00 0. -1.
         -2   -1    0    0    0  501 -0.00000000000E+00 -0.00000000000E+00 -0.50601942688E+02  0.50601942688E+02  0.00000000000E+00 0.  1.
         23    2    1    2    0    0  0.90118960678E+02  0.39915203435E+02  0.22806697830E+04  0.22845249874E+04  0.88798133210E+02 0.  0.
         11    1    3    3    0    0  0.96689993216E+02  0.57967363193E+02  0.18556978279E+04  0.18591190383E+04  0.00000000000E+00 0.  1.
        -11    1    3    3    0    0 -0.65710325382E+01 -0.18052159758E+02  0.42497195507E+03  0.42540594910E+03  0.00000000000E+00 0. -1.
         22    1    1    2    0    0 -0.90118960678E+02 -0.39915203435E+02  0.12218185725E+01  0.98570499540E+02  0.00000000000E+00 0.  1.
<mgrwt>
<rscale>  0 0.68710612E+03</rscale>
<asrwt>0</asrwt>
<pdfrwt beam="1">  1        2 0.35884508E+00 0.68710612E+03</pdfrwt>
<pdfrwt beam="2">  1       -2 0.77849160E-02 0.68710612E+03</pdfrwt>
<totfact> 0.46358934E+02</totfact>
</mgrwt>
</event>
<event>
 6    1  0.9562506E-007  0.4107796E+04  0.7818608E-02  0.7983147E-01
         -2   -1    0    0    0  501 -0.00000000000E+00  0.00000000000E+00  0.17630149801E+04  0.17630149801E+04  0.00000000000E+00 0.  1.
          2   -1    0    0  501    0  0.00000000000E+00 -0.00000000000E+00 -0.23927741443E+04  0.23927741443E+04  0.00000000000E+00 0. -1.
         23    2    1    2    0    0  0.13823988467E+03 -0.13741325586E+04  0.12217448923E+04  0.18459367859E+04  0.86437730432E+02 0.  0.
         11    1    3    3    0    0  0.40240775301E+02 -0.28154867012E+03  0.20888467014E+03  0.35287643596E+03  0.00000000000E+00 0. -1.
        -11    1    3    3    0    0  0.97999109373E+02 -0.10925838885E+04  0.10128602222E+04  0.14930603499E+04  0.00000000000E+00 0.  1.
         22    1    1    2    0    0 -0.13823988467E+03  0.13741325586E+04 -0.18515040565E+04  0.23098523385E+04  0.00000000000E+00 0. -1.
<mgrwt>
<rscale>  0 0.41077958E+04</rscale>
<asrwt>0</asrwt>
<pdfrwt beam="1">  1        2 0.36811910E+00 0.41077958E+04</pdfrwt>
<pdfrwt beam="2">  1       -2 0.27123307E+00 0.41077958E+04</pdfrwt>
<totfact> 0.14952244E-01</totfact>
</mgrwt>
</event>
<event>
 6    1  0.9562506E-007  0.1306999E+04  0.7818608E-02  0.9024034E-01
          2   -1    0    0  501    0  0.00000000000E+00  0.00000000000E+00  0.55211962231E+03  0.55211962231E+03  0.00000000000E+00 0. -1.
         -2   -1    0    0    0  501 -0.00000000000E+00 -0.00000000000E+00 -0.77349413700E+03  0.77349413700E+03  0.00000000000E+00 0.  1.
         23    2    1    2    0    0 -0.13125361824E+03  0.63700050539E+03 -0.11099795178E+03  0.66593191038E+03  0.90264100237E+02 0.  0.
         13    1    3    3    0    0 -0.52558981350E+02  0.24143874250E+03  0.19505099076E+01  0.24710102668E+03  0.00000000000E+00 0.  1.
        -13    1    3    3    0    0 -0.78694636892E+02  0.39556176290E+03 -0.11294846169E+03  0.41883088370E+03  0.00000000000E+00 0. -1.
         22    1    1    2    0    0  0.13125361824E+03 -0.63700050539E+03 -0.11037656291E+03  0.65968184893E+03  0.00000000000E+00 0.  1.
<mgrwt>
<rscale>  0 0.13069985E+04</rscale>
<asrwt>0</asrwt>
<pdfrwt beam="1">  1        2 0.84941481E-01 0.13069985E+04</pdfrwt>
<pdfrwt beam="2">  1       -2 0.11899910E+00 0.13069985E+04</pdfrwt>
<totfact> 0.29101707E+01</totfact>
</mgrwt>
</event>
<event>
 6    1  0.9562506E-007  0.2717537E+04  0.7818608E-02  0.8329337E-01
         -1   -1    0    0    0  501 -0.00000000000E+00  0.00000000000E+00  0.68912884561E+03  0.68912884561E+03  0.00000000000E+00 0.  1.
          1   -1    0    0  501    0  0.00000000000E+00 -0.00000000000E+00 -0.26791104865E+04  0.26791104865E+04  0.00000000000E+00 0. -1.
         23    2    1    2    0    0 -0.42771314266E+03  0.11124575809E+04 -0.19091797599E+03  0.12102007615E+04  0.87383109373E+02 0.  0.
         11    1    3    3    0    0 -0.38370059693E+03  0.90517978591E+03 -0.15639609111E+03  0.99550807643E+03  0.00000000000E+00 0. -1.
        -11    1    3    3    0    0 -0.44012545728E+02  0.20727779503E+03 -0.34521884881E+02  0.21469268509E+03  0.00000000000E+00 0.  1.
         22    1    1    2    0    0  0.42771314266E+03 -0.11124575809E+04 -0.17990636649E+04  0.21580385706E+04  0.00000000000E+00 0. -1.
<mgrwt>
<rscale>  0 0.27175374E+04</rscale>
<asrwt>0</asrwt>
<pdfrwt beam="1">  1        1 0.41217084E+00 0.27175374E+04</pdfrwt>
<pdfrwt beam="2">  1       -1 0.10601982E+00 0.27175374E+04</pdfrwt>
<totfact> 0.73638809E-01</totfact>
</mgrwt>
</event>
<event>
 6    1  0.9562506E-007  0.3439069E+04  0.7818608E-02  0.8128384E-01
         -1   -1    0    0    0  501 -0.00000000000E+00  0.00000000000E+00  0.15582426853E+04  0.15582426853E+04  0.00000000000E+00 0.  1.
          1   -1    0    0  501    0  0.00000000000E+00 -0.00000000000E+00 -0.18975215309E+04  0.18975215309E+04  0.00000000000E+00 0. -1.
         23    2    1    2    0    0 -0.15408160531E+04 -0.21538168985E+03 -0.90259157282E+03  0.18011269114E+04  0.94250844280E+02 0.  0.
         13    1    3    3    0    0 -0.68513086824E+03 -0.12374193856E+03 -0.44744031702E+03  0.82759846016E+03  0.00000000000E+00 0. -1.
        -13    1    3    3    0    0 -0.85568518490E+03 -0.91639751289E+02 -0.45515125580E+03  0.97352845122E+03  0.00000000000E+00 0.  1.
         22    1    1    2    0    0  0.15408160531E+04  0.21538168985E+03  0.56331272726E+03  0.16546373049E+04  0.00000000000E+00 0.  1.
<mgrwt>
<rscale>  0 0.34390691E+04</rscale>
<asrwt>0</asrwt>
<pdfrwt beam="1">  1        1 0.29192639E+00 0.34390691E+04</pdfrwt>
<pdfrwt beam="2">  1       -1 0.23972964E+00 0.34390691E+04</pdfrwt>
<totfact> 0.23349733E-01</totfact>
</mgrwt>
</event>
<event>
 6    1  0.9562506E-007  0.3801261E+04  0.7818608E-02  0.8045884E-01
         -2   -1    0    0    0  501 -0.00000000000E+00  0.00000000000E+00  0.19480011259E+04  0.19480011259E+04  0.00000000000E+00 0.  1.
          2   -1    0    0  501    0  0.00000000000E+00 -0.00000000000E+00 -0.18544113596E+04  0.18544113596E+04  0.00000000000E+00 0. -1.
         23    2    1    2    0    0 -0.16677909789E+03 -0.47573262513E+03 -0.17851427675E+04  0.18572202760E+04  0.91627807789E+02 0.  0.
         13    1    3    3    0    0 -0.14676561185E+03 -0.36380344709E+03 -0.14944609230E+04  0.15450911117E+04  0.00000000000E+00 0. -1.
        -13    1    3    3    0    0 -0.20013486044E+02 -0.11192917804E+03 -0.29068184449E+03  0.31212916435E+03  0.00000000000E+00 0.  1.
         22    1    1    2    0    0  0.16677909789E+03  0.47573262513E+03  0.18787325338E+04  0.19451922094E+04  0.00000000000E+00 0.  1.
<mgrwt>
<rscale>  0 0.38012605E+04</rscale>
<asrwt>0</asrwt>
<pdfrwt beam="1">  1        2 0.28529405E+00 0.38012605E+04</pdfrwt>
<pdfrwt beam="2">  1       -2 0.29969248E+00 0.38012605E+04</pdfrwt>
<totfact> 0.20599347E-01</totfact>
</mgrwt>
</event>
<event>
 6    1  0.9562506E-007  0.2456615E+04  0.7818608E-02  0.8418607E-01
          2   -1    0    0  501    0  0.00000000000E+00  0.00000000000E+00  0.37911705897E+04  0.37911705897E+04  0.00000000000E+00 0. -1.
         -2   -1    0    0    0  501 -0.00000000000E+00 -0.00000000000E+00 -0.39796118852E+03  0.39796118852E+03  0.00000000000E+00 0.  1.
         23    2    1    2    0    0 -0.55064037436E+03 -0.10696725278E+04  0.21045372524E+04  0.24261570065E+04  0.98775679616E+02 0.  0.
         13    1    3    3    0    0 -0.21732364066E+03 -0.44339870649E+03  0.96057702577E+03  0.10800649055E+04  0.00000000000E+00 0.  1.
        -13    1    3    3    0    0 -0.33331673369E+03 -0.62627382133E+03  0.11439602267E+04  0.13460921010E+04  0.00000000000E+00 0. -1.
         22    1    1    2    0    0  0.55064037436E+03  0.10696725278E+04  0.12886721488E+04  0.17629747717E+04  0.00000000000E+00 0.  1.
<mgrwt>
<rscale>  0 0.24566145E+04</rscale>
<asrwt>0</asrwt>
<pdfrwt beam="1">  1        2 0.58325699E+00 0.24566145E+04</pdfrwt>
<pdfrwt beam="2">  1       -2 0.61224801E-01 0.24566145E+04</pdfrwt>
<totfact> 0.11108413E+00</totfact>
</mgrwt>
</event>
<event>
 6    1  0.9562506E-007  0.1281588E+04  0.7818608E-02  0.9044295E-01
         -2   -1    0    0    0  501 -0.00000000000E+00  0.00000000000E+00  0.28648985940E+03  0.28648985940E+03  0.00000000000E+00 0.  1.
          2   -1    0    0  501    0  0.00000000000E+00 -0.00000000000E+00 -0.14332691442E+04  0.14332691442E+04  0.00000000000E+00 0. -1.
         23    2    1    2    0    0  0.27889574239E+03 -0.42281014309E+03 -0.56678672045E+02  0.51773130087E+03  0.91005361436E+02 0.  0.
         11    1    3    3    0    0  0.26541278752E+03 -0.34399262488E+03 -0.42965921903E+02  0.43660158520E+03  0.00000000000E+00 0. -1.
        -11    1    3    3    0    0  0.13482954875E+02 -0.78817518208E+02 -0.13712750142E+02  0.81129715673E+02  0.00000000000E+00 0.  1.
         22    1    1    2    0    0 -0.27889574239E+03  0.42281014309E+03 -0.10901006128E+04  0.12020277027E+04  0.00000000000E+00 0. -1.
<mgrwt>
<rscale>  0 0.12815882E+04</rscale>
<asrwt>0</asrwt>
<pdfrwt beam="1">  1        2 0.22050294E+00 0.12815882E+04</pdfrwt>
<pdfrwt beam="2">  1       -2 0.44075363E-01 0.12815882E+04</pdfrwt>
<totfact> 0.66329618E+01</totfact>
</mgrwt>
</event>
<event>
 6    1  0.9562506E-007  0.3244205E+04  0.7818608E-02  0.8177239E-01
         -2   -1    0    0    0  501 -0.00000000000E+00  0.00000000000E+00  0.13284704037E+04  0.13284704037E+04  0.00000000000E+00 0.  1.
          2   -1    0    0  501    0  0.00000000000E+00 -0.00000000000E+00 -0.19806367427E+04  0.19806367427E+04  0.00000000000E+00 0. -1.
         23    2    1    2    0    0 -0.14220346497E+04  0.43102968354E+03  0.33419094245E+03  0.15256078277E+04  0.88467647984E+02 0.  0.
         11    1    3    3    0    0 -0.26905998965E+03  0.77285353786E+02  0.28076084374E+02  0.28134422058E+03  0.00000000000E+00 0. -1.
        -11    1    3    3    0    0 -0.11529746601E+04  0.35374432975E+03  0.30611485807E+03  0.12442636071E+04  0.00000000000E+00 0.  1.
         22    1    1    2    0    0  0.14220346497E+04 -0.43102968354E+03 -0.98635728139E+03  0.17834993187E+04  0.00000000000E+00 0. -1.
<mgrwt>
<rscale>  0 0.32442055E+04</rscale>
<asrwt>0</asrwt>
<pdfrwt beam="1">  1        2 0.30471334E+00 0.32442055E+04</pdfrwt>
<pdfrwt beam="2">  1       -2 0.20438006E+00 0.32442055E+04</pdfrwt>
<totfact> 0.71554280E-01</totfact>
</mgrwt>
</event>
<event>
 6    1  0.9562506E-007  0.2755311E+04  0.7818608E-02  0.8317278E-01
          2   -1    0    0  501    0  0.00000000000E+00  0.00000000000E+00  0.18679533193E+04  0.18679533193E+04  0.00000000000E+00 0. -1.
         -2   -1    0    0    0  501 -0.00000000000E+00 -0.00000000000E+00 -0.10160505451E+04  0.10160505451E+04  0.00000000000E+00 0.  1.
         23    2    1    2    0    0  0.43587714881E+03  0.33567945259E+03 -0.89395226498E+03  0.10535177536E+04  0.89885601736E+02 0.  0.
         11    1    3    3    0    0  0.28347392114E+03  0.25894478198E+03 -0.66651585572E+03  0.76918999604E+03  0.00000000000E+00 0.  1.
        -11    1    3    3    0    0  0.15240322767E+03  0.76734670615E+02 -0.22743640926E+03  0.28432775759E+03  0.00000000000E+00 0. -1.
         22    1    1    2    0    0 -0.43587714881E+03 -0.33567945259E+03  0.17458550392E+04  0.18304861107E+04  0.00000000000E+00 0. -1.
<mgrwt>
<rscale>  0 0.27553112E+04</rscale>
<asrwt>0</asrwt>
<pdfrwt beam="1">  1        2 0.28737743E+00 0.27553112E+04</pdfrwt>
<pdfrwt beam="2">  1       -2 0.15631547E+00 0.27553112E+04</pdfrwt>
<totfact> 0.18541600E+00</totfact>
</mgrwt>
</event>
<event>
 6    1  0.9562506E-007  0.2982756E+04  0.7818608E-02  0.8248672E-01
         -1   -1    0    0    0  501 -0.00000000000E+00  0.00000000000E+00  0.81079163933E+03  0.81079163933E+03  0.00000000000E+00 0.  1.
          1   -1    0    0  501    0  0.00000000000E+00 -0.00000000000E+00 -0.27432545130E+04  0.27432545130E+04  0.00000000000E+00 0. -1.
         23    2    1    2    0    0  0.99270396051E+03  0.10214439883E+04 -0.44566337965E+03  0.14950702637E+04  0.88375738626E+02 0.  0.
         13    1    3    3    0    0  0.55725464228E+03  0.62103929456E+03 -0.23121851280E+03  0.86584325509E+03  0.00000000000E+00 0. -1.
        -13    1    3    3    0    0  0.43544931823E+03  0.40040469370E+03 -0.21444486686E+03  0.62922700864E+03  0.00000000000E+00 0.  1.
         22    1    1    2    0    0 -0.99270396051E+03 -0.10214439883E+04 -0.14867994940E+04  0.20589758886E+04  0.00000000000E+00 0.  1.
<mgrwt>
<rscale>  0 0.29827557E+04</rscale>
<asrwt>0</asrwt>
<pdfrwt beam="1">  1        1 0.42203915E+00 0.29827557E+04</pdfrwt>
<pdfrwt beam="2">  1       -1 0.12473718E+00 0.29827557E+04</pdfrwt>
<totfact> 0.43826900E-01</totfact>
</mgrwt>
</event>
<event>
 6    1  0.9562506E-007  0.2535173E+04  0.7818608E-02  0.8390561E-01
         -2   -1    0    0    0  501 -0.00000000000E+00  0.00000000000E+00  0.65646054626E+03  0.65646054626E+03  0.00000000000E+00 0.  1.
          2   -1    0    0  501    0  0.00000000000E+00 -0.00000000000E+00 -0.24476345481E+04  0.24476345481E+04  0.00000000000E+00 0. -1.
         23    2    1    2    0    0 -0.61039400755E+03 -0.56334635503E+03  0.27298123685E+03  0.87908345178E+03  0.91263351610E+02 0.  0.
         13    1    3    3    0    0 -0.21966091683E+03 -0.15784879474E+03  0.11737427680E+03  0.29486247852E+03  0.00000000000E+00 0.  1.
        -13    1    3    3    0    0 -0.39073309072E+03 -0.40549756029E+03  0.15560696004E+03  0.58422097327E+03  0.00000000000E+00 0. -1.
         22    1    1    2    0    0  0.61039400755E+03  0.56334635503E+03 -0.20641552387E+04  0.22250116426E+04  0.00000000000E+00 0. -1.
<mgrwt>
<rscale>  0 0.25351730E+04</rscale>
<asrwt>0</asrwt>
<pdfrwt beam="1">  1        2 0.37655917E+00 0.25351730E+04</pdfrwt>
<pdfrwt beam="2">  1       -2 0.10099393E+00 0.25351730E+04</pdfrwt>
<totfact> 0.26775329E+00</totfact>
</mgrwt>
</event>
<event>
 6    1  0.9562506E-007  0.1270742E+04  0.7818608E-02  0.9053094E-01
          1   -1    0    0  501    0  0.00000000000E+00  0.00000000000E+00  0.42011411246E+03  0.42011411246E+03  0.00000000000E+00 0. -1.
         -1   -1    0    0    0  501 -0.00000000000E+00 -0.00000000000E+00 -0.96092031599E+03  0.96092031599E+03  0.00000000000E+00 0.  1.
         23    2    1    2    0    0 -0.44642119736E+03  0.19897789896E+01 -0.75822544056E+03  0.88447932646E+03  0.90011196856E+02 0.  0.
         13    1    3    3    0    0 -0.33091338456E+03 -0.36301147854E+02 -0.53109206974E+03  0.62680158580E+03  0.00000000000E+00 0.  1.
        -13    1    3    3    0    0 -0.11550781280E+03  0.38290926844E+02 -0.22713337081E+03  0.25767774066E+03  0.00000000000E+00 0. -1.
         22    1    1    2    0    0  0.44642119736E+03 -0.19897789896E+01  0.21741923702E+03  0.49655510198E+03  0.00000000000E+00 0. -1.
<mgrwt>
<rscale>  0 0.12707418E+04</rscale>
<asrwt>0</asrwt>
<pdfrwt beam="1">  1        1 0.64632941E-01 0.12707418E+04</pdfrwt>
<pdfrwt beam="2">  1       -1 0.14783389E+00 0.12707418E+04</pdfrwt>
<totfact> 0.20073417E+01</totfact>
</mgrwt>
</event>
<event>
 6    1  0.9562506E-007  0.2390154E+04  0.7818608E-02  0.8443199E-01
          2   -1    0    0  501    0  0.00000000000E+00  0.00000000000E+00  0.15372246818E+04  0.15372246818E+04  0.00000000000E+00 0. -1.
         -2   -1    0    0    0  501 -0.00000000000E+00 -0.00000000000E+00 -0.92908250737E+03  0.92908250737E+03  0.00000000000E+00 0.  1.
         23    2    1    2    0    0  0.54451083273E+03  0.99815781668E+03 -0.71051981728E+02  0.11418768302E+04  0.77609518320E+02 0.  0.
         11    1    3    3    0    0  0.21794386132E+03  0.41743207068E+03 -0.66777747691E+02  0.47561363301E+03  0.00000000000E+00 0. -1.
        -11    1    3    3    0    0  0.32656697141E+03  0.58072574601E+03 -0.42742340373E+01  0.66626319722E+03  0.00000000000E+00 0.  1.
         22    1    1    2    0    0 -0.54451083273E+03 -0.99815781668E+03  0.67919415620E+03  0.13244303590E+04  0.00000000000E+00 0. -1.
<mgrwt>
<rscale>  0 0.23901536E+04</rscale>
<asrwt>0</asrwt>
<pdfrwt beam="1">  1        2 0.23649611E+00 0.23901536E+04</pdfrwt>
<pdfrwt beam="2">  1       -2 0.14293577E+00 0.23901536E+04</pdfrwt>
<totfact> 0.37039456E+00</totfact>
</mgrwt>
</event>
<event>
 6    1  0.9562506E-007  0.1868673E+04  0.7818608E-02  0.8670609E-01
          1   -1    0    0  501    0  0.00000000000E+00  0.00000000000E+00  0.68360252188E+03  0.68360252188E+03  0.00000000000E+00 0. -1.
         -1   -1    0    0    0  501 -0.00000000000E+00 -0.00000000000E+00 -0.12770357865E+04  0.12770357865E+04  0.00000000000E+00 0.  1.
         23    2    1    2    0    0 -0.45178201449E+03 -0.49319274016E+03  0.38360712455E+03  0.77659692835E+03  0.92748560940E+02 0.  0.
         13    1    3    3    0    0 -0.26817241232E+03 -0.25520681123E+03  0.25575838195E+03  0.44995478569E+03  0.00000000000E+00 0. -1.
        -13    1    3    3    0    0 -0.18360960218E+03 -0.23798592893E+03  0.12784874260E+03  0.32664214266E+03  0.00000000000E+00 0.  1.
         22    1    1    2    0    0  0.45178201449E+03  0.49319274016E+03 -0.97704038922E+03  0.11840413801E+04  0.00000000000E+00 0.  1.
<mgrwt>
<rscale>  0 0.18686732E+04</rscale>
<asrwt>0</asrwt>
<pdfrwt beam="1">  1        1 0.10516962E+00 0.18686732E+04</pdfrwt>
<pdfrwt beam="2">  1       -1 0.19646704E+00 0.18686732E+04</pdfrwt>
<totfact> 0.42179496E+00</totfact>
</mgrwt>
</event>
<event>
 6    1  0.9562506E-007  0.2188637E+04  0.7818608E-02  0.8523172E-01
          1   -1    0    0  501    0  0.00000000000E+00  0.00000000000E+00  0.17518466531E+04  0.17518466531E+04  0.00000000000E+00 0. -1.
         -1   -1    0    0    0  501 -0.00000000000E+00 -0.00000000000E+00 -0.68358331459E+03  0.68358331459E+03  0.00000000000E+00 0.  1.
         23    2    1    2    0    0  0.77625959208E+03 -0.12923503869E+03  0.13781799355E+04  0.15896587536E+04  0.91402236584E+02 0.  0.
         11    1    3    3    0    0  0.32797919426E+03 -0.80306058662E+02  0.66616932631E+03  0.74686075425E+03  0.00000000000E+00 0. -1.
        -11    1    3    3    0    0  0.44828039781E+03 -0.48928980030E+02  0.71201060921E+03  0.84279799939E+03  0.00000000000E+00 0.  1.
         22    1    1    2    0    0 -0.77625959208E+03  0.12923503869E+03 -0.30991659696E+03  0.84577121409E+03  0.00000000000E+00 0.  1.
<mgrwt>
<rscale>  0 0.21886371E+04</rscale>
<asrwt>0</asrwt>
<pdfrwt beam="1">  1        1 0.26951487E+00 0.21886371E+04</pdfrwt>
<pdfrwt beam="2">  1       -1 0.10516666E+00 0.21886371E+04</pdfrwt>
<totfact> 0.34005110E+00</totfact>
</mgrwt>
</event>
<event>
 6    1  0.9562506E-007  0.2609504E+04  0.7818608E-02  0.8364980E-01
         -2   -1    0    0    0  501 -0.00000000000E+00  0.00000000000E+00  0.94808203379E+03  0.94808203379E+03  0.00000000000E+00 0.  1.
          2   -1    0    0  501    0  0.00000000000E+00 -0.00000000000E+00 -0.17956012802E+04  0.17956012802E+04  0.00000000000E+00 0. -1.
         23    2    1    2    0    0 -0.12878627625E+03  0.12206194915E+04  0.36081965807E+02  0.12313179646E+04  0.91346448203E+02 0.  0.
         11    1    3    3    0    0 -0.79251127271E+02  0.37061356013E+03  0.24651653612E+02  0.37979317550E+03  0.00000000000E+00 0. -1.
        -11    1    3    3    0    0 -0.49535148978E+02  0.85000593137E+03  0.11430312196E+02  0.85152478906E+03  0.00000000000E+00 0.  1.
         22    1    1    2    0    0  0.12878627625E+03 -0.12206194915E+04 -0.88360121226E+03  0.15123653495E+04  0.00000000000E+00 0. -1.
<mgrwt>
<rscale>  0 0.26095036E+04</rscale>
<asrwt>0</asrwt>
<pdfrwt beam="1">  1        2 0.27624635E+00 0.26095036E+04</pdfrwt>
<pdfrwt beam="2">  1       -2 0.14585878E+00 0.26095036E+04</pdfrwt>
<totfact> 0.24748017E+00</totfact>
</mgrwt>
</event>
<event>
 6    1  0.9562506E-007  0.8561942E+03  0.7818608E-02  0.9482061E-01
          2   -1    0    0  501    0  0.00000000000E+00  0.00000000000E+00  0.13655983185E+04  0.13655983185E+04  0.00000000000E+00 0. -1.
         -2   -1    0    0    0  501 -0.00000000000E+00 -0.00000000000E+00 -0.13420281880E+03  0.13420281880E+03  0.00000000000E+00 0.  1.
         23    2    1    2    0    0  0.77641640366E+02 -0.39346713058E+03  0.38521801651E+03  0.56339260454E+03  0.90408514208E+02 0.  0.
         11    1    3    3    0    0  0.95515597152E+02 -0.36073773659E+03  0.34053147867E+03  0.50518969889E+03  0.00000000000E+00 0.  1.
        -11    1    3    3    0    0 -0.17873956785E+02 -0.32729393997E+02  0.44686537843E+02  0.58202905657E+02  0.00000000000E+00 0. -1.
         22    1    1    2    0    0 -0.77641640366E+02  0.39346713058E+03  0.84617748314E+03  0.93640853272E+03  0.00000000000E+00 0.  1.
<mgrwt>
<rscale>  0 0.85619424E+03</rscale>
<asrwt>0</asrwt>
<pdfrwt beam="1">  1        2 0.21009204E+00 0.85619424E+03</pdfrwt>
<pdfrwt beam="2">  1       -2 0.20646588E-01 0.85619424E+03</pdfrwt>
<totfact> 0.30713870E+02</totfact>
</mgrwt>
</event>
<event>
 6    1  0.9562506E-007  0.1409825E+04  0.7818608E-02  0.8946737E-01
         -1   -1    0    0    0  501 -0.00000000000E+00  0.00000000000E+00  0.18526734691E+03  0.18526734691E+03  0.00000000000E+00 0.  1.
          1   -1    0    0  501    0  0.00000000000E+00 -0.00000000000E+00 -0.26820783616E+04  0.26820783616E+04  0.00000000000E+00 0. -1.
         23    2    1    2    0    0  0.53683642663E+03  0.42041844093E+03 -0.15926713959E+04  0.17349087501E+04  0.91439496563E+02 0.  0.
         13    1    3    3    0    0  0.52429607228E+03  0.38633378374E+03 -0.14945740045E+04  0.16303041492E+04  0.00000000000E+00 0.  1.
        -13    1    3    3    0    0  0.12540354347E+02  0.34084657191E+02 -0.98097391397E+02  0.10460460096E+03  0.00000000000E+00 0. -1.
         22    1    1    2    0    0 -0.53683642663E+03 -0.42041844093E+03 -0.90413961873E+03  0.11324369583E+04  0.00000000000E+00 0. -1.
<mgrwt>
<rscale>  0 0.14098249E+04</rscale>
<asrwt>0</asrwt>
<pdfrwt beam="1">  1        1 0.41262746E+00 0.14098249E+04</pdfrwt>
<pdfrwt beam="2">  1       -1 0.28502668E-01 0.14098249E+04</pdfrwt>
<totfact> 0.11040422E+01</totfact>
</mgrwt>
</event>
<event>
 6    1  0.9562506E-007  0.1097575E+04  0.7818608E-02  0.9207559E-01
          1   -1    0    0  501    0  0.00000000000E+00  0.00000000000E+00  0.20345280346E+03  0.20345280346E+03  0.00000000000E+00 0. -1.
         -1   -1    0    0    0  501 -0.00000000000E+00 -0.00000000000E+00 -0.14802832502E+04  0.14802832502E+04  0.00000000000E+00 0.  1.
         23    2    1    2    0    0 -0.96978514501E+01 -0.36423255221E+03 -0.21365316986E+02  0.37646710947E+03  0.92258372685E+02 0.  0.
         13    1    3    3    0    0 -0.44248783324E+02 -0.16573532867E+03  0.13176499780E+02  0.17204584895E+03  0.00000000000E+00 0. -1.
        -13    1    3    3    0    0  0.34550931874E+02 -0.19849722353E+03 -0.34541816766E+02  0.20442126051E+03  0.00000000000E+00 0.  1.
         22    1    1    2    0    0  0.96978514501E+01  0.36423255221E+03 -0.12554651298E+04  0.13072689442E+04  0.00000000000E+00 0.  1.
<mgrwt>
<rscale>  0 0.10975751E+04</rscale>
<asrwt>0</asrwt>
<pdfrwt beam="1">  1        1 0.31300430E-01 0.10975751E+04</pdfrwt>
<pdfrwt beam="2">  1       -1 0.22773589E+00 0.10975751E+04</pdfrwt>
<totfact> 0.14201673E+01</totfact>
</mgrwt>
</event>
<event>
 6    1  0.9562506E-007  0.5610508E+04  0.7818608E-02  0.7740664E-01
          2   -1    0    0  501    0  0.00000000000E+00  0.00000000000E+00  0.34227365748E+04  0.34227365748E+04  0.00000000000E+00 0. -1.
         -2   -1    0    0    0  501 -0.00000000000E+00 -0.00000000000E+00 -0.22991688504E+04  0.22991688504E+04  0.00000000000E+00 0.  1.
         23    2    1    2    0    0  0.11629195880E+04 -0.17519801767E+04 -0.13305240496E+04  0.24901283687E+04  0.92889924983E+02 0.  0.
         11    1    3    3    0    0  0.45422673985E+03 -0.74613540389E+03 -0.58850398453E+03  0.10532696293E+04  0.00000000000E+00 0.  1.
        -11    1    3    3    0    0  0.70869284819E+03 -0.10058447728E+04 -0.74202006504E+03  0.14368587394E+04  0.00000000000E+00 0. -1.
         22    1    1    2    0    0 -0.11629195880E+04  0.17519801767E+04  0.24540917739E+04  0.32317770565E+04  0.00000000000E+00 0. -1.
<mgrwt>
<rscale>  0 0.56105078E+04</rscale>
<asrwt>0</asrwt>
<pdfrwt beam="1">  1        2 0.52657486E+00 0.56105078E+04</pdfrwt>
<pdfrwt beam="2">  1       -2 0.35371829E+00 0.56105078E+04</pdfrwt>
<totfact> 0.93901624E-03</totfact>
</mgrwt>
</event>
<event>
 6    1  0.9562506E-007  0.4622735E+04  0.7818608E-02  0.7889495E-01
          1   -1    0    0  501    0  0.00000000000E+00  0.00000000000E+00  0.23174441595E+04  0.23174441595E+04  0.00000000000E+00 0. -1.
         -1   -1    0    0    0  501 -0.00000000000E+00 -0.00000000000E+00 -0.23053064663E+04  0.23053064663E+04  0.00000000000E+00 0.  1.
         23    2    1    2    0    0 -0.91178378725E+03  0.63980673552E+03 -0.20181428421E+04  0.23069912719E+04  0.92767796552E+02 0.  0.
         11    1    3    3    0    0 -0.67049629068E+01 -0.29437588880E+01 -0.93289909193E+01  0.11859692894E+02  0.00000000000E+00 0. -1.
        -11    1    3    3    0    0 -0.90507882434E+03  0.64275049441E+03 -0.20088138512E+04  0.22951315790E+04  0.00000000000E+00 0.  1.
         22    1    1    2    0    0  0.91178378725E+03 -0.63980673552E+03  0.20302805353E+04  0.23157593539E+04  0.00000000000E+00 0. -1.
<mgrwt>
<rscale>  0 0.46227347E+04</rscale>
<asrwt>0</asrwt>
<pdfrwt beam="1">  1        1 0.35652987E+00 0.46227347E+04</pdfrwt>
<pdfrwt beam="2">  1       -1 0.35466253E+00 0.46227347E+04</pdfrwt>
<totfact> 0.19489697E-02</totfact>
</mgrwt>
</event>
<event>
 6    1  0.9562506E-007  0.2693112E+04  0.7818608E-02  0.8337243E-01
         -1   -1    0    0    0  501 -0.00000000000E+00  0.00000000000E+00  0.92806904017E+03  0.92806904017E+03  0.00000000000E+00 0.  1.
          1   -1    0    0  501    0  0.00000000000E+00 -0.00000000000E+00 -0.19537484866E+04  0.19537484866E+04  0.00000000000E+00 0. -1.
         23    2    1    2    0    0  0.13460009290E+03 -0.81648326897E+03 -0.16480597682E+04  0.18463855501E+04  0.90975198311E+02 0.  0.
         11    1    3    3    0    0  0.11320544201E+03 -0.45114989231E+03 -0.97505541432E+03  0.10803169713E+04  0.00000000000E+00 0. -1.
        -11    1    3    3    0    0  0.21394650889E+02 -0.36533337666E+03 -0.67300435384E+03  0.76606857883E+03  0.00000000000E+00 0.  1.
         22    1    1    2    0    0 -0.13460009290E+03  0.81648326897E+03  0.62238032170E+03  0.10354319767E+04  0.00000000000E+00 0.  1.
<mgrwt>
<rscale>  0 0.26931123E+04</rscale>
<asrwt>0</asrwt>
<pdfrwt beam="1">  1        1 0.30057669E+00 0.26931123E+04</pdfrwt>
<pdfrwt beam="2">  1       -1 0.14277985E+00 0.26931123E+04</pdfrwt>
<totfact> 0.11138545E+00</totfact>
</mgrwt>
</event>
<event>
 6    1  0.9562506E-007  0.4220156E+03  0.7818608E-02  0.1036412E+00
          2   -1    0    0  501    0  0.00000000000E+00  0.00000000000E+00  0.18331817806E+04  0.18331817806E+04  0.00000000000E+00 0. -1.
         -2   -1    0    0    0  501 -0.00000000000E+00 -0.00000000000E+00 -0.24287987885E+02  0.24287987885E+02  0.00000000000E+00 0.  1.
         23    2    1    2    0    0  0.98567981404E+02 -0.13698486273E+03  0.14291451059E+04  0.14419104289E+04  0.90385019177E+02 0.  0.
         13    1    3    3    0    0  0.22983245815E+02 -0.86046856665E+02  0.95054837677E+03  0.95471174064E+03  0.00000000000E+00 0. -1.
        -13    1    3    3    0    0  0.75584735589E+02 -0.50938006064E+02  0.47859672912E+03  0.48719868826E+03  0.00000000000E+00 0.  1.
         22    1    1    2    0    0 -0.98567981404E+02  0.13698486273E+03  0.37974868682E+03  0.41555933958E+03  0.00000000000E+00 0.  1.
<mgrwt>
<rscale>  0 0.42201562E+03</rscale>
<asrwt>0</asrwt>
<pdfrwt beam="1">  1        2 0.28202786E+00 0.42201562E+03</pdfrwt>
<pdfrwt beam="2">  1       -2 0.37366150E-02 0.42201562E+03</pdfrwt>
<totfact> 0.27565592E+03</totfact>
</mgrwt>
</event>
<event>
 6    1  0.9562506E-007  0.2579496E+04  0.7818608E-02  0.8375200E-01
         -2   -1    0    0    0  501 -0.00000000000E+00  0.00000000000E+00  0.14288556798E+04  0.14288556798E+04  0.00000000000E+00 0.  1.
          2   -1    0    0  501    0  0.00000000000E+00 -0.00000000000E+00 -0.11641829369E+04  0.11641829369E+04  0.00000000000E+00 0. -1.
         23    2    1    2    0    0  0.94175234494E+03 -0.66840018331E+03  0.70613468226E+03  0.13566952469E+04  0.91320967921E+02 0.  0.
         11    1    3    3    0    0  0.51374431676E+03 -0.41389716921E+03  0.42661232753E+03  0.78564761038E+03  0.00000000000E+00 0. -1.
        -11    1    3    3    0    0  0.42800802818E+03 -0.25450301410E+03  0.27952235472E+03  0.57104763651E+03  0.00000000000E+00 0.  1.
         22    1    1    2    0    0 -0.94175234494E+03  0.66840018331E+03 -0.44146193933E+03  0.12363433698E+04  0.00000000000E+00 0. -1.
<mgrwt>
<rscale>  0 0.25794956E+04</rscale>
<asrwt>0</asrwt>
<pdfrwt beam="1">  1        2 0.17910507E+00 0.25794956E+04</pdfrwt>
<pdfrwt beam="2">  1       -2 0.21982395E+00 0.25794956E+04</pdfrwt>
<totfact> 0.17474915E+00</totfact>
</mgrwt>
</event>
<event>
 6    1  0.9562506E-007  0.3481615E+04  0.7818608E-02  0.8118161E-01
          2   -1    0    0  501    0  0.00000000000E+00  0.00000000000E+00  0.24335586152E+04  0.24335586152E+04  0.00000000000E+00 0. -1.
         -2   -1    0    0    0  501 -0.00000000000E+00 -0.00000000000E+00 -0.12452589174E+04  0.12452589174E+04  0.00000000000E+00 0.  1.
         23    2    1    2    0    0  0.16649041521E+04  0.39043167193E+02  0.63542466748E+02  0.16692133344E+04  0.93836592267E+02 0.  0.
         11    1    3    3    0    0  0.15915343070E+04  0.46468795471E+02  0.77761798231E+02  0.15941103151E+04  0.00000000000E+00 0. -1.
        -11    1    3    3    0    0  0.73369845110E+02 -0.74256282782E+01 -0.14219331483E+02  0.75103019345E+02  0.00000000000E+00 0.  1.
         22    1    1    2    0    0 -0.16649041521E+04 -0.39043167193E+02  0.11247572310E+04  0.20096041982E+04  0.00000000000E+00 0. -1.
<mgrwt>
<rscale>  0 0.34816149E+04</rscale>
<asrwt>0</asrwt>
<pdfrwt beam="1">  1        2 0.37439363E+00 0.34816149E+04</pdfrwt>
<pdfrwt beam="2">  1       -2 0.19157830E+00 0.34816149E+04</pdfrwt>
<totfact> 0.47337404E-01</totfact>
</mgrwt>
</event>
<event>
 6    1  0.9562506E-007  0.3811062E+04  0.7818608E-02  0.8043785E-01
          1   -1    0    0  501    0  0.00000000000E+00  0.00000000000E+00  0.15122952749E+04  0.15122952749E+04  0.00000000000E+00 0. -1.
         -1   -1    0    0    0  501 -0.00000000000E+00 -0.00000000000E+00 -0.24010187668E+04  0.24010187668E+04  0.00000000000E+00 0.  1.
         23    2    1    2    0    0 -0.49411450618E+03 -0.44210784300E+03 -0.22778765862E+04  0.23740431722E+04  0.88038351951E+02 0.  0.
         13    1    3    3    0    0 -0.16498762449E+03 -0.16159762561E+03 -0.65429433379E+03  0.69385573721E+03  0.00000000000E+00 0.  1.
        -13    1    3    3    0    0 -0.32912688170E+03 -0.28051021739E+03 -0.16235822524E+04  0.16801874350E+04  0.00000000000E+00 0. -1.
         22    1    1    2    0    0  0.49411450618E+03  0.44210784300E+03  0.13891530943E+04  0.15392708695E+04  0.00000000000E+00 0. -1.
<mgrwt>
<rscale>  0 0.38110625E+04</rscale>
<asrwt>0</asrwt>
<pdfrwt beam="1">  1        1 0.23266081E+00 0.38110625E+04</pdfrwt>
<pdfrwt beam="2">  1       -1 0.36938750E+00 0.38110625E+04</pdfrwt>
<totfact> 0.58782712E-02</totfact>
</mgrwt>
</event>
<event>
 6    1  0.9562506E-007  0.4985337E+04  0.7818608E-02  0.7830773E-01
         -1   -1    0    0    0  501 -0.00000000000E+00  0.00000000000E+00  0.26126971024E+04  0.26126971024E+04  0.00000000000E+00 0.  1.
          1   -1    0    0  501    0  0.00000000000E+00 -0.00000000000E+00 -0.23781542814E+04  0.23781542814E+04  0.00000000000E+00 0. -1.
         23    2    1    2    0    0  0.10937030270E+04  0.19754400505E+04  0.11721842390E+04  0.25459135251E+04  0.95446753795E+02 0.  0.
         13    1    3    3    0    0  0.20397003158E+03  0.44980629678E+03  0.25582009992E+03  0.55621344997E+03  0.00000000000E+00 0.  1.
        -13    1    3    3    0    0  0.88973299545E+03  0.15256337537E+04  0.91636413908E+03  0.19897000751E+04  0.00000000000E+00 0. -1.
         22    1    1    2    0    0 -0.10937030270E+04 -0.19754400505E+04 -0.93764141794E+03  0.24449378587E+04  0.00000000000E+00 0. -1.
<mgrwt>
<rscale>  0 0.49853372E+04</rscale>
<asrwt>0</asrwt>
<pdfrwt beam="1">  1        1 0.36586989E+00 0.49853372E+04</pdfrwt>
<pdfrwt beam="2">  1       -1 0.40195340E+00 0.49853372E+04</pdfrwt>
<totfact> 0.82504922E-03</totfact>
</mgrwt>
</event>
<event>
 6    1  0.9562506E-007  0.1289425E+04  0.7818608E-02  0.9037993E-01
         -1   -1    0    0    0  501 -0.00000000000E+00  0.00000000000E+00  0.52719469669E+03  0.52719469669E+03  0.00000000000E+00 0.  1.
          1   -1    0    0  501    0  0.00000000000E+00 -0.00000000000E+00 -0.78842686243E+03  0.78842686243E+03  0.00000000000E+00 0. -1.
         23    2    1    2    0    0  0.46275907141E+02 -0.42199838181E+03  0.35938601273E+03  0.56369668436E+03  0.91496185630E+02 0.  0.
         11    1    3    3    0    0  0.15055015567E+02 -0.17222843166E+03  0.20598777174E+03  0.26892424263E+03  0.00000000000E+00 0. -1.
        -11    1    3    3    0    0  0.31220891574E+02 -0.24976995015E+03  0.15339824098E+03  0.29477244173E+03  0.00000000000E+00 0.  1.
         22    1    1    2    0    0 -0.46275907141E+02  0.42199838181E+03 -0.62061817847E+03  0.75192487476E+03  0.00000000000E+00 0. -1.
<mgrwt>
<rscale>  0 0.12894254E+04</rscale>
<asrwt>0</asrwt>
<pdfrwt beam="1">  1        1 0.12129644E+00 0.12894254E+04</pdfrwt>
<pdfrwt beam="2">  1       -1 0.81106877E-01 0.12894254E+04</pdfrwt>
<totfact> 0.33723933E+01</totfact>
</mgrwt>
</event>
<event>
 6    1  0.9562506E-007  0.1738442E+04  0.7818608E-02  0.8739738E-01
         -1   -1    0    0    0  501 -0.00000000000E+00  0.00000000000E+00  0.86419199293E+03  0.86419199293E+03  0.00000000000E+00 0.  1.
          1   -1    0    0  501    0  0.00000000000E+00 -0.00000000000E+00 -0.87427881311E+03  0.87427881311E+03  0.00000000000E+00 0. -1.
         23    2    1    2    0    0  0.66262551304E+03 -0.47683799540E+03  0.28686974870E+03  0.86977624050E+03  0.88144264884E+02 0.  0.
         13    1    3    3    0    0  0.28115711462E+03 -0.16410071530E+03  0.82470300140E+02  0.33582691713E+03  0.00000000000E+00 0.  1.
        -13    1    3    3    0    0  0.38146839842E+03 -0.31273728010E+03  0.20439944856E+03  0.53394932337E+03  0.00000000000E+00 0. -1.
         22    1    1    2    0    0 -0.66262551304E+03  0.47683799540E+03 -0.29695656887E+03  0.86869456553E+03  0.00000000000E+00 0. -1.
<mgrwt>
<rscale>  0 0.17384415E+04</rscale>
<asrwt>0</asrwt>
<pdfrwt beam="1">  1        1 0.13450443E+00 0.17384415E+04</pdfrwt>
<pdfrwt beam="2">  1       -1 0.13295262E+00 0.17384415E+04</pdfrwt>
<totfact> 0.86845088E+00</totfact>
</mgrwt>
</event>
<event>
 6    1  0.9562506E-007  0.2205606E+04  0.7818608E-02  0.8516098E-01
         -4   -1    0    0    0  501 -0.00000000000E+00  0.00000000000E+00  0.21075622028E+04  0.21075622028E+04  0.00000000000E+00 0.  1.
          4   -1    0    0  501    0  0.00000000000E+00 -0.00000000000E+00 -0.57705262081E+03  0.57705262081E+03  0.00000000000E+00 0. -1.
         23    2    1    2    0    0  0.21501131641E+03  0.44606890620E+03 -0.42953022914E+03  0.66299087330E+03  0.99264016949E+02 0.  0.
         11    1    3    3    0    0  0.14618889398E+03  0.38890898794E+03 -0.34848712441E+03  0.54227729945E+03  0.00000000000E+00 0. -1.
        -11    1    3    3    0    0  0.68822422432E+02  0.57159918266E+02 -0.81043104735E+02  0.12071357385E+03  0.00000000000E+00 0.  1.
         22    1    1    2    0    0 -0.21501131641E+03 -0.44606890620E+03  0.19600398111E+04  0.20216239503E+04  0.00000000000E+00 0.  1.
<mgrwt>
<rscale>  0 0.22056059E+04</rscale>
<asrwt>0</asrwt>
<pdfrwt beam="1">  1        4 0.88777327E-01 0.22056059E+04</pdfrwt>
<pdfrwt beam="2">  1       -4 0.32424034E+00 0.22056059E+04</pdfrwt>
<totfact> 0.43407900E-02</totfact>
</mgrwt>
</event>
<event>
 6    1  0.9562506E-007  0.8508586E+03  0.7818608E-02  0.9489185E-01
          3   -1    0    0  501    0  0.00000000000E+00  0.00000000000E+00  0.40171822983E+03  0.40171822983E+03  0.00000000000E+00 0. -1.
         -3   -1    0    0    0  501 -0.00000000000E+00 -0.00000000000E+00 -0.45053992720E+03  0.45053992720E+03  0.00000000000E+00 0.  1.
         23    2    1    2    0    0 -0.41266471718E+03  0.65977397326E+02  0.24463413616E+02  0.42797535835E+03  0.88990240942E+02 0.  0.
         11    1    3    3    0    0 -0.27611616603E+03  0.12625280735E+02  0.44659929430E+02  0.27998936435E+03  0.00000000000E+00 0.  1.
        -11    1    3    3    0    0 -0.13654855116E+03  0.53352116591E+02 -0.20196515814E+02  0.14798599399E+03  0.00000000000E+00 0. -1.
         22    1    1    2    0    0  0.41266471718E+03 -0.65977397326E+02 -0.73285110993E+02  0.42428279868E+03  0.00000000000E+00 0.  1.
<mgrwt>
<rscale>  0 0.85085863E+03</rscale>
<asrwt>0</asrwt>
<pdfrwt beam="1">  1        3 0.61802805E-01 0.85085863E+03</pdfrwt>
<pdfrwt beam="2">  1       -3 0.69313835E-01 0.85085863E+03</pdfrwt>
<totfact> 0.13381041E+01</totfact>
</mgrwt>
</event>
<event>
 6    1  0.9562506E-007  0.3846123E+04  0.7818608E-02  0.8036329E-01
          2   -1    0    0  501    0  0.00000000000E+00  0.00000000000E+00  0.11499380891E+04  0.11499380891E+04  0.00000000000E+00 0. -1.
         -2   -1    0    0    0  501 -0.00000000000E+00 -0.00000000000E+00 -0.32159690902E+04  0.32159690902E+04  0.00000000000E+00 0.  1.
         23    2    1    2    0    0  0.15771859174E+04  0.77098159810E+03 -0.19217250829E+04  0.26044440827E+04  0.90408200487E+02 0.  0.
         11    1    3    3    0    0  0.10673373172E+04  0.49706653981E+03 -0.12340492412E+04  0.17056264607E+04  0.00000000000E+00 0. -1.
        -11    1    3    3    0    0  0.50984860020E+03  0.27391505829E+03 -0.68767584171E+03  0.89881762196E+03  0.00000000000E+00 0.  1.
         22    1    1    2    0    0 -0.15771859174E+04 -0.77098159810E+03 -0.14430591817E+03  0.17614630966E+04  0.00000000000E+00 0. -1.
<mgrwt>
<rscale>  0 0.38461229E+04</rscale>
<asrwt>0</asrwt>
<pdfrwt beam="1">  1        2 0.17691355E+00 0.38461229E+04</pdfrwt>
<pdfrwt beam="2">  1       -2 0.49476447E+00 0.38461229E+04</pdfrwt>
<totfact> 0.28853187E-02</totfact>
</mgrwt>
</event>
<event>
 6    1  0.9562506E-007  0.1643988E+04  0.7818608E-02  0.8793971E-01
         -1   -1    0    0    0  501 -0.00000000000E+00  0.00000000000E+00  0.11865035088E+04  0.11865035088E+04  0.00000000000E+00 0.  1.
          1   -1    0    0  501    0  0.00000000000E+00 -0.00000000000E+00 -0.56946667349E+03  0.56946667349E+03  0.00000000000E+00 0. -1.
         23    2    1    2    0    0  0.56776443302E+02 -0.74210827920E+03  0.67551196195E+03  0.10093996210E+04  0.92859687084E+02 0.  0.
         11    1    3    3    0    0  0.55232973381E+02 -0.19046366022E+03  0.17176327021E+03  0.26235416560E+03  0.00000000000E+00 0.  1.
        -11    1    3    3    0    0  0.15434699217E+01 -0.55164461897E+03  0.50374869173E+03  0.74704545535E+03  0.00000000000E+00 0. -1.
         22    1    1    2    0    0 -0.56776443302E+02  0.74210827920E+03 -0.58475126674E+02  0.74657056130E+03  0.00000000000E+00 0.  1.
<mgrwt>
<rscale>  0 0.16439881E+04</rscale>
<asrwt>0</asrwt>
<pdfrwt beam="1">  1        1 0.87610258E-01 0.16439881E+04</pdfrwt>
<pdfrwt beam="2">  1       -1 0.18253900E+00 0.16439881E+04</pdfrwt>
<totfact> 0.70432679E+00</totfact>
</mgrwt>
</event>
<event>
 6    1  0.1074457E-006  0.3113416E+04  0.7818608E-02  0.8212066E-01
          2   -1    0    0  501    0  0.00000000000E+00  0.00000000000E+00  0.11744349842E+04  0.11744349842E+04  0.00000000000E+00 0. -1.
         -2   -1    0    0    0  501 -0.00000000000E+00 -0.00000000000E+00 -0.20634088897E+04  0.20634088897E+04  0.00000000000E+00 0.  1.
         23    2    1    2    0    0  0.75636995140E+03 -0.71550591525E+03  0.75721713663E+03  0.12900273617E+04  0.82149764291E+02 0.  0.
         11    1    3    3    0    0  0.59230682837E+03 -0.57785728325E+03  0.56244728281E+03  0.10005465330E+04  0.00000000000E+00 0. -1.
        -11    1    3    3    0    0  0.16406312303E+03 -0.13764863200E+03  0.19476985382E+03  0.28948082871E+03  0.00000000000E+00 0.  1.
         22    1    1    2    0    0 -0.75636995140E+03  0.71550591525E+03 -0.16461910421E+04  0.19478165122E+04  0.00000000000E+00 0.  1.
<mgrwt>
<rscale>  0 0.31134159E+04</rscale>
<asrwt>0</asrwt>
<pdfrwt beam="1">  1        2 0.18068231E+00 0.31134159E+04</pdfrwt>
<pdfrwt beam="2">  1       -2 0.31744752E+00 0.31134159E+04</pdfrwt>
<totfact> 0.41312821E-01</totfact>
</mgrwt>
</event>
<event>
 6    1  0.9562506E-007  0.1116179E+04  0.7818608E-02  0.9189565E-01
         -1   -1    0    0    0  501 -0.00000000000E+00  0.00000000000E+00  0.63518905237E+03  0.63518905237E+03  0.00000000000E+00 0.  1.
          1   -1    0    0  501    0  0.00000000000E+00 -0.00000000000E+00 -0.49034796628E+03  0.49034796628E+03  0.00000000000E+00 0. -1.
         23    2    1    2    0    0 -0.44821625516E+03  0.15984690989E+02 -0.25587440650E+03  0.52410021588E+03  0.89755237435E+02 0.  0.
         13    1    3    3    0    0 -0.11533224886E+03  0.83715067286E+01 -0.11329446097E+03  0.16188651778E+03  0.00000000000E+00 0.  1.
        -13    1    3    3    0    0 -0.33288400629E+03  0.76131842605E+01 -0.14257994553E+03  0.36221369810E+03  0.00000000000E+00 0. -1.
         22    1    1    2    0    0  0.44821625516E+03 -0.15984690989E+02  0.40071549259E+03  0.60143680277E+03  0.00000000000E+00 0. -1.
<mgrwt>
<rscale>  0 0.11161786E+04</rscale>
<asrwt>0</asrwt>
<pdfrwt beam="1">  1        1 0.75438149E-01 0.11161786E+04</pdfrwt>
<pdfrwt beam="2">  1       -1 0.97721392E-01 0.11161786E+04</pdfrwt>
<totfact> 0.45556116E+01</totfact>
</mgrwt>
</event>
<event>
 6    1  0.9562506E-007  0.3718775E+04  0.7818608E-02  0.8063814E-01
         -2   -1    0    0    0  501 -0.00000000000E+00  0.00000000000E+00  0.89663932154E+03  0.89663932154E+03  0.00000000000E+00 0.  1.
          2   -1    0    0  501    0  0.00000000000E+00 -0.00000000000E+00 -0.38558678015E+04  0.38558678015E+04  0.00000000000E+00 0. -1.
         23    2    1    2    0    0 -0.12558335145E+04 -0.78628815112E+03 -0.47174672083E+02  0.14851803483E+04  0.90378894452E+02 0.  0.
         13    1    3    3    0    0 -0.49795300235E+03 -0.35522662796E+03  0.55113496559E+01  0.61169724925E+03  0.00000000000E+00 0.  1.
        -13    1    3    3    0    0 -0.75788051218E+03 -0.43106152315E+03 -0.52686021739E+02  0.87348309908E+03  0.00000000000E+00 0. -1.
         22    1    1    2    0    0  0.12558335145E+04  0.78628815112E+03 -0.29120538079E+04  0.32673267748E+04  0.00000000000E+00 0. -1.
<mgrwt>
<rscale>  0 0.37187754E+04</rscale>
<asrwt>0</asrwt>
<pdfrwt beam="1">  1        2 0.59321042E+00 0.37187754E+04</pdfrwt>
<pdfrwt beam="2">  1       -2 0.13794451E+00 0.37187754E+04</pdfrwt>
<totfact> 0.13367513E-01</totfact>
</mgrwt>
</event>
<event>
 6    1  0.9562506E-007  0.1685656E+04  0.7818608E-02  0.8769588E-01
          2   -1    0    0  501    0  0.00000000000E+00  0.00000000000E+00  0.17498223519E+04  0.17498223519E+04  0.00000000000E+00 0. -1.
         -2   -1    0    0    0  501 -0.00000000000E+00 -0.00000000000E+00 -0.40596064056E+03  0.40596064056E+03  0.00000000000E+00 0.  1.
         23    2    1    2    0    0  0.52751849844E+03  0.12971664964E+03 -0.14550238630E+03  0.57044151797E+03  0.95553155999E+02 0.  0.
         13    1    3    3    0    0  0.26597071561E+03  0.11278486927E+03 -0.63202740756E+02  0.29572865052E+03  0.00000000000E+00 0. -1.
        -13    1    3    3    0    0  0.26154778283E+03  0.16931780369E+02 -0.82299645548E+02  0.27471286746E+03  0.00000000000E+00 0.  1.
         22    1    1    2    0    0 -0.52751849844E+03 -0.12971664964E+03  0.14893640977E+04  0.15853414745E+04  0.00000000000E+00 0. -1.
<mgrwt>
<rscale>  0 0.16856560E+04</rscale>
<asrwt>0</asrwt>
<pdfrwt beam="1">  1        2 0.26920343E+00 0.16856560E+04</pdfrwt>
<pdfrwt beam="2">  1       -2 0.62455484E-01 0.16856560E+04</pdfrwt>
<totfact> 0.20842652E+01</totfact>
</mgrwt>
</event>
<event>
 6    1  0.9562506E-007  0.2330764E+03  0.7818608E-02  0.1124493E+00
          4   -1    0    0  501    0  0.00000000000E+00  0.00000000000E+00  0.23788911257E+03  0.23788911257E+03  0.00000000000E+00 0. -1.
         -4   -1    0    0    0  501 -0.00000000000E+00 -0.00000000000E+00 -0.57090259756E+02  0.57090259756E+02  0.00000000000E+00 0.  1.
         23    2    1    2    0    0 -0.18073729549E+02 -0.55696260158E+01  0.22702125151E+03  0.24503750036E+03  0.90260996610E+02 0.  0.
         13    1    3    3    0    0  0.56933224630E+01 -0.40344919602E+02  0.58225806815E+02  0.71065962581E+02  0.00000000000E+00 0.  1.
        -13    1    3    3    0    0 -0.23767052012E+02  0.34775293586E+02  0.16879544470E+03  0.17397153778E+03  0.00000000000E+00 0. -1.
         22    1    1    2    0    0  0.18073729549E+02  0.55696260158E+01 -0.46222398701E+02  0.49941871966E+02  0.00000000000E+00 0.  1.
<mgrwt>
<rscale>  0 0.23307639E+03</rscale>
<asrwt>0</asrwt>
<pdfrwt beam="1">  1        4 0.36598324E-01 0.23307639E+03</pdfrwt>
<pdfrwt beam="2">  1       -4 0.87831170E-02 0.23307639E+03</pdfrwt>
<totfact> 0.12531219E+03</totfact>
</mgrwt>
</event>
<event>
 6    1  0.9562506E-007  0.1030962E+04  0.7818608E-02  0.9275223E-01
          1   -1    0    0  501    0  0.00000000000E+00  0.00000000000E+00  0.13947068955E+04  0.13947068955E+04  0.00000000000E+00 0. -1.
         -1   -1    0    0    0  501 -0.00000000000E+00 -0.00000000000E+00 -0.19052091260E+03  0.19052091260E+03  0.00000000000E+00 0.  1.
         23    2    1    2    0    0 -0.14111921653E+03  0.24824596023E+03  0.12591974110E+04  0.12944238410E+04  0.91729331899E+02 0.  0.
         11    1    3    3    0    0 -0.10639011542E+03  0.12477108689E+03  0.55807172842E+03  0.58166204521E+03  0.00000000000E+00 0. -1.
        -11    1    3    3    0    0 -0.34729101116E+02  0.12347487334E+03  0.70112568254E+03  0.71276179579E+03  0.00000000000E+00 0.  1.
         22    1    1    2    0    0  0.14111921653E+03 -0.24824596023E+03 -0.55011428095E+02  0.29080396707E+03  0.00000000000E+00 0.  1.
<mgrwt>
<rscale>  0 0.10309623E+04</rscale>
<asrwt>0</asrwt>
<pdfrwt beam="1">  1        1 0.21457029E+00 0.10309623E+04</pdfrwt>
<pdfrwt beam="2">  1       -1 0.29310910E-01 0.10309623E+04</pdfrwt>
<totfact> 0.82379327E+01</totfact>
</mgrwt>
</event>
<event>
 6    1  0.9562506E-007  0.1448884E+04  0.7818608E-02  0.8919175E-01
          1   -1    0    0  501    0  0.00000000000E+00  0.00000000000E+00  0.22012591089E+04  0.22012591089E+04  0.00000000000E+00 0. -1.
         -1   -1    0    0    0  501 -0.00000000000E+00 -0.00000000000E+00 -0.23841635523E+03  0.23841635523E+03  0.00000000000E+00 0.  1.
         23    2    1    2    0    0 -0.17741117506E+03  0.30284973513E+03 -0.81317301740E+02  0.36560144924E+03  0.62122693267E+02 0.  0.
         11    1    3    3    0    0 -0.96125831960E+02  0.15985477298E+03 -0.11412780345E+02  0.18687957505E+03  0.00000000000E+00 0. -1.
        -11    1    3    3    0    0 -0.81285343098E+02  0.14299496215E+03 -0.69904521395E+02  0.17872187419E+03  0.00000000000E+00 0.  1.
         22    1    1    2    0    0  0.17741117506E+03 -0.30284973513E+03  0.20441600554E+04  0.20740740149E+04  0.00000000000E+00 0. -1.
<mgrwt>
<rscale>  0 0.14488839E+04</rscale>
<asrwt>0</asrwt>
<pdfrwt beam="1">  1        1 0.33865523E+00 0.14488839E+04</pdfrwt>
<pdfrwt beam="2">  1       -1 0.36679441E-01 0.14488839E+04</pdfrwt>
<totfact> 0.15083618E+01</totfact>
</mgrwt>
</event>
<event>
 6    1  0.9562506E-007  0.2204626E+04  0.7818608E-02  0.8516505E-01
          2   -1    0    0  501    0  0.00000000000E+00  0.00000000000E+00  0.19445204762E+04  0.19445204762E+04  0.00000000000E+00 0. -1.
         -2   -1    0    0    0  501 -0.00000000000E+00 -0.00000000000E+00 -0.62488080158E+03  0.62488080158E+03  0.00000000000E+00 0.  1.
         23    2    1    2    0    0  0.76889582039E+03 -0.59029309365E+03  0.54047251068E+02  0.97523350067E+03  0.92263516375E+02 0.  0.
         11    1    3    3    0    0  0.56620887833E+03 -0.39693776532E+03  0.67614223566E+02  0.69478325157E+03  0.00000000000E+00 0. -1.
        -11    1    3    3    0    0  0.20268694206E+03 -0.19335532833E+03 -0.13566972498E+02  0.28045024909E+03  0.00000000000E+00 0.  1.
         22    1    1    2    0    0 -0.76889582039E+03  0.59029309365E+03  0.12655924236E+04  0.15941677771E+04  0.00000000000E+00 0. -1.
<mgrwt>
<rscale>  0 0.22046256E+04</rscale>
<asrwt>0</asrwt>
<pdfrwt beam="1">  1        2 0.29915699E+00 0.22046256E+04</pdfrwt>
<pdfrwt beam="2">  1       -2 0.96135509E-01 0.22046256E+04</pdfrwt>
<totfact> 0.59404028E+00</totfact>
</mgrwt>
</event>
<event>
 6    1  0.9562506E-007  0.3001739E+04  0.7818608E-02  0.8243235E-01
          2   -1    0    0  501    0  0.00000000000E+00  0.00000000000E+00  0.29573281765E+04  0.29573281765E+04  0.00000000000E+00 0. -1.
         -2   -1    0    0    0  501 -0.00000000000E+00 -0.00000000000E+00 -0.76170407895E+03  0.76170407895E+03  0.00000000000E+00 0.  1.
         23    2    1    2    0    0 -0.13501507526E+04 -0.64841399108E+03  0.10092649206E+04  0.18083266646E+04  0.89899317357E+02 0.  0.
         13    1    3    3    0    0 -0.10258085206E+04 -0.49262145813E+03  0.81218175492E+03  0.13980694636E+04  0.00000000000E+00 0.  1.
        -13    1    3    3    0    0 -0.32434223192E+03 -0.15579253295E+03  0.19708316573E+03  0.41025720097E+03  0.00000000000E+00 0. -1.
         22    1    1    2    0    0  0.13501507526E+04  0.64841399108E+03  0.11863591769E+04  0.19107055909E+04  0.00000000000E+00 0.  1.
<mgrwt>
<rscale>  0 0.30017388E+04</rscale>
<asrwt>0</asrwt>
<pdfrwt beam="1">  1        2 0.45497356E+00 0.30017388E+04</pdfrwt>
<pdfrwt beam="2">  1       -2 0.11718524E+00 0.30017388E+04</pdfrwt>
<totfact> 0.89176683E-01</totfact>
</mgrwt>
</event>
<event>
 6    1  0.9562506E-007  0.6477661E+04  0.7818608E-02  0.7633843E-01
          1   -1    0    0  501    0  0.00000000000E+00  0.00000000000E+00  0.43294296674E+04  0.43294296674E+04  0.00000000000E+00 0. -1.
         -1   -1    0    0    0  501 -0.00000000000E+00 -0.00000000000E+00 -0.24229574103E+04  0.24229574103E+04  0.00000000000E+00 0.  1.
         23    2    1    2    0    0 -0.69478782368E+03  0.28633376959E+04 -0.44686507539E+03  0.29814946793E+04  0.90494454796E+02 0.  0.
         13    1    3    3    0    0 -0.29289066304E+03  0.10253552118E+04 -0.16915315766E+03  0.10796995145E+04  0.00000000000E+00 0. -1.
        -13    1    3    3    0    0 -0.40189716064E+03  0.18379824840E+04 -0.27771191773E+03  0.19017951647E+04  0.00000000000E+00 0.  1.
         22    1    1    2    0    0  0.69478782368E+03 -0.28633376959E+04  0.23533373325E+04  0.37708923985E+04  0.00000000000E+00 0.  1.
<mgrwt>
<rscale>  0 0.64776612E+04</rscale>
<asrwt>0</asrwt>
<pdfrwt beam="1">  1        1 0.66606610E+00 0.64776612E+04</pdfrwt>
<pdfrwt beam="2">  1       -1 0.37276268E+00 0.64776612E+04</pdfrwt>
<totfact> 0.33397609E-04</totfact>
</mgrwt>
</event>
<event>
 6    1  0.9562506E-007  0.1144924E+04  0.7818608E-02  0.9162479E-01
         -2   -1    0    0    0  501 -0.00000000000E+00  0.00000000000E+00  0.76988588997E+03  0.76988588997E+03  0.00000000000E+00 0.  1.
          2   -1    0    0  501    0  0.00000000000E+00 -0.00000000000E+00 -0.42566393554E+03  0.42566393554E+03  0.00000000000E+00 0. -1.
         23    2    1    2    0    0 -0.17363870465E+03  0.34152122586E+03  0.61247318196E+03  0.72784706891E+03  0.88604794666E+02 0.  0.
         13    1    3    3    0    0 -0.34877698876E+02  0.16084330874E+03  0.28063682839E+03  0.32533683052E+03  0.00000000000E+00 0.  1.
        -13    1    3    3    0    0 -0.13876100577E+03  0.18067791712E+03  0.33183635357E+03  0.40251023839E+03  0.00000000000E+00 0. -1.
         22    1    1    2    0    0  0.17363870465E+03 -0.34152122586E+03 -0.26825122753E+03  0.46770275660E+03  0.00000000000E+00 0. -1.
<mgrwt>
<rscale>  0 0.11449239E+04</rscale>
<asrwt>0</asrwt>
<pdfrwt beam="1">  1        2 0.65486759E-01 0.11449239E+04</pdfrwt>
<pdfrwt beam="2">  1       -2 0.11844398E+00 0.11449239E+04</pdfrwt>
<totfact> 0.40234316E+01</totfact>
</mgrwt>
</event>
<event>
 6    1  0.9562506E-007  0.2202178E+04  0.7818608E-02  0.8517522E-01
          2   -1    0    0  501    0  0.00000000000E+00  0.00000000000E+00  0.18977425617E+04  0.18977425617E+04  0.00000000000E+00 0. -1.
         -2   -1    0    0    0  501 -0.00000000000E+00 -0.00000000000E+00 -0.63886290414E+03  0.63886290414E+03  0.00000000000E+00 0.  1.
         23    2    1    2    0    0 -0.25654901654E+03 -0.19363718292E+03 -0.58087267016E+03  0.66898629056E+03  0.82564166063E+02 0.  0.
         11    1    3    3    0    0  0.15885769567E+01 -0.17248990886E+01 -0.37288205846E+02  0.37361867576E+02  0.00000000000E+00 0. -1.
        -11    1    3    3    0    0 -0.25813759350E+03 -0.19191228383E+03 -0.54358446432E+03  0.63162442299E+03  0.00000000000E+00 0.  1.
         22    1    1    2    0    0  0.25654901654E+03  0.19363718292E+03  0.18397523278E+04  0.18676191753E+04  0.00000000000E+00 0. -1.
<mgrwt>
<rscale>  0 0.22021783E+04</rscale>
<asrwt>0</asrwt>
<pdfrwt beam="1">  1        2 0.29196039E+00 0.22021783E+04</pdfrwt>
<pdfrwt beam="2">  1       -2 0.98286601E-01 0.22021783E+04</pdfrwt>
<totfact> 0.59881442E+00</totfact>
</mgrwt>
</event>
<event>
 6    1  0.9562506E-007  0.2260510E+04  0.7818608E-02  0.8493656E-01
          1   -1    0    0  501    0  0.00000000000E+00  0.00000000000E+00  0.89559549408E+03  0.89559549408E+03  0.00000000000E+00 0. -1.
         -1   -1    0    0    0  501 -0.00000000000E+00 -0.00000000000E+00 -0.14263991908E+04  0.14263991908E+04  0.00000000000E+00 0.  1.
         23    2    1    2    0    0  0.97291471625E+03  0.26907765649E+02  0.32074935891E+03  0.10287701570E+04  0.90558333450E+02 0.  0.
         13    1    3    3    0    0  0.72472992801E+03  0.56387875523E+02  0.22232707533E+03  0.76015945004E+03  0.00000000000E+00 0. -1.
        -13    1    3    3    0    0  0.24818478824E+03 -0.29480109874E+02  0.98422283585E+02  0.26861070697E+03  0.00000000000E+00 0.  1.
         22    1    1    2    0    0 -0.97291471625E+03 -0.26907765649E+02 -0.85155305569E+03  0.12932245279E+04  0.00000000000E+00 0.  1.
<mgrwt>
<rscale>  0 0.22605103E+04</rscale>
<asrwt>0</asrwt>
<pdfrwt beam="1">  1        1 0.13778392E+00 0.22605103E+04</pdfrwt>
<pdfrwt beam="2">  1       -1 0.21944603E+00 0.22605103E+04</pdfrwt>
<totfact> 0.18470541E+00</totfact>
</mgrwt>
</event>
<event>
 6    1  0.9562506E-007  0.3671089E+04  0.7818608E-02  0.8074399E-01
          2   -1    0    0  501    0  0.00000000000E+00  0.00000000000E+00  0.18308457993E+04  0.18308457993E+04  0.00000000000E+00 0. -1.
         -2   -1    0    0    0  501 -0.00000000000E+00 -0.00000000000E+00 -0.18402552552E+04  0.18402552552E+04  0.00000000000E+00 0.  1.
         23    2    1    2    0    0  0.48627344923E+03  0.14279497000E+04  0.10391224090E+04  0.18340051712E+04  0.91089922385E+02 0.  0.
         11    1    3    3    0    0  0.23281205594E+03  0.81900655496E+03  0.59972603221E+03  0.10414626754E+04  0.00000000000E+00 0.  1.
        -11    1    3    3    0    0  0.25346139329E+03  0.60894314500E+03  0.43939637677E+03  0.79254249580E+03  0.00000000000E+00 0. -1.
         22    1    1    2    0    0 -0.48627344923E+03 -0.14279497000E+04 -0.10485318649E+04  0.18370958834E+04  0.00000000000E+00 0.  1.
<mgrwt>
<rscale>  0 0.36710890E+04</rscale>
<asrwt>0</asrwt>
<pdfrwt beam="1">  1        2 0.28166858E+00 0.36710890E+04</pdfrwt>
<pdfrwt beam="2">  1       -2 0.28311619E+00 0.36710890E+04</pdfrwt>
<totfact> 0.27094832E-01</totfact>
</mgrwt>
</event>
<event>
 6    1  0.9562506E-007  0.4475176E+04  0.7818608E-02  0.7914997E-01
          2   -1    0    0  501    0  0.00000000000E+00  0.00000000000E+00  0.29134383791E+04  0.29134383791E+04  0.00000000000E+00 0. -1.
         -2   -1    0    0    0  501 -0.00000000000E+00 -0.00000000000E+00 -0.17185189739E+04  0.17185189739E+04  0.00000000000E+00 0.  1.
         23    2    1    2    0    0 -0.15605549894E+04 -0.13797547567E+04  0.14407957945E+04  0.25344563965E+04  0.92312734209E+02 0.  0.
         11    1    3    3    0    0 -0.34964972708E+03 -0.35716729594E+03  0.32603593249E+03  0.59676028538E+03  0.00000000000E+00 0. -1.
        -11    1    3    3    0    0 -0.12109052623E+04 -0.10225874608E+04  0.11147598620E+04  0.19376961111E+04  0.00000000000E+00 0.  1.
         22    1    1    2    0    0  0.15605549894E+04  0.13797547567E+04 -0.24587638920E+03  0.20975009565E+04  0.00000000000E+00 0.  1.
<mgrwt>
<rscale>  0 0.44751756E+04</rscale>
<asrwt>0</asrwt>
<pdfrwt beam="1">  1        2 0.44822129E+00 0.44751756E+04</pdfrwt>
<pdfrwt beam="2">  1       -2 0.26438753E+00 0.44751756E+04</pdfrwt>
<totfact> 0.78461780E-02</totfact>
</mgrwt>
</event>
<event>
 6    1  0.9562506E-007  0.1574252E+04  0.7818608E-02  0.8836524E-01
         -1   -1    0    0    0  501 -0.00000000000E+00  0.00000000000E+00  0.55448543134E+03  0.55448543134E+03  0.00000000000E+00 0.  1.
          1   -1    0    0  501    0  0.00000000000E+00 -0.00000000000E+00 -0.11173728381E+04  0.11173728381E+04  0.00000000000E+00 0. -1.
         23    2    1    2    0    0 -0.39833912782E+03 -0.50102354378E+03  0.19883387207E+03  0.67691206044E+03  0.94743742341E+02 0.  0.
         11    1    3    3    0    0 -0.37635060653E+03 -0.42408621052E+03  0.17649764949E+03  0.59383525768E+03  0.00000000000E+00 0.  1.
        -11    1    3    3    0    0 -0.21988521289E+02 -0.76937333259E+02  0.22336222582E+02  0.83076802760E+02  0.00000000000E+00 0. -1.
         22    1    1    2    0    0  0.39833912782E+03  0.50102354378E+03 -0.76172127881E+03  0.99494620898E+03  0.00000000000E+00 0.  1.
<mgrwt>
<rscale>  0 0.15742515E+04</rscale>
<asrwt>0</asrwt>
<pdfrwt beam="1">  1        1 0.17190351E+00 0.15742515E+04</pdfrwt>
<pdfrwt beam="2">  1       -1 0.85305451E-01 0.15742515E+04</pdfrwt>
<totfact> 0.16073054E+01</totfact>
</mgrwt>
</event>
<event>
 6    1  0.9562506E-007  0.6530766E+03  0.7818608E-02  0.9801023E-01
         -3   -1    0    0    0  501 -0.00000000000E+00  0.00000000000E+00  0.13749202910E+03  0.13749202910E+03  0.00000000000E+00 0.  1.
          3   -1    0    0  501    0  0.00000000000E+00 -0.00000000000E+00 -0.77551604953E+03  0.77551604953E+03  0.00000000000E+00 0. -1.
         23    2    1    2    0    0  0.41083684787E+02 -0.15388484620E+03 -0.71352731601E+03  0.73674361060E+03  0.91112578842E+02 0.  0.
         11    1    3    3    0    0  0.61029007133E+02 -0.10754958174E+03 -0.59849257672E+03  0.61113404146E+03  0.00000000000E+00 0. -1.
        -11    1    3    3    0    0 -0.19945322346E+02 -0.46335264459E+02 -0.11503473929E+03  0.12560956914E+03  0.00000000000E+00 0.  1.
         22    1    1    2    0    0 -0.41083684787E+02  0.15388484620E+03  0.75503295584E+02  0.17626446803E+03  0.00000000000E+00 0.  1.
<mgrwt>
<rscale>  0 0.65307664E+03</rscale>
<asrwt>0</asrwt>
<pdfrwt beam="1">  1        3 0.11931016E+00 0.65307664E+03</pdfrwt>
<pdfrwt beam="2">  1       -3 0.21152620E-01 0.65307664E+03</pdfrwt>
<totfact> 0.31433561E+01</totfact>
</mgrwt>
</event>
<event>
 6    1  0.9562506E-007  0.1725228E+04  0.7818608E-02  0.8747105E-01
          1   -1    0    0  501    0  0.00000000000E+00  0.00000000000E+00  0.46831327795E+03  0.46831327795E+03  0.00000000000E+00 0. -1.
         -1   -1    0    0    0  501 -0.00000000000E+00 -0.00000000000E+00 -0.15888997875E+04  0.15888997875E+04  0.00000000000E+00 0.  1.
         23    2    1    2    0    0 -0.41545357927E+03  0.21831565416E+03  0.29808314873E+03  0.56292828645E+03  0.88154924695E+02 0.  0.
         11    1    3    3    0    0 -0.29559278372E+03  0.11029581552E+03  0.21125843392E+03  0.37969775692E+03  0.00000000000E+00 0. -1.
        -11    1    3    3    0    0 -0.11986079556E+03  0.10801983864E+03  0.86824714815E+02  0.18323052953E+03  0.00000000000E+00 0.  1.
         22    1    1    2    0    0  0.41545357927E+03 -0.21831565416E+03 -0.14186696583E+04  0.14942847790E+04  0.00000000000E+00 0.  1.
<mgrwt>
<rscale>  0 0.17252279E+04</rscale>
<asrwt>0</asrwt>
<pdfrwt beam="1">  1        1 0.72048197E-01 0.17252279E+04</pdfrwt>
<pdfrwt beam="2">  1       -1 0.24444612E+00 0.17252279E+04</pdfrwt>
<totfact> 0.34914231E+00</totfact>
</mgrwt>
</event>
<event>
 6    1  0.9562506E-007  0.1366087E+04  0.7818608E-02  0.8978739E-01
          2   -1    0    0  501    0  0.00000000000E+00  0.00000000000E+00  0.35920935064E+03  0.35920935064E+03  0.00000000000E+00 0. -1.
         -2   -1    0    0    0  501 -0.00000000000E+00 -0.00000000000E+00 -0.12988198097E+04  0.12988198097E+04  0.00000000000E+00 0.  1.
         23    2    1    2    0    0  0.54263472926E+03 -0.88362044173E+02  0.13996878180E+02  0.55728974800E+03  0.90086904595E+02 0.  0.
         13    1    3    3    0    0  0.43449959099E+03 -0.60301700896E+02 -0.23915219231E+02  0.43931552148E+03  0.00000000000E+00 0.  1.
        -13    1    3    3    0    0  0.10813513827E+03 -0.28060343277E+02  0.37912097411E+02  0.11797422652E+03  0.00000000000E+00 0. -1.
         22    1    1    2    0    0 -0.54263472926E+03  0.88362044173E+02 -0.95360733720E+03  0.11007394123E+04  0.00000000000E+00 0.  1.
<mgrwt>
<rscale>  0 0.13660867E+04</rscale>
<asrwt>0</asrwt>
<pdfrwt beam="1">  1        2 0.55262977E-01 0.13660867E+04</pdfrwt>
<pdfrwt beam="2">  1       -2 0.19981843E+00 0.13660867E+04</pdfrwt>
<totfact> 0.11668174E+01</totfact>
</mgrwt>
</event>
<event>
 6    1  0.9562506E-007  0.1925518E+04  0.7818608E-02  0.8642258E-01
          2   -1    0    0  501    0  0.00000000000E+00  0.00000000000E+00  0.15374912742E+04  0.15374912742E+04  0.00000000000E+00 0. -1.
         -2   -1    0    0    0  501 -0.00000000000E+00 -0.00000000000E+00 -0.60286809369E+03  0.60286809369E+03  0.00000000000E+00 0.  1.
         23    2    1    2    0    0 -0.24436802315E+03 -0.23236596357E+03 -0.53138247332E+03  0.63607141379E+03  0.92248787085E+02 0.  0.
         13    1    3    3    0    0 -0.58370422232E+01 -0.47201391047E+02 -0.76844783507E+02  0.90372358224E+02  0.00000000000E+00 0. -1.
        -13    1    3    3    0    0 -0.23853098093E+03 -0.18516457252E+03 -0.45453768981E+03  0.54569905556E+03  0.00000000000E+00 0.  1.
         22    1    1    2    0    0  0.24436802315E+03  0.23236596357E+03  0.14660056538E+04  0.15042879541E+04  0.00000000000E+00 0. -1.
<mgrwt>
<rscale>  0 0.19255175E+04</rscale>
<asrwt>0</asrwt>
<pdfrwt beam="1">  1        2 0.23653712E+00 0.19255175E+04</pdfrwt>
<pdfrwt beam="2">  1       -2 0.92748938E-01 0.19255175E+04</pdfrwt>
<totfact> 0.11138571E+01</totfact>
</mgrwt>
</event>
<event>
 6    1  0.9562506E-007  0.1562135E+04  0.7818608E-02  0.8844154E-01
          1   -1    0    0  501    0  0.00000000000E+00  0.00000000000E+00  0.10391505495E+04  0.10391505495E+04  0.00000000000E+00 0. -1.
         -1   -1    0    0    0  501 -0.00000000000E+00 -0.00000000000E+00 -0.58708161169E+03  0.58708161169E+03  0.00000000000E+00 0.  1.
         23    2    1    2    0    0  0.74092147079E+03  0.33827018696E+02  0.47277557104E+03  0.88424991227E+03  0.90952040727E+02 0.  0.
         13    1    3    3    0    0  0.64740119728E+03  0.21205334174E+02  0.44500643260E+03  0.78588084433E+03  0.00000000000E+00 0.  1.
        -13    1    3    3    0    0  0.93520273505E+02  0.12621684523E+02  0.27769138439E+02  0.98369067934E+02  0.00000000000E+00 0. -1.
         22    1    1    2    0    0 -0.74092147079E+03 -0.33827018696E+02 -0.20706633219E+02  0.74198224893E+03  0.00000000000E+00 0.  1.
<mgrwt>
<rscale>  0 0.15621347E+04</rscale>
<asrwt>0</asrwt>
<pdfrwt beam="1">  1        1 0.15986932E+00 0.15621347E+04</pdfrwt>
<pdfrwt beam="2">  1       -1 0.90320248E-01 0.15621347E+04</pdfrwt>
<totfact> 0.16277420E+01</totfact>
</mgrwt>
</event>
<event>
 6    1  0.9562506E-007  0.2190965E+04  0.7818608E-02  0.8522198E-01
          1   -1    0    0  501    0  0.00000000000E+00  0.00000000000E+00  0.22084659619E+04  0.22084659619E+04  0.00000000000E+00 0. -1.
         -1   -1    0    0    0  501 -0.00000000000E+00 -0.00000000000E+00 -0.54340068270E+03  0.54340068270E+03  0.00000000000E+00 0.  1.
         23    2    1    2    0    0  0.36227111048E+03 -0.10308045852E+04  0.77218504963E+03  0.13408267604E+04  0.88023861545E+02 0.  0.
         13    1    3    3    0    0  0.19016730376E+03 -0.43019458647E+03  0.30316144426E+03  0.55958721119E+03  0.00000000000E+00 0.  1.
        -13    1    3    3    0    0  0.17210380672E+03 -0.60060999874E+03  0.46902360537E+03  0.78123954922E+03  0.00000000000E+00 0. -1.
         22    1    1    2    0    0 -0.36227111048E+03  0.10308045852E+04  0.89288022957E+03  0.14110398842E+04  0.00000000000E+00 0. -1.
<mgrwt>
<rscale>  0 0.21909650E+04</rscale>
<asrwt>0</asrwt>
<pdfrwt beam="1">  1        1 0.33976399E+00 0.21909650E+04</pdfrwt>
<pdfrwt beam="2">  1       -1 0.83600106E-01 0.21909650E+04</pdfrwt>
<totfact> 0.27834695E+00</totfact>
</mgrwt>
</event>
<event>
 6    1  0.9562506E-007  0.5616136E+03  0.7818608E-02  0.9988410E-01
         -2   -1    0    0    0  501 -0.00000000000E+00  0.00000000000E+00  0.13127724398E+03  0.13127724398E+03  0.00000000000E+00 0.  1.
          2   -1    0    0  501    0  0.00000000000E+00 -0.00000000000E+00 -0.60065599932E+03  0.60065599932E+03  0.00000000000E+00 0. -1.
         23    2    1    2    0    0  0.13858734856E+03 -0.92188253808E+02 -0.52365398902E+03  0.55685917808E+03  0.90407503383E+02 0.  0.
         13    1    3    3    0    0  0.11148579822E+03 -0.10936415917E+03 -0.40906342798E+03  0.43786126870E+03  0.00000000000E+00 0. -1.
        -13    1    3    3    0    0  0.27101550341E+02  0.17175905367E+02 -0.11459056104E+03  0.11899790938E+03  0.00000000000E+00 0.  1.
         22    1    1    2    0    0 -0.13858734856E+03  0.92188253808E+02  0.54275233684E+02  0.17507406522E+03  0.00000000000E+00 0.  1.
<mgrwt>
<rscale>  0 0.56161362E+03</rscale>
<asrwt>0</asrwt>
<pdfrwt beam="1">  1        2 0.92408614E-01 0.56161362E+03</pdfrwt>
<pdfrwt beam="2">  1       -2 0.20196499E-01 0.56161362E+03</pdfrwt>
<totfact> 0.10423115E+03</totfact>
</mgrwt>
</event>
<event>
 6    1  0.9562506E-007  0.1674456E+04  0.7818608E-02  0.8776068E-01
         -2   -1    0    0    0  501 -0.00000000000E+00  0.00000000000E+00  0.22702815731E+03  0.22702815731E+03  0.00000000000E+00 0.  1.
          2   -1    0    0  501    0  0.00000000000E+00 -0.00000000000E+00 -0.30875065521E+04  0.30875065521E+04  0.00000000000E+00 0. -1.
         23    2    1    2    0    0  0.79420571354E+03  0.82374723527E+02 -0.19163587819E+04  0.20780436443E+04  0.91027998105E+02 0.  0.
         13    1    3    3    0    0  0.20141745100E+03  0.52271672119E+01 -0.58232361440E+03  0.61619567081E+03  0.00000000000E+00 0. -1.
        -13    1    3    3    0    0  0.59278826254E+03  0.77147556315E+02 -0.13340351675E+04  0.14618479735E+04  0.00000000000E+00 0.  1.
         22    1    1    2    0    0 -0.79420571354E+03 -0.82374723527E+02 -0.94411961292E+03  0.12364910651E+04  0.00000000000E+00 0.  1.
<mgrwt>
<rscale>  0 0.16744562E+04</rscale>
<asrwt>0</asrwt>
<pdfrwt beam="1">  1        2 0.47500102E+00 0.16744562E+04</pdfrwt>
<pdfrwt beam="2">  1       -2 0.34927408E-01 0.16744562E+04</pdfrwt>
<totfact> 0.11306718E+01</totfact>
</mgrwt>
</event>
<event>
 6    1  0.9562506E-007  0.1955396E+04  0.7818608E-02  0.8627763E-01
          1   -1    0    0  501    0  0.00000000000E+00  0.00000000000E+00  0.15942434579E+04  0.15942434579E+04  0.00000000000E+00 0. -1.
         -1   -1    0    0    0  501 -0.00000000000E+00 -0.00000000000E+00 -0.59959037426E+03  0.59959037426E+03  0.00000000000E+00 0.  1.
         23    2    1    2    0    0 -0.38811449830E+03 -0.82554907443E+03  0.88630060509E+03  0.12751911390E+04  0.91758053483E+02 0.  0.
         13    1    3    3    0    0 -0.18197571582E+03 -0.49257365902E+03  0.51701734343E+03  0.73691987632E+03  0.00000000000E+00 0.  1.
        -13    1    3    3    0    0 -0.20613878248E+03 -0.33297541541E+03  0.36928326166E+03  0.53827126270E+03  0.00000000000E+00 0. -1.
         22    1    1    2    0    0  0.38811449830E+03  0.82554907443E+03  0.10835247858E+03  0.91864269316E+03  0.00000000000E+00 0.  1.
<mgrwt>
<rscale>  0 0.19553956E+04</rscale>
<asrwt>0</asrwt>
<pdfrwt beam="1">  1        1 0.24526822E+00 0.19553956E+04</pdfrwt>
<pdfrwt beam="2">  1       -1 0.92244674E-01 0.19553956E+04</pdfrwt>
<totfact> 0.59967979E+00</totfact>
</mgrwt>
</event>
<event>
 6    1  0.9562506E-007  0.3463360E+04  0.7818608E-02  0.8122528E-01
         -1   -1    0    0    0  501 -0.00000000000E+00  0.00000000000E+00  0.81912135017E+03  0.81912135017E+03  0.00000000000E+00 0.  1.
          1   -1    0    0  501    0  0.00000000000E+00 -0.00000000000E+00 -0.36608929679E+04  0.36608929679E+04  0.00000000000E+00 0. -1.
         23    2    1    2    0    0 -0.19312303396E+03 -0.33964929740E+03 -0.36023624148E+04  0.36249374138E+04  0.10246040869E+03 0.  0.
         13    1    3    3    0    0 -0.10163436340E+03 -0.83471862035E+02 -0.11011893695E+04  0.11090153845E+04  0.00000000000E+00 0.  1.
        -13    1    3    3    0    0 -0.91488670558E+02 -0.25617743537E+03 -0.25011730453E+04  0.25159220293E+04  0.00000000000E+00 0. -1.
         22    1    1    2    0    0  0.19312303396E+03  0.33964929740E+03  0.76059079709E+03  0.85507690419E+03  0.00000000000E+00 0.  1.
<mgrwt>
<rscale>  0 0.34633600E+04</rscale>
<asrwt>0</asrwt>
<pdfrwt beam="1">  1        1 0.56321431E+00 0.34633600E+04</pdfrwt>
<pdfrwt beam="2">  1       -1 0.12601867E+00 0.34633600E+04</pdfrwt>
<totfact> 0.83195601E-02</totfact>
</mgrwt>
</event>
<event>
 6    1  0.9562506E-007  0.2076248E+04  0.7818608E-02  0.8571779E-01
         -1   -1    0    0    0  501 -0.00000000000E+00  0.00000000000E+00  0.10019187292E+04  0.10019187292E+04  0.00000000000E+00 0.  1.
          1   -1    0    0  501    0  0.00000000000E+00 -0.00000000000E+00 -0.10756372574E+04  0.10756372574E+04  0.00000000000E+00 0. -1.
         23    2    1    2    0    0 -0.16542820268E+03  0.51743947212E+03  0.84598356557E+03  0.10093977404E+04  0.89919450953E+02 0.  0.
         13    1    3    3    0    0 -0.25695197761E+02  0.13027629203E+03  0.27655655444E+03  0.30678279492E+03  0.00000000000E+00 0.  1.
        -13    1    3    3    0    0 -0.13973300492E+03  0.38716318009E+03  0.56942701112E+03  0.70261494553E+03  0.00000000000E+00 0. -1.
         22    1    1    2    0    0  0.16542820268E+03 -0.51743947212E+03 -0.91970209374E+03  0.10681582461E+04  0.00000000000E+00 0. -1.
<mgrwt>
<rscale>  0 0.20762477E+04</rscale>
<asrwt>0</asrwt>
<pdfrwt beam="1">  1        1 0.16548266E+00 0.20762477E+04</pdfrwt>
<pdfrwt beam="2">  1       -1 0.15414134E+00 0.20762477E+04</pdfrwt>
<totfact> 0.39505162E+00</totfact>
</mgrwt>
</event>
<event>
 6    1  0.9562506E-007  0.3448618E+04  0.7818608E-02  0.8126076E-01
          1   -1    0    0  501    0  0.00000000000E+00  0.00000000000E+00  0.18811088928E+04  0.18811088928E+04  0.00000000000E+00 0. -1.
         -1   -1    0    0    0  501 -0.00000000000E+00 -0.00000000000E+00 -0.15805791342E+04  0.15805791342E+04  0.00000000000E+00 0.  1.
         23    2    1    2    0    0 -0.13368052700E+04 -0.10456049289E+04  0.44945676821E+03  0.17580104602E+04  0.90837187352E+02 0.  0.
         11    1    3    3    0    0 -0.12568727563E+04 -0.10023060510E+04  0.41095137330E+03  0.16592852608E+04  0.00000000000E+00 0.  1.
        -11    1    3    3    0    0 -0.79932513725E+02 -0.43298877904E+02  0.38505394914E+02  0.98725199496E+02  0.00000000000E+00 0. -1.
         22    1    1    2    0    0  0.13368052700E+04  0.10456049289E+04 -0.14892700962E+03  0.17036775667E+04  0.00000000000E+00 0. -1.
<mgrwt>
<rscale>  0 0.34486180E+04</rscale>
<asrwt>0</asrwt>
<pdfrwt beam="1">  1        1 0.28940137E+00 0.34486180E+04</pdfrwt>
<pdfrwt beam="2">  1       -1 0.24316602E+00 0.34486180E+04</pdfrwt>
<totfact> 0.22725176E-01</totfact>
</mgrwt>
</event>
<event>
 6    1  0.9562506E-007  0.3410147E+04  0.7818608E-02  0.8135420E-01
          2   -1    0    0  501    0  0.00000000000E+00  0.00000000000E+00  0.19231523788E+04  0.19231523788E+04  0.00000000000E+00 0. -1.
         -2   -1    0    0    0  501 -0.00000000000E+00 -0.00000000000E+00 -0.15117239671E+04  0.15117239671E+04  0.00000000000E+00 0.  1.
         23    2    1    2    0    0 -0.50571484326E+03 -0.48469218892E+03  0.17703008635E+04  0.19060832400E+04  0.92272151964E+02 0.  0.
         11    1    3    3    0    0 -0.41572253227E+03 -0.34527925724E+03  0.13355785346E+04  0.14407682018E+04  0.00000000000E+00 0. -1.
        -11    1    3    3    0    0 -0.89992310982E+02 -0.13941293169E+03  0.43472232890E+03  0.46531503823E+03  0.00000000000E+00 0.  1.
         22    1    1    2    0    0  0.50571484326E+03  0.48469218892E+03 -0.13588724517E+04  0.15287931059E+04  0.00000000000E+00 0.  1.
<mgrwt>
<rscale>  0 0.34101469E+04</rscale>
<asrwt>0</asrwt>
<pdfrwt beam="1">  1        2 0.29586960E+00 0.34101469E+04</pdfrwt>
<pdfrwt beam="2">  1       -2 0.23257292E+00 0.34101469E+04</pdfrwt>
<totfact> 0.50278329E-01</totfact>
</mgrwt>
</event>
<event>
 6    1  0.9562506E-007  0.1270838E+04  0.7818608E-02  0.9053016E-01
          2   -1    0    0  501    0  0.00000000000E+00  0.00000000000E+00  0.22863275359E+03  0.22863275359E+03  0.00000000000E+00 0. -1.
         -2   -1    0    0    0  501 -0.00000000000E+00 -0.00000000000E+00 -0.17659645860E+04  0.17659645860E+04  0.00000000000E+00 0.  1.
         23    2    1    2    0    0 -0.16952682335E+03  0.56863647493E+03 -0.11147855003E+04  0.12661522921E+04  0.91148947239E+02 0.  0.
         13    1    3    3    0    0 -0.10591902549E+03  0.21153735032E+03 -0.47681447657E+03  0.53227712295E+03  0.00000000000E+00 0. -1.
        -13    1    3    3    0    0 -0.63607797860E+02  0.35709912461E+03 -0.63797102376E+03  0.73387516916E+03  0.00000000000E+00 0.  1.
         22    1    1    2    0    0  0.16952682335E+03 -0.56863647493E+03 -0.42254633206E+03  0.72844504748E+03  0.00000000000E+00 0. -1.
<mgrwt>
<rscale>  0 0.12708381E+04</rscale>
<asrwt>0</asrwt>
<pdfrwt beam="1">  1        2 0.35174272E-01 0.12708381E+04</pdfrwt>
<pdfrwt beam="2">  1       -2 0.27168684E+00 0.12708381E+04</pdfrwt>
<totfact> 0.69438365E+00</totfact>
</mgrwt>
</event>
<event>
 6    1  0.9562506E-007  0.5245009E+04  0.7818608E-02  0.7791785E-01
          2   -1    0    0  501    0  0.00000000000E+00  0.00000000000E+00  0.14691172393E+04  0.14691172393E+04  0.00000000000E+00 0. -1.
         -2   -1    0    0    0  501 -0.00000000000E+00 -0.00000000000E+00 -0.46814021230E+04  0.46814021230E+04  0.00000000000E+00 0.  1.
         23    2    1    2    0    0  0.78102181855E+02 -0.11694576234E+04  0.11432946756E+04  0.16399978425E+04  0.93483284396E+02 0.  0.
         11    1    3    3    0    0  0.64615461802E+02 -0.58452037980E+03  0.51847762671E+03  0.78400145517E+03  0.00000000000E+00 0. -1.
        -11    1    3    3    0    0  0.13486720054E+02 -0.58493724357E+03  0.62481704890E+03  0.85599638733E+03  0.00000000000E+00 0.  1.
         22    1    1    2    0    0 -0.78102181855E+02  0.11694576234E+04 -0.43555795593E+04  0.45105215198E+04  0.00000000000E+00 0.  1.
<mgrwt>
<rscale>  0 0.52450085E+04</rscale>
<asrwt>0</asrwt>
<pdfrwt beam="1">  1        2 0.22601804E+00 0.52450085E+04</pdfrwt>
<pdfrwt beam="2">  1       -2 0.72021570E+00 0.52450085E+04</pdfrwt>
<totfact> 0.18227866E-03</totfact>
</mgrwt>
</event>
<event>
 6    1  0.9562506E-007  0.7881295E+03  0.7818608E-02  0.9577360E-01
          2   -1    0    0  501    0  0.00000000000E+00  0.00000000000E+00  0.87733006802E+03  0.87733006802E+03  0.00000000000E+00 0. -1.
         -2   -1    0    0    0  501 -0.00000000000E+00 -0.00000000000E+00 -0.17699954186E+03  0.17699954186E+03  0.00000000000E+00 0.  1.
         23    2    1    2    0    0 -0.16388711880E+03  0.24684389904E+03  0.17841361274E+02  0.31029845569E+03  0.90420789844E+02 0.  0.
         13    1    3    3    0    0 -0.26663106095E+02  0.11920412271E+03  0.12520432633E+01  0.12215609568E+03  0.00000000000E+00 0. -1.
        -13    1    3    3    0    0 -0.13722401270E+03  0.12763977632E+03  0.16589318011E+02  0.18814236002E+03  0.00000000000E+00 0.  1.
         22    1    1    2    0    0  0.16388711880E+03 -0.24684389904E+03  0.68248916489E+03  0.74403115418E+03  0.00000000000E+00 0. -1.
<mgrwt>
<rscale>  0 0.78812948E+03</rscale>
<asrwt>0</asrwt>
<pdfrwt beam="1">  1        2 0.13497385E+00 0.78812948E+03</pdfrwt>
<pdfrwt beam="2">  1       -2 0.27230699E-01 0.78812948E+03</pdfrwt>
<totfact> 0.37442874E+02</totfact>
</mgrwt>
</event>
<event>
 6    1  0.9562506E-007  0.2731717E+04  0.7818608E-02  0.8324787E-01
          2   -1    0    0  501    0  0.00000000000E+00  0.00000000000E+00  0.21019080604E+04  0.21019080604E+04  0.00000000000E+00 0. -1.
         -2   -1    0    0    0  501 -0.00000000000E+00 -0.00000000000E+00 -0.88756010651E+03  0.88756010651E+03  0.00000000000E+00 0.  1.
         23    2    1    2    0    0 -0.48951120495E+03  0.12628504122E+04  0.78744002305E+03  0.15693756471E+04  0.92009501449E+02 0.  0.
         11    1    3    3    0    0 -0.25909545646E+03  0.77043934291E+03  0.50173122165E+03  0.95521801461E+03  0.00000000000E+00 0.  1.
        -11    1    3    3    0    0 -0.23041574849E+03  0.49241106932E+03  0.28570880140E+03  0.61415763248E+03  0.00000000000E+00 0. -1.
         22    1    1    2    0    0  0.48951120495E+03 -0.12628504122E+04  0.42690793085E+03  0.14200925198E+04  0.00000000000E+00 0. -1.
<mgrwt>
<rscale>  0 0.27317172E+04</rscale>
<asrwt>0</asrwt>
<pdfrwt beam="1">  1        2 0.32337047E+00 0.27317172E+04</pdfrwt>
<pdfrwt beam="2">  1       -2 0.13654771E+00 0.27317172E+04</pdfrwt>
<totfact> 0.19652058E+00</totfact>
</mgrwt>
</event>
<event>
 6    1  0.9562506E-007  0.3025224E+04  0.7818608E-02  0.8236565E-01
          2   -1    0    0  501    0  0.00000000000E+00  0.00000000000E+00  0.16334877905E+04  0.16334877905E+04  0.00000000000E+00 0. -1.
         -2   -1    0    0    0  501 -0.00000000000E+00 -0.00000000000E+00 -0.14006805031E+04  0.14006805031E+04  0.00000000000E+00 0.  1.
         23    2    1    2    0    0  0.10987155789E+04  0.76513089694E+03  0.81954411419E+03  0.15723675832E+04  0.89922458820E+02 0.  0.
         11    1    3    3    0    0  0.82011359946E+03  0.58561424356E+03  0.65918501145E+03  0.12041823938E+04  0.00000000000E+00 0.  1.
        -11    1    3    3    0    0  0.27860197948E+03  0.17951665337E+03  0.16035910274E+03  0.36818518933E+03  0.00000000000E+00 0. -1.
         22    1    1    2    0    0 -0.10987155789E+04 -0.76513089694E+03 -0.58673682680E+03  0.14618007104E+04  0.00000000000E+00 0.  1.
<mgrwt>
<rscale>  0 0.30252236E+04</rscale>
<asrwt>0</asrwt>
<pdfrwt beam="1">  1        2 0.25130581E+00 0.30252236E+04</pdfrwt>
<pdfrwt beam="2">  1       -2 0.21548931E+00 0.30252236E+04</pdfrwt>
<totfact> 0.96351192E-01</totfact>
</mgrwt>
</event>
<event>
 6    1  0.9562506E-007  0.2810390E+04  0.7818608E-02  0.8300050E-01
          2   -1    0    0  501    0  0.00000000000E+00  0.00000000000E+00  0.22062425986E+04  0.22062425986E+04  0.00000000000E+00 0. -1.
         -2   -1    0    0    0  501 -0.00000000000E+00 -0.00000000000E+00 -0.89499381181E+03  0.89499381181E+03  0.00000000000E+00 0.  1.
         23    2    1    2    0    0  0.81518572664E+03  0.87618329778E+03  0.14658445689E+04  0.18945364493E+04  0.91340666334E+02 0.  0.
         13    1    3    3    0    0  0.61875933919E+03  0.71934587748E+03  0.11638093209E+04  0.15015904057E+04  0.00000000000E+00 0.  1.
        -13    1    3    3    0    0  0.19642638745E+03  0.15683742030E+03  0.30203524803E+03  0.39294604355E+03  0.00000000000E+00 0. -1.
         22    1    1    2    0    0 -0.81518572664E+03 -0.87618329778E+03 -0.15459578213E+03  0.12066999611E+04  0.00000000000E+00 0.  1.
<mgrwt>
<rscale>  0 0.28103903E+04</rscale>
<asrwt>0</asrwt>
<pdfrwt beam="1">  1        2 0.33942194E+00 0.28103903E+04</pdfrwt>
<pdfrwt beam="2">  1       -2 0.13769136E+00 0.28103903E+04</pdfrwt>
<totfact> 0.16698949E+00</totfact>
</mgrwt>
</event>
<event>
 6    1  0.1254828E-006  0.4021893E+04  0.7818608E-02  0.8000145E-01
          2   -1    0    0  501    0  0.00000000000E+00  0.00000000000E+00  0.28758448329E+04  0.28758448329E+04  0.00000000000E+00 0. -1.
         -2   -1    0    0    0  501 -0.00000000000E+00 -0.00000000000E+00 -0.14061627943E+04  0.14061627943E+04  0.00000000000E+00 0.  1.
         23    2    1    2    0    0 -0.14061533716E+04 -0.89362286411E+03  0.19323095798E+04  0.25528883804E+04  0.87118556929E+02 0.  0.
         13    1    3    3    0    0 -0.50935725967E+03 -0.37354272215E+03  0.72552470746E+03  0.96195898269E+03  0.00000000000E+00 0.  1.
        -13    1    3    3    0    0 -0.89679611193E+03 -0.52008014196E+03  0.12067848724E+04  0.15909293977E+04  0.00000000000E+00 0. -1.
         22    1    1    2    0    0  0.14061533716E+04  0.89362286411E+03 -0.46262754122E+03  0.17291192468E+04  0.00000000000E+00 0. -1.
<mgrwt>
<rscale>  0 0.40218931E+04</rscale>
<asrwt>0</asrwt>
<pdfrwt beam="1">  1        2 0.44243767E+00 0.40218931E+04</pdfrwt>
<pdfrwt beam="2">  1       -2 0.21633274E+00 0.40218931E+04</pdfrwt>
<totfact> 0.17066739E-01</totfact>
</mgrwt>
</event>
<event>
 6    1  0.9562506E-007  0.2721463E+04  0.7818608E-02  0.8328074E-01
         -1   -1    0    0    0  501 -0.00000000000E+00  0.00000000000E+00  0.80909300773E+03  0.80909300773E+03  0.00000000000E+00 0.  1.
          1   -1    0    0  501    0  0.00000000000E+00 -0.00000000000E+00 -0.22884761158E+04  0.22884761158E+04  0.00000000000E+00 0. -1.
         23    2    1    2    0    0 -0.34547849234E+03 -0.19497860585E+02 -0.22365729269E+04  0.22650596779E+04  0.92202667686E+02 0.  0.
         13    1    3    3    0    0 -0.24496284417E+03 -0.55261942495E+02 -0.16109511588E+04  0.16304061805E+04  0.00000000000E+00 0.  1.
        -13    1    3    3    0    0 -0.10051564817E+03  0.35764081910E+02 -0.62562176810E+03  0.63465349743E+03  0.00000000000E+00 0. -1.
         22    1    1    2    0    0  0.34547849234E+03  0.19497860585E+02  0.75718981885E+03  0.83250944560E+03  0.00000000000E+00 0.  1.
<mgrwt>
<rscale>  0 0.27214629E+04</rscale>
<asrwt>0</asrwt>
<pdfrwt beam="1">  1        1 0.35207324E+00 0.27214629E+04</pdfrwt>
<pdfrwt beam="2">  1       -1 0.12447585E+00 0.27214629E+04</pdfrwt>
<totfact> 0.93386198E-01</totfact>
</mgrwt>
</event>
<event>
 6    1  0.9562506E-007  0.1023189E+04  0.7818608E-02  0.9283471E-01
          2   -1    0    0  501    0  0.00000000000E+00  0.00000000000E+00  0.74457388662E+03  0.74457388662E+03  0.00000000000E+00 0. -1.
         -2   -1    0    0    0  501 -0.00000000000E+00 -0.00000000000E+00 -0.35151476365E+03  0.35151476365E+03  0.00000000000E+00 0.  1.
         23    2    1    2    0    0  0.10847879620E+03 -0.49266458109E+03  0.25711638267E+03  0.57362672121E+03  0.91938796869E+02 0.  0.
         11    1    3    3    0    0 -0.14459246584E+01 -0.19302123020E+03  0.83763732125E+02  0.21041779589E+03  0.00000000000E+00 0. -1.
        -11    1    3    3    0    0  0.10992472085E+03 -0.29964335089E+03  0.17335265055E+03  0.36320892533E+03  0.00000000000E+00 0.  1.
         22    1    1    2    0    0 -0.10847879620E+03  0.49266458109E+03  0.13594274030E+03  0.52246192906E+03  0.00000000000E+00 0.  1.
<mgrwt>
<rscale>  0 0.10231886E+04</rscale>
<asrwt>0</asrwt>
<pdfrwt beam="1">  1        2 0.11454983E+00 0.10231886E+04</pdfrwt>
<pdfrwt beam="2">  1       -2 0.54079195E-01 0.10231886E+04</pdfrwt>
<totfact> 0.12157863E+02</totfact>
</mgrwt>
</event>
<event>
 6    1  0.9562506E-007  0.2602090E+04  0.7818608E-02  0.8367492E-01
          2   -1    0    0  501    0  0.00000000000E+00  0.00000000000E+00  0.22416663937E+04  0.22416663937E+04  0.00000000000E+00 0. -1.
         -2   -1    0    0    0  501 -0.00000000000E+00 -0.00000000000E+00 -0.75511605219E+03  0.75511605219E+03  0.00000000000E+00 0.  1.
         23    2    1    2    0    0  0.34215246664E+02 -0.45320254829E+03 -0.65773932970E+03  0.80485602675E+03  0.92784508857E+02 0.  0.
         11    1    3    3    0    0  0.49994186160E+02 -0.11903010277E+03 -0.17220435278E+03  0.21522528460E+03  0.00000000000E+00 0. -1.
        -11    1    3    3    0    0 -0.15778939497E+02 -0.33417244553E+03 -0.48553497692E+03  0.58963074215E+03  0.00000000000E+00 0.  1.
         22    1    1    2    0    0 -0.34215246664E+02  0.45320254829E+03  0.21442896712E+04  0.21919264191E+04  0.00000000000E+00 0. -1.
<mgrwt>
<rscale>  0 0.26020901E+04</rscale>
<asrwt>0</asrwt>
<pdfrwt beam="1">  1        2 0.34487175E+00 0.26020901E+04</pdfrwt>
<pdfrwt beam="2">  1       -2 0.11617170E+00 0.26020901E+04</pdfrwt>
<totfact> 0.24882886E+00</totfact>
</mgrwt>
</event>
<event>
 6    1  0.9562506E-007  0.1889276E+04  0.7818608E-02  0.8660213E-01
         -1   -1    0    0    0  501 -0.00000000000E+00  0.00000000000E+00  0.48135613288E+03  0.48135613288E+03  0.00000000000E+00 0.  1.
          1   -1    0    0  501    0  0.00000000000E+00 -0.00000000000E+00 -0.18538052799E+04  0.18538052799E+04  0.00000000000E+00 0. -1.
         23    2    1    2    0    0 -0.12897783604E+03 -0.30896780572E+03 -0.17766060569E+04  0.18103383997E+04  0.94337970303E+02 0.  0.
         13    1    3    3    0    0  0.75746740139E+01 -0.62091700310E+02 -0.23814561690E+03  0.24622365805E+03  0.00000000000E+00 0. -1.
        -13    1    3    3    0    0 -0.13655251006E+03 -0.24687610541E+03 -0.15384604400E+04  0.15641147416E+04  0.00000000000E+00 0.  1.
         22    1    1    2    0    0  0.12897783604E+03  0.30896780572E+03  0.40415690996E+03  0.52482301306E+03  0.00000000000E+00 0.  1.
<mgrwt>
<rscale>  0 0.18892756E+04</rscale>
<asrwt>0</asrwt>
<pdfrwt beam="1">  1        1 0.28520081E+00 0.18892756E+04</pdfrwt>
<pdfrwt beam="2">  1       -1 0.74054789E-01 0.18892756E+04</pdfrwt>
<totfact> 0.64385224E+00</totfact>
</mgrwt>
</event>
<event>
 6    1  0.9562506E-007  0.4757790E+04  0.7818608E-02  0.7866997E-01
          1   -1    0    0  501    0  0.00000000000E+00  0.00000000000E+00  0.34602659826E+04  0.34602659826E+04  0.00000000000E+00 0. -1.
         -1   -1    0    0    0  501 -0.00000000000E+00 -0.00000000000E+00 -0.16354644556E+04  0.16354644556E+04  0.00000000000E+00 0.  1.
         23    2    1    2    0    0 -0.21687229574E+04  0.86259263241E+03  0.42485024552E+03  0.23740969386E+04  0.91723647431E+02 0.  0.
         13    1    3    3    0    0 -0.13779506115E+04  0.59536789446E+03  0.27251107187E+03  0.15256058147E+04  0.00000000000E+00 0. -1.
        -13    1    3    3    0    0 -0.79077234592E+03  0.26722473795E+03  0.15233917365E+03  0.84849112397E+03  0.00000000000E+00 0.  1.
         22    1    1    2    0    0  0.21687229574E+04 -0.86259263241E+03  0.13999512815E+04  0.27216334996E+04  0.00000000000E+00 0. -1.
<mgrwt>
<rscale>  0 0.47577903E+04</rscale>
<asrwt>0</asrwt>
<pdfrwt beam="1">  1        1 0.53234861E+00 0.47577903E+04</pdfrwt>
<pdfrwt beam="2">  1       -1 0.25160992E+00 0.47577903E+04</pdfrwt>
<totfact> 0.13433329E-02</totfact>
</mgrwt>
</event>
<event>
 6    1  0.9562506E-007  0.2935745E+03  0.7818608E-02  0.1088497E+00
          4   -1    0    0  501    0  0.00000000000E+00  0.00000000000E+00  0.85350547899E+02  0.85350547899E+02  0.00000000000E+00 0. -1.
         -4   -1    0    0    0  501 -0.00000000000E+00 -0.00000000000E+00 -0.25244712861E+03  0.25244712861E+03  0.00000000000E+00 0.  1.
         23    2    1    2    0    0 -0.10105606006E+03 -0.63081598458E+02 -0.15945285573E+03  0.21842413727E+03  0.89957074212E+02 0.  0.
         11    1    3    3    0    0 -0.59351520969E+02 -0.66632788308E+02 -0.52402456065E+02  0.10348211884E+03  0.00000000000E+00 0. -1.
        -11    1    3    3    0    0 -0.41704539093E+02  0.35511898494E+01 -0.10705039967E+03  0.11494201842E+03  0.00000000000E+00 0.  1.
         22    1    1    2    0    0  0.10105606006E+03  0.63081598458E+02 -0.76437249776E+01  0.11937353924E+03  0.00000000000E+00 0. -1.
<mgrwt>
<rscale>  0 0.29357453E+03</rscale>
<asrwt>0</asrwt>
<pdfrwt beam="1">  1        4 0.13130853E-01 0.29357453E+03</pdfrwt>
<pdfrwt beam="2">  1       -4 0.38838020E-01 0.29357453E+03</pdfrwt>
<totfact> 0.57952584E+02</totfact>
</mgrwt>
</event>
<event>
 6    1  0.9562506E-007  0.1915798E+04  0.7818608E-02  0.8647032E-01
          1   -1    0    0  501    0  0.00000000000E+00  0.00000000000E+00  0.99261642587E+03  0.99261642587E+03  0.00000000000E+00 0. -1.
         -1   -1    0    0    0  501 -0.00000000000E+00 -0.00000000000E+00 -0.92439593476E+03  0.92439593476E+03  0.00000000000E+00 0.  1.
         23    2    1    2    0    0  0.29049009821E+03  0.57475465510E+03  0.74084403904E+03  0.98580355057E+03  0.90726729336E+02 0.  0.
         11    1    3    3    0    0  0.45244884204E+02  0.57115944170E+02  0.12553065953E+03  0.14514570992E+03  0.00000000000E+00 0.  1.
        -11    1    3    3    0    0  0.24524521401E+03  0.51763871093E+03  0.61531337950E+03  0.84065784065E+03  0.00000000000E+00 0. -1.
         22    1    1    2    0    0 -0.29049009821E+03 -0.57475465510E+03 -0.67262354793E+03  0.93120881007E+03  0.00000000000E+00 0.  1.
<mgrwt>
<rscale>  0 0.19157981E+04</rscale>
<asrwt>0</asrwt>
<pdfrwt beam="1">  1        1 0.15271022E+00 0.19157981E+04</pdfrwt>
<pdfrwt beam="2">  1       -1 0.14221476E+00 0.19157981E+04</pdfrwt>
<totfact> 0.57634322E+00</totfact>
</mgrwt>
</event>
<event>
 6    1  0.9562506E-007  0.4298940E+04  0.7818608E-02  0.7946814E-01
         -1   -1    0    0    0  501 -0.00000000000E+00  0.00000000000E+00  0.36590371250E+04  0.36590371250E+04  0.00000000000E+00 0.  1.
          1   -1    0    0  501    0  0.00000000000E+00 -0.00000000000E+00 -0.12626878483E+04  0.12626878483E+04  0.00000000000E+00 0. -1.
         23    2    1    2    0    0  0.16740551178E+04  0.12775125328E+04  0.70842935366E+03  0.22229155181E+04  0.70586418817E+02 0.  0.
         13    1    3    3    0    0  0.10016868885E+04  0.80209371572E+03  0.41356695115E+03  0.13482464813E+04  0.00000000000E+00 0. -1.
        -13    1    3    3    0    0  0.67236822937E+03  0.47541881709E+03  0.29486240251E+03  0.87466903680E+03  0.00000000000E+00 0.  1.
         22    1    1    2    0    0 -0.16740551178E+04 -0.12775125328E+04  0.16879199231E+04  0.26988094552E+04  0.00000000000E+00 0.  1.
<mgrwt>
<rscale>  0 0.42989402E+04</rscale>
<asrwt>0</asrwt>
<pdfrwt beam="1">  1        1 0.19425967E+00 0.42989402E+04</pdfrwt>
<pdfrwt beam="2">  1       -1 0.56292878E+00 0.42989402E+04</pdfrwt>
<totfact> 0.47529974E-03</totfact>
</mgrwt>
</event>
<event>
 6    1  0.9562506E-007  0.6345603E+04  0.7818608E-02  0.7648968E-01
         -2   -1    0    0    0  501 -0.00000000000E+00  0.00000000000E+00  0.25123294496E+04  0.25123294496E+04  0.00000000000E+00 0.  1.
          2   -1    0    0  501    0  0.00000000000E+00 -0.00000000000E+00 -0.40069064029E+04  0.40069064029E+04  0.00000000000E+00 0. -1.
         23    2    1    2    0    0 -0.22160207326E+04  0.46598776800E+03  0.15342676603E+04  0.27374648149E+04  0.10882955423E+03 0.  0.
         13    1    3    3    0    0 -0.14425475303E+04  0.25034969244E+03  0.98552432653E+03  0.17649012845E+04  0.00000000000E+00 0.  1.
        -13    1    3    3    0    0 -0.77347320230E+03  0.21563807555E+03  0.54874333380E+03  0.97256353042E+03  0.00000000000E+00 0. -1.
         22    1    1    2    0    0  0.22160207326E+04 -0.46598776800E+03 -0.30288446136E+04  0.37817710376E+04  0.00000000000E+00 0. -1.
<mgrwt>
<rscale>  0 0.63456029E+04</rscale>
<asrwt>0</asrwt>
<pdfrwt beam="1">  1        2 0.61644713E+00 0.63456029E+04</pdfrwt>
<pdfrwt beam="2">  1       -2 0.38651223E+00 0.63456029E+04</pdfrwt>
<totfact> 0.20018976E-03</totfact>
</mgrwt>
</event>
<event>
 6    1  0.9562506E-007  0.4059396E+04  0.7818608E-02  0.7992671E-01
          2   -1    0    0  501    0  0.00000000000E+00  0.00000000000E+00  0.23723398418E+04  0.23723398418E+04  0.00000000000E+00 0. -1.
         -2   -1    0    0    0  501 -0.00000000000E+00 -0.00000000000E+00 -0.17365444648E+04  0.17365444648E+04  0.00000000000E+00 0.  1.
         23    2    1    2    0    0  0.97398577476E+03  0.14066413319E+04 -0.78529119466E+03  0.18847496052E+04  0.91162973431E+02 0.  0.
         11    1    3    3    0    0  0.60075929679E+03  0.87347591911E+03 -0.53486521345E+03  0.11874142961E+04  0.00000000000E+00 0.  1.
        -11    1    3    3    0    0  0.37322647797E+03  0.53316541282E+03 -0.25042598121E+03  0.69733530912E+03  0.00000000000E+00 0. -1.
         22    1    1    2    0    0 -0.97398577476E+03 -0.14066413319E+04  0.14210865716E+04  0.22241347014E+04  0.00000000000E+00 0. -1.
<mgrwt>
<rscale>  0 0.40593958E+04</rscale>
<asrwt>0</asrwt>
<pdfrwt beam="1">  1        2 0.36497536E+00 0.40593958E+04</pdfrwt>
<pdfrwt beam="2">  1       -2 0.26716069E+00 0.40593958E+04</pdfrwt>
<totfact> 0.16329831E-01</totfact>
</mgrwt>
</event>
<event>
 6    1  0.9562506E-007  0.1168463E+04  0.7818608E-02  0.9140917E-01
          1   -1    0    0  501    0  0.00000000000E+00  0.00000000000E+00  0.14249141135E+04  0.14249141135E+04  0.00000000000E+00 0. -1.
         -1   -1    0    0    0  501 -0.00000000000E+00 -0.00000000000E+00 -0.23954194185E+03  0.23954194185E+03  0.00000000000E+00 0.  1.
         23    2    1    2    0    0  0.53561449824E+03 -0.20875042728E+03  0.47982592881E+03  0.75437082176E+03  0.91557540085E+02 0.  0.
         11    1    3    3    0    0  0.17285216001E+03 -0.34870665763E+02  0.18532926100E+03  0.25581393147E+03  0.00000000000E+00 0. -1.
        -11    1    3    3    0    0  0.36276233823E+03 -0.17387976152E+03  0.29449666781E+03  0.49855689029E+03  0.00000000000E+00 0.  1.
         22    1    1    2    0    0 -0.53561449824E+03  0.20875042728E+03  0.70554624286E+03  0.91008523360E+03  0.00000000000E+00 0.  1.
<mgrwt>
<rscale>  0 0.11684634E+04</rscale>
<asrwt>0</asrwt>
<pdfrwt beam="1">  1        1 0.21921755E+00 0.11684634E+04</pdfrwt>
<pdfrwt beam="2">  1       -1 0.36852607E-01 0.11684634E+04</pdfrwt>
<totfact> 0.51739838E+01</totfact>
</mgrwt>
</event>
<event>
 6    1  0.9562506E-007  0.1228049E+04  0.7818608E-02  0.9088654E-01
          1   -1    0    0  501    0  0.00000000000E+00  0.00000000000E+00  0.30681555355E+04  0.30681555355E+04  0.00000000000E+00 0. -1.
         -1   -1    0    0    0  501 -0.00000000000E+00 -0.00000000000E+00 -0.12288359183E+03  0.12288359183E+03  0.00000000000E+00 0.  1.
         23    2    1    2    0    0  0.29805942448E+03 -0.36030445404E+03  0.46142395758E+03  0.66355825933E+03  0.93481414103E+02 0.  0.
         13    1    3    3    0    0  0.13278436784E+03 -0.17727728420E+03  0.15555976197E+03  0.27066171392E+03  0.00000000000E+00 0.  1.
        -13    1    3    3    0    0  0.16527505664E+03 -0.18302716984E+03  0.30586419561E+03  0.39289654541E+03  0.00000000000E+00 0. -1.
         22    1    1    2    0    0 -0.29805942448E+03  0.36030445404E+03  0.24838479860E+04  0.25274808680E+04  0.00000000000E+00 0. -1.
<mgrwt>
<rscale>  0 0.12280488E+04</rscale>
<asrwt>0</asrwt>
<pdfrwt beam="1">  1        1 0.47202387E+00 0.12280488E+04</pdfrwt>
<pdfrwt beam="2">  1       -1 0.18905170E-01 0.12280488E+04</pdfrwt>
<totfact> 0.11983225E+01</totfact>
</mgrwt>
</event>
<event>
 6    1  0.9562506E-007  0.3643433E+04  0.7818608E-02  0.8080615E-01
          1   -1    0    0  501    0  0.00000000000E+00  0.00000000000E+00  0.34820787448E+04  0.34820787448E+04  0.00000000000E+00 0. -1.
         -1   -1    0    0    0  501 -0.00000000000E+00 -0.00000000000E+00 -0.95306591192E+03  0.95306591192E+03  0.00000000000E+00 0.  1.
         23    2    1    2    0    0 -0.13909552839E+04 -0.27627520268E+03 -0.12447216794E+03  0.14264792983E+04  0.90913576120E+02 0.  0.
         11    1    3    3    0    0 -0.75028055029E+03 -0.10406022896E+03 -0.76994022024E+02  0.76136555926E+03  0.00000000000E+00 0.  1.
        -11    1    3    3    0    0 -0.64067473364E+03 -0.17221497373E+03 -0.47478145917E+02  0.66511373902E+03  0.00000000000E+00 0. -1.
         22    1    1    2    0    0  0.13909552839E+04  0.27627520268E+03  0.26534850009E+04  0.30086653585E+04  0.00000000000E+00 0. -1.
<mgrwt>
<rscale>  0 0.36434328E+04</rscale>
<asrwt>0</asrwt>
<pdfrwt beam="1">  1        1 0.53570442E+00 0.36434328E+04</pdfrwt>
<pdfrwt beam="2">  1       -1 0.14662553E+00 0.36434328E+04</pdfrwt>
<totfact> 0.77063920E-02</totfact>
</mgrwt>
</event>
<event>
 6    1  0.9562506E-007  0.1600753E+04  0.7818608E-02  0.8820085E-01
          2   -1    0    0  501    0  0.00000000000E+00  0.00000000000E+00  0.26886598470E+04  0.26886598470E+04  0.00000000000E+00 0. -1.
         -2   -1    0    0    0  501 -0.00000000000E+00 -0.00000000000E+00 -0.23826096433E+03  0.23826096433E+03  0.00000000000E+00 0.  1.
         23    2    1    2    0    0 -0.46973475437E+03 -0.18781410820E+02  0.24076478860E+04  0.24548708896E+04  0.92839975921E+02 0.  0.
         11    1    3    3    0    0 -0.18643878078E+03 -0.50816553370E+02  0.10450971563E+04  0.10628122164E+04  0.00000000000E+00 0. -1.
        -11    1    3    3    0    0 -0.28329597359E+03  0.32035142550E+02  0.13625507296E+04  0.13920586733E+04  0.00000000000E+00 0.  1.
         22    1    1    2    0    0  0.46973475437E+03  0.18781410820E+02  0.42750996705E+02  0.47204992170E+03  0.00000000000E+00 0.  1.
<mgrwt>
<rscale>  0 0.16007532E+04</rscale>
<asrwt>0</asrwt>
<pdfrwt beam="1">  1        2 0.41363996E+00 0.16007532E+04</pdfrwt>
<pdfrwt beam="2">  1       -2 0.36655535E-01 0.16007532E+04</pdfrwt>
<totfact> 0.18188561E+01</totfact>
</mgrwt>
</event>
<event>
 6    1  0.9562506E-007  0.1856541E+04  0.7818608E-02  0.8676796E-01
          2   -1    0    0  501    0  0.00000000000E+00  0.00000000000E+00  0.15921130929E+04  0.15921130929E+04  0.00000000000E+00 0. -1.
         -2   -1    0    0    0  501 -0.00000000000E+00 -0.00000000000E+00 -0.54122186307E+03  0.54122186307E+03  0.00000000000E+00 0.  1.
         23    2    1    2    0    0  0.57521755213E+03  0.67334223989E+03  0.83771248554E+03  0.12224506706E+04  0.91424445834E+02 0.  0.
         11    1    3    3    0    0  0.31864748340E+02  0.48626776354E+02  0.88206113026E+02  0.10564205574E+03  0.00000000000E+00 0. -1.
        -11    1    3    3    0    0  0.54335280379E+03  0.62471546353E+03  0.74950637251E+03  0.11168086149E+04  0.00000000000E+00 0.  1.
         22    1    1    2    0    0 -0.57521755213E+03 -0.67334223989E+03  0.21317874425E+03  0.91088428535E+03  0.00000000000E+00 0.  1.
<mgrwt>
<rscale>  0 0.18565413E+04</rscale>
<asrwt>0</asrwt>
<pdfrwt beam="1">  1        2 0.24494047E+00 0.18565413E+04</pdfrwt>
<pdfrwt beam="2">  1       -2 0.83264903E-01 0.18565413E+04</pdfrwt>
<totfact> 0.13369805E+01</totfact>
</mgrwt>
</event>
<event>
 6    1  0.9562506E-007  0.3289857E+04  0.7818608E-02  0.8165481E-01
          2   -1    0    0  501    0  0.00000000000E+00  0.00000000000E+00  0.25725070132E+04  0.25725070132E+04  0.00000000000E+00 0. -1.
         -2   -1    0    0    0  501 -0.00000000000E+00 -0.00000000000E+00 -0.10518106712E+04  0.10518106712E+04  0.00000000000E+00 0.  1.
         23    2    1    2    0    0 -0.16494893461E+03 -0.60894865263E+03 -0.91108897625E+03  0.11120266091E+04  0.92159883966E+02 0.  0.
         11    1    3    3    0    0 -0.35739566353E+02 -0.63849758244E+02 -0.15105864317E+03  0.16784761514E+03  0.00000000000E+00 0.  1.
        -11    1    3    3    0    0 -0.12920936826E+03 -0.54509889438E+03 -0.76003033308E+03  0.94417899400E+03  0.00000000000E+00 0. -1.
         22    1    1    2    0    0  0.16494893461E+03  0.60894865263E+03  0.24317853183E+04  0.25122910752E+04  0.00000000000E+00 0. -1.
<mgrwt>
<rscale>  0 0.32898573E+04</rscale>
<asrwt>0</asrwt>
<pdfrwt beam="1">  1        2 0.39577031E+00 0.32898573E+04</pdfrwt>
<pdfrwt beam="2">  1       -2 0.16181703E+00 0.32898573E+04</pdfrwt>
<totfact> 0.64466197E-01</totfact>
</mgrwt>
</event>
<event>
 6    1  0.9562506E-007  0.1734865E+04  0.7818608E-02  0.8741725E-01
         -1   -1    0    0    0  501 -0.00000000000E+00  0.00000000000E+00  0.50903234731E+03  0.50903234731E+03  0.00000000000E+00 0.  1.
          1   -1    0    0  501    0  0.00000000000E+00 -0.00000000000E+00 -0.14781759660E+04  0.14781759660E+04  0.00000000000E+00 0. -1.
         23    2    1    2    0    0  0.99898178717E+02 -0.12095353815E+03 -0.14604030893E+04  0.14715094942E+04  0.89182978613E+02 0.  0.
         13    1    3    3    0    0  0.83422828705E+01 -0.79510936032E+02 -0.64096254519E+03  0.64592922753E+03  0.00000000000E+00 0. -1.
        -13    1    3    3    0    0  0.91555895846E+02 -0.41442602116E+02 -0.81944054416E+03  0.82558026669E+03  0.00000000000E+00 0.  1.
         22    1    1    2    0    0 -0.99898178717E+02  0.12095353815E+03  0.49125947066E+03  0.51569881910E+03  0.00000000000E+00 0.  1.
<mgrwt>
<rscale>  0 0.17348653E+04</rscale>
<asrwt>0</asrwt>
<pdfrwt beam="1">  1        1 0.22741168E+00 0.17348653E+04</pdfrwt>
<pdfrwt beam="2">  1       -1 0.78312671E-01 0.17348653E+04</pdfrwt>
<totfact> 0.10490822E+01</totfact>
</mgrwt>
</event>
<event>
 6    1  0.9562506E-007  0.1742685E+04  0.7818608E-02  0.8737387E-01
         -3   -1    0    0    0  501 -0.00000000000E+00  0.00000000000E+00  0.16476274178E+04  0.16476274178E+04  0.00000000000E+00 0.  1.
          3   -1    0    0  501    0  0.00000000000E+00 -0.00000000000E+00 -0.46080646788E+03  0.46080646788E+03  0.00000000000E+00 0. -1.
         23    2    1    2    0    0 -0.84529489643E+03 -0.10374564393E+03  0.38581297250E+03  0.93928872770E+03  0.90139024068E+02 0.  0.
         11    1    3    3    0    0 -0.63321738278E+03 -0.11081856108E+03  0.31260773648E+03  0.71482067978E+03  0.00000000000E+00 0. -1.
        -11    1    3    3    0    0 -0.21207751366E+03  0.70729171537E+01  0.73205236015E+02  0.22446804792E+03  0.00000000000E+00 0.  1.
         22    1    1    2    0    0  0.84529489643E+03  0.10374564393E+03  0.80100797746E+03  0.11691451580E+04  0.00000000000E+00 0. -1.
<mgrwt>
<rscale>  0 0.17426846E+04</rscale>
<asrwt>0</asrwt>
<pdfrwt beam="1">  1        3 0.70893303E-01 0.17426846E+04</pdfrwt>
<pdfrwt beam="2">  1       -3 0.25348114E+00 0.17426846E+04</pdfrwt>
<totfact> 0.32920557E-01</totfact>
</mgrwt>
</event>
<event>
 6    1  0.9562506E-007  0.8342828E+04  0.7818608E-02  0.7452859E-01
          2   -1    0    0  501    0  0.00000000000E+00  0.00000000000E+00  0.36172136012E+04  0.36172136012E+04  0.00000000000E+00 0. -1.
         -2   -1    0    0    0  501 -0.00000000000E+00 -0.00000000000E+00 -0.48105246522E+04  0.48105246522E+04  0.00000000000E+00 0.  1.
         23    2    1    2    0    0  0.55599011652E+03  0.40309060347E+04 -0.15221117496E+04  0.43454057866E+04  0.91644974076E+02 0.  0.
         13    1    3    3    0    0  0.26335128657E+03  0.20223883949E+04 -0.80893200198E+03  0.21940327491E+04  0.00000000000E+00 0. -1.
        -13    1    3    3    0    0  0.29263882995E+03  0.20085176398E+04 -0.71317974761E+03  0.21513730375E+04  0.00000000000E+00 0.  1.
         22    1    1    2    0    0 -0.55599011652E+03 -0.40309060347E+04  0.32880069860E+03  0.40823324668E+04  0.00000000000E+00 0. -1.
<mgrwt>
<rscale>  0 0.83428281E+04</rscale>
<asrwt>0</asrwt>
<pdfrwt beam="1">  1        2 0.55649440E+00 0.83428281E+04</pdfrwt>
<pdfrwt beam="2">  1       -2 0.74008072E+00 0.83428281E+04</pdfrwt>
<totfact> 0.61500930E-05</totfact>
</mgrwt>
</event>
<event>
 6    1  0.9562506E-007  0.7600714E+03  0.7818608E-02  0.9619681E-01
         -1   -1    0    0    0  501 -0.00000000000E+00  0.00000000000E+00  0.27283054070E+03  0.27283054070E+03  0.00000000000E+00 0.  1.
          1   -1    0    0  501    0  0.00000000000E+00 -0.00000000000E+00 -0.52936570940E+03  0.52936570940E+03  0.00000000000E+00 0. -1.
         23    2    1    2    0    0 -0.13331217860E+03 -0.29844057782E+03 -0.32287925149E+03  0.46866896070E+03  0.92523879251E+02 0.  0.
         13    1    3    3    0    0 -0.31236820290E+02 -0.17509354818E+03 -0.19349659376E+03  0.26282013118E+03  0.00000000000E+00 0. -1.
        -13    1    3    3    0    0 -0.10207535831E+03 -0.12334702964E+03 -0.12938265773E+03  0.20584882952E+03  0.00000000000E+00 0.  1.
         22    1    1    2    0    0  0.13331217860E+03  0.29844057782E+03  0.66344082785E+02  0.33352728940E+03  0.00000000000E+00 0.  1.
<mgrwt>
<rscale>  0 0.76007140E+03</rscale>
<asrwt>0</asrwt>
<pdfrwt beam="1">  1        1 0.81440878E-01 0.76007140E+03</pdfrwt>
<pdfrwt beam="2">  1       -1 0.41973930E-01 0.76007140E+03</pdfrwt>
<totfact> 0.23090084E+02</totfact>
</mgrwt>
</event>
<event>
 6    1  0.9562506E-007  0.2401149E+04  0.7818608E-02  0.8439074E-01
          1   -1    0    0  501    0  0.00000000000E+00  0.00000000000E+00  0.10247797449E+04  0.10247797449E+04  0.00000000000E+00 0. -1.
         -1   -1    0    0    0  501 -0.00000000000E+00 -0.00000000000E+00 -0.14065252246E+04  0.14065252246E+04  0.00000000000E+00 0.  1.
         23    2    1    2    0    0 -0.87880236975E+03  0.70388993991E+03 -0.60866636048E+03  0.12827198666E+04  0.84503640135E+02 0.  0.
         13    1    3    3    0    0 -0.70945199718E+03  0.60864395155E+03 -0.50885983586E+03  0.10642875216E+04  0.00000000000E+00 0. -1.
        -13    1    3    3    0    0 -0.16935037257E+03  0.95245988364E+02 -0.99806524627E+02  0.21843234501E+03  0.00000000000E+00 0.  1.
         22    1    1    2    0    0  0.87880236975E+03 -0.70388993991E+03  0.22692088075E+03  0.11485851029E+04  0.00000000000E+00 0. -1.
<mgrwt>
<rscale>  0 0.24011485E+04</rscale>
<asrwt>0</asrwt>
<pdfrwt beam="1">  1        1 0.15765842E+00 0.24011485E+04</pdfrwt>
<pdfrwt beam="2">  1       -1 0.21638849E+00 0.24011485E+04</pdfrwt>
<totfact> 0.15091726E+00</totfact>
</mgrwt>
</event>
<event>
 6    1  0.9562506E-007  0.3357958E+04  0.7818608E-02  0.8148303E-01
         -1   -1    0    0    0  501 -0.00000000000E+00  0.00000000000E+00  0.12069162151E+04  0.12069162151E+04  0.00000000000E+00 0.  1.
          1   -1    0    0  501    0  0.00000000000E+00 -0.00000000000E+00 -0.23356799925E+04  0.23356799925E+04  0.00000000000E+00 0. -1.
         23    2    1    2    0    0 -0.13871586143E+04  0.20088297392E+03 -0.15375759976E+04  0.20825652415E+04  0.91515280276E+02 0.  0.
         13    1    3    3    0    0 -0.11240637755E+04  0.19406206262E+03 -0.12751655733E+04  0.17109139940E+04  0.00000000000E+00 0.  1.
        -13    1    3    3    0    0 -0.26309483875E+03  0.68209113045E+01 -0.26241042432E+03  0.37165124755E+03  0.00000000000E+00 0. -1.
         22    1    1    2    0    0  0.13871586143E+04 -0.20088297392E+03  0.40881222011E+03  0.14600309660E+04  0.00000000000E+00 0.  1.
<mgrwt>
<rscale>  0 0.33579577E+04</rscale>
<asrwt>0</asrwt>
<pdfrwt beam="1">  1        1 0.35933538E+00 0.33579577E+04</pdfrwt>
<pdfrwt beam="2">  1       -1 0.18567942E+00 0.33579577E+04</pdfrwt>
<totfact> 0.27527319E-01</totfact>
</mgrwt>
</event>
<event>
 6    1  0.9562506E-007  0.9243079E+03  0.7818608E-02  0.9395695E-01
          1   -1    0    0  501    0  0.00000000000E+00  0.00000000000E+00  0.34517586517E+03  0.34517586517E+03  0.00000000000E+00 0. -1.
         -1   -1    0    0    0  501 -0.00000000000E+00 -0.00000000000E+00 -0.61877529061E+03  0.61877529061E+03  0.00000000000E+00 0.  1.
         23    2    1    2    0    0  0.10754028832E+03  0.17642771370E+03  0.28764787587E+03  0.36587909909E+03  0.91839876321E+02 0.  0.
         13    1    3    3    0    0  0.12209475747E+03  0.17178089524E+03  0.27059360081E+03  0.34298207325E+03  0.00000000000E+00 0. -1.
        -13    1    3    3    0    0 -0.14554469156E+02  0.46468184549E+01  0.17054275063E+02  0.22897025835E+02  0.00000000000E+00 0.  1.
         22    1    1    2    0    0 -0.10754028832E+03 -0.17642771370E+03 -0.56124730131E+03  0.59807205670E+03  0.00000000000E+00 0.  1.
<mgrwt>
<rscale>  0 0.92430795E+03</rscale>
<asrwt>0</asrwt>
<pdfrwt beam="1">  1        1 0.53103980E-01 0.92430795E+03</pdfrwt>
<pdfrwt beam="2">  1       -1 0.95196198E-01 0.92430795E+03</pdfrwt>
<totfact> 0.78310330E+01</totfact>
</mgrwt>
</event>
<event>
 6    1  0.9562506E-007  0.1379203E+04  0.7818608E-02  0.8969012E-01
          2   -1    0    0  501    0  0.00000000000E+00  0.00000000000E+00  0.15854039656E+04  0.15854039656E+04  0.00000000000E+00 0. -1.
         -2   -1    0    0    0  501 -0.00000000000E+00 -0.00000000000E+00 -0.29995513283E+03  0.29995513283E+03  0.00000000000E+00 0.  1.
         23    2    1    2    0    0  0.23050604904E+03  0.59022645102E+03  0.28451005135E+03  0.70071622132E+03  0.92503791139E+02 0.  0.
         11    1    3    3    0    0  0.31737493830E+02  0.47653331964E+02  0.14471980282E+01  0.57273056004E+02  0.00000000000E+00 0. -1.
        -11    1    3    3    0    0  0.19876855521E+03  0.54257311905E+03  0.28306285332E+03  0.64344316531E+03  0.00000000000E+00 0.  1.
         22    1    1    2    0    0 -0.23050604904E+03 -0.59022645102E+03  0.10009387814E+04  0.11846428771E+04  0.00000000000E+00 0. -1.
<mgrwt>
<rscale>  0 0.13792028E+04</rscale>
<asrwt>0</asrwt>
<pdfrwt beam="1">  1        2 0.24390830E+00 0.13792028E+04</pdfrwt>
<pdfrwt beam="2">  1       -2 0.46146944E-01 0.13792028E+04</pdfrwt>
<totfact> 0.49308147E+01</totfact>
</mgrwt>
</event>
<event>
 6    1  0.9562506E-007  0.2616280E+04  0.7818608E-02  0.8362692E-01
         -2   -1    0    0    0  501 -0.00000000000E+00  0.00000000000E+00  0.15819457372E+04  0.15819457372E+04  0.00000000000E+00 0.  1.
          2   -1    0    0  501    0  0.00000000000E+00 -0.00000000000E+00 -0.10817251827E+04  0.10817251827E+04  0.00000000000E+00 0. -1.
         23    2    1    2    0    0 -0.34207761356E+03 -0.67416504020E+02  0.15323665734E+04  0.15742272623E+04  0.92098204633E+02 0.  0.
         13    1    3    3    0    0 -0.99518969558E+02 -0.62313540162E+02  0.54268503179E+03  0.55524233117E+03  0.00000000000E+00 0.  1.
        -13    1    3    3    0    0 -0.24255864400E+03 -0.51029638580E+01  0.98968154165E+03  0.10189849312E+04  0.00000000000E+00 0. -1.
         22    1    1    2    0    0  0.34207761356E+03  0.67416504020E+02 -0.10321460189E+04  0.10894436576E+04  0.00000000000E+00 0. -1.
<mgrwt>
<rscale>  0 0.26162802E+04</rscale>
<asrwt>0</asrwt>
<pdfrwt beam="1">  1        2 0.16641926E+00 0.26162802E+04</pdfrwt>
<pdfrwt beam="2">  1       -2 0.24337627E+00 0.26162802E+04</pdfrwt>
<totfact> 0.13944732E+00</totfact>
</mgrwt>
</event>
<event>
 6    1  0.9562506E-007  0.3235401E+04  0.7818608E-02  0.8179530E-01
          1   -1    0    0  501    0  0.00000000000E+00  0.00000000000E+00  0.20689145500E+04  0.20689145500E+04  0.00000000000E+00 0. -1.
         -1   -1    0    0    0  501 -0.00000000000E+00 -0.00000000000E+00 -0.12648927365E+04  0.12648927365E+04  0.00000000000E+00 0.  1.
         23    2    1    2    0    0 -0.90284366135E+03  0.94554510685E+03  0.13818139813E+04  0.19044626761E+04  0.91574995998E+02 0.  0.
         13    1    3    3    0    0 -0.49793361904E+03  0.57867443946E+03  0.77344899885E+03  0.10867499021E+04  0.00000000000E+00 0.  1.
        -13    1    3    3    0    0 -0.40491004231E+03  0.36687066739E+03  0.60836498242E+03  0.81771277402E+03  0.00000000000E+00 0. -1.
         22    1    1    2    0    0  0.90284366135E+03 -0.94554510685E+03 -0.57779216781E+03  0.14293446103E+04  0.00000000000E+00 0.  1.
<mgrwt>
<rscale>  0 0.32354010E+04</rscale>
<asrwt>0</asrwt>
<pdfrwt beam="1">  1        1 0.31829455E+00 0.32354010E+04</pdfrwt>
<pdfrwt beam="2">  1       -1 0.19459888E+00 0.32354010E+04</pdfrwt>
<totfact> 0.36617131E-01</totfact>
</mgrwt>
</event>
<event>
 6    1  0.9562506E-007  0.1459888E+04  0.7818608E-02  0.8911574E-01
         -2   -1    0    0    0  501 -0.00000000000E+00  0.00000000000E+00  0.63096767428E+03  0.63096767428E+03  0.00000000000E+00 0.  1.
          2   -1    0    0  501    0  0.00000000000E+00 -0.00000000000E+00 -0.84444602968E+03  0.84444602968E+03  0.00000000000E+00 0. -1.
         23    2    1    2    0    0 -0.62688079294E+03 -0.33497257967E+03 -0.26216909706E+03  0.76298339438E+03  0.90691052199E+02 0.  0.
         13    1    3    3    0    0 -0.20401792434E+03 -0.13202622148E+03 -0.13038544441E+03  0.27577998609E+03  0.00000000000E+00 0.  1.
        -13    1    3    3    0    0 -0.42286286860E+03 -0.20294635819E+03 -0.13178365265E+03  0.48720340829E+03  0.00000000000E+00 0. -1.
         22    1    1    2    0    0  0.62688079294E+03  0.33497257967E+03  0.48690741655E+02  0.71243030958E+03  0.00000000000E+00 0.  1.
<mgrwt>
<rscale>  0 0.14598879E+04</rscale>
<asrwt>0</asrwt>
<pdfrwt beam="1">  1        2 0.12991477E+00 0.14598879E+04</pdfrwt>
<pdfrwt beam="2">  1       -2 0.97071950E-01 0.14598879E+04</pdfrwt>
<totfact> 0.27503410E+01</totfact>
</mgrwt>
</event>
<event>
 6    1  0.9562506E-007  0.1109591E+04  0.7818608E-02  0.9195894E-01
         -1   -1    0    0    0  501 -0.00000000000E+00  0.00000000000E+00  0.56906196693E+03  0.56906196693E+03  0.00000000000E+00 0.  1.
          1   -1    0    0  501    0  0.00000000000E+00 -0.00000000000E+00 -0.54088704568E+03  0.54088704568E+03  0.00000000000E+00 0. -1.
         23    2    1    2    0    0 -0.51259745560E+03 -0.13733146013E+03 -0.13442326997E+03  0.55492265898E+03  0.90848558149E+02 0.  0.
         11    1    3    3    0    0 -0.25217063912E+03 -0.66598111246E+02 -0.19296381577E+02  0.26152952032E+03  0.00000000000E+00 0.  1.
        -11    1    3    3    0    0 -0.26042681648E+03 -0.70733348888E+02 -0.11512688840E+03  0.29339313867E+03  0.00000000000E+00 0. -1.
         22    1    1    2    0    0  0.51259745560E+03  0.13733146013E+03  0.16259819122E+03  0.55502635362E+03  0.00000000000E+00 0.  1.
<mgrwt>
<rscale>  0 0.11095914E+04</rscale>
<asrwt>0</asrwt>
<pdfrwt beam="1">  1        1 0.83213391E-01 0.11095914E+04</pdfrwt>
<pdfrwt beam="2">  1       -1 0.87547996E-01 0.11095914E+04</pdfrwt>
<totfact> 0.50802039E+01</totfact>
</mgrwt>
</event>
<event>
 6    1  0.9562506E-007  0.2335165E+04  0.7818608E-02  0.8464184E-01
         -2   -1    0    0    0  501 -0.00000000000E+00  0.00000000000E+00  0.55076265731E+03  0.55076265731E+03  0.00000000000E+00 0.  1.
          2   -1    0    0  501    0  0.00000000000E+00 -0.00000000000E+00 -0.24752026891E+04  0.24752026891E+04  0.00000000000E+00 0. -1.
         23    2    1    2    0    0  0.11023767008E+04  0.20321401127E+03 -0.54890107978E+03  0.12515252281E+04  0.92155718207E+02 0.  0.
         13    1    3    3    0    0  0.10316243584E+04  0.18363870171E+03 -0.53605572992E+03  0.11769994627E+04  0.00000000000E+00 0.  1.
        -13    1    3    3    0    0  0.70752342380E+02  0.19575309557E+02 -0.12845349863E+02  0.74525765408E+02  0.00000000000E+00 0. -1.
         22    1    1    2    0    0 -0.11023767008E+04 -0.20321401127E+03 -0.13755389520E+04  0.17744401183E+04  0.00000000000E+00 0. -1.
<mgrwt>
<rscale>  0 0.23351653E+04</rscale>
<asrwt>0</asrwt>
<pdfrwt beam="1">  1        2 0.38080042E+00 0.23351653E+04</pdfrwt>
<pdfrwt beam="2">  1       -2 0.84732715E-01 0.23351653E+04</pdfrwt>
<totfact> 0.39472712E+00</totfact>
</mgrwt>
</event>
<event>
 6    1  0.9562506E-007  0.2074803E+04  0.7818608E-02  0.8572425E-01
          2   -1    0    0  501    0  0.00000000000E+00  0.00000000000E+00  0.15799637423E+04  0.15799637423E+04  0.00000000000E+00 0. -1.
         -2   -1    0    0    0  501 -0.00000000000E+00 -0.00000000000E+00 -0.68115617181E+03  0.68115617181E+03  0.00000000000E+00 0.  1.
         23    2    1    2    0    0  0.82625009496E+03 -0.12878460917E+03  0.11155536999E+04  0.13972602150E+04  0.92743496378E+02 0.  0.
         11    1    3    3    0    0  0.63023602901E+03 -0.12956678325E+03  0.89366826350E+03  0.11011938834E+04  0.00000000000E+00 0.  1.
        -11    1    3    3    0    0  0.19601406595E+03  0.78217408137E+00  0.22188543640E+03  0.29606633165E+03  0.00000000000E+00 0. -1.
         22    1    1    2    0    0 -0.82625009496E+03  0.12878460917E+03 -0.21674612946E+03  0.86385969904E+03  0.00000000000E+00 0.  1.
<mgrwt>
<rscale>  0 0.20748032E+04</rscale>
<asrwt>0</asrwt>
<pdfrwt beam="1">  1        2 0.24307135E+00 0.20748032E+04</pdfrwt>
<pdfrwt beam="2">  1       -2 0.10479326E+00 0.20748032E+04</pdfrwt>
<totfact> 0.78059322E+00</totfact>
</mgrwt>
</event>
<event>
 6    1  0.9562506E-007  0.1658225E+04  0.7818608E-02  0.8785556E-01
         -2   -1    0    0    0  501 -0.00000000000E+00  0.00000000000E+00  0.19500684445E+03  0.19500684445E+03  0.00000000000E+00 0.  1.
          2   -1    0    0  501    0  0.00000000000E+00 -0.00000000000E+00 -0.35251446470E+04  0.35251446470E+04  0.00000000000E+00 0. -1.
         23    2    1    2    0    0  0.10907315868E+03  0.54009006629E+03 -0.28976839828E+03  0.63025823308E+03  0.98313183653E+02 0.  0.
         13    1    3    3    0    0  0.44196769263E+01  0.24711277615E+03 -0.15078277637E+03  0.28951632654E+03  0.00000000000E+00 0. -1.
        -13    1    3    3    0    0  0.10465348176E+03  0.29297729014E+03 -0.13898562191E+03  0.34074190655E+03  0.00000000000E+00 0.  1.
         22    1    1    2    0    0 -0.10907315868E+03 -0.54009006629E+03 -0.30403694042E+04  0.30898932583E+04  0.00000000000E+00 0. -1.
<mgrwt>
<rscale>  0 0.16582248E+04</rscale>
<asrwt>0</asrwt>
<pdfrwt beam="1">  1        2 0.54232993E+00 0.16582248E+04</pdfrwt>
<pdfrwt beam="2">  1       -2 0.30001054E-01 0.16582248E+04</pdfrwt>
<totfact> 0.77256560E+00</totfact>
</mgrwt>
</event>
<event>
 6    1  0.9562506E-007  0.2770505E+04  0.7818608E-02  0.8312484E-01
         -2   -1    0    0    0  501 -0.00000000000E+00  0.00000000000E+00  0.15355459269E+04  0.15355459269E+04  0.00000000000E+00 0.  1.
          2   -1    0    0  501    0  0.00000000000E+00 -0.00000000000E+00 -0.12496687916E+04  0.12496687916E+04  0.00000000000E+00 0. -1.
         23    2    1    2    0    0 -0.11521144865E+04 -0.52215166612E+03 -0.41750354361E+03  0.13378880339E+04  0.12500011905E+03 0.  0.
         13    1    3    3    0    0 -0.64720561639E+02 -0.54498558075E+02 -0.50833566966E+02  0.98706106506E+02  0.00000000000E+00 0. -1.
        -13    1    3    3    0    0 -0.10873939249E+04 -0.46765310805E+03 -0.36666997664E+03  0.12391819274E+04  0.00000000000E+00 0.  1.
         22    1    1    2    0    0  0.11521144865E+04  0.52215166612E+03  0.70338067892E+03  0.14473266846E+04  0.00000000000E+00 0.  1.
<mgrwt>
<rscale>  0 0.27705045E+04</rscale>
<asrwt>0</asrwt>
<pdfrwt beam="1">  1        2 0.19225674E+00 0.27705045E+04</pdfrwt>
<pdfrwt beam="2">  1       -2 0.23623784E+00 0.27705045E+04</pdfrwt>
<totfact> 0.12065304E+00</totfact>
</mgrwt>
</event>
<event>
 6    1  0.9562506E-007  0.2483331E+04  0.7818608E-02  0.8408948E-01
          1   -1    0    0  501    0  0.00000000000E+00  0.00000000000E+00  0.16763450618E+04  0.16763450618E+04  0.00000000000E+00 0. -1.
         -1   -1    0    0    0  501 -0.00000000000E+00 -0.00000000000E+00 -0.91969927722E+03  0.91969927722E+03  0.00000000000E+00 0.  1.
         23    2    1    2    0    0  0.37174040749E+03  0.74715617258E+03  0.13374949814E+04  0.15792754045E+04  0.93726737546E+02 0.  0.
         13    1    3    3    0    0  0.92846510668E+02  0.25899719865E+03  0.38444001502E+03  0.47275167752E+03  0.00000000000E+00 0. -1.
        -13    1    3    3    0    0  0.27889389682E+03  0.48815897393E+03  0.95305496639E+03  0.11065237270E+04  0.00000000000E+00 0.  1.
         22    1    1    2    0    0 -0.37174040749E+03 -0.74715617258E+03 -0.58084919679E+03  0.10167689345E+04  0.00000000000E+00 0.  1.
<mgrwt>
<rscale>  0 0.24833311E+04</rscale>
<asrwt>0</asrwt>
<pdfrwt beam="1">  1        1 0.25789924E+00 0.24833311E+04</pdfrwt>
<pdfrwt beam="2">  1       -1 0.14149220E+00 0.24833311E+04</pdfrwt>
<totfact> 0.17940608E+00</totfact>
</mgrwt>
</event>
<event>
 6    1  0.9562506E-007  0.3503266E+04  0.7818608E-02  0.8113016E-01
          2   -1    0    0  501    0  0.00000000000E+00  0.00000000000E+00  0.20046527920E+04  0.20046527920E+04  0.00000000000E+00 0. -1.
         -2   -1    0    0    0  501 -0.00000000000E+00 -0.00000000000E+00 -0.15305487633E+04  0.15305487633E+04  0.00000000000E+00 0.  1.
         23    2    1    2    0    0 -0.54114835710E+03  0.15808742797E+04 -0.28911660819E+03  0.16982174037E+04  0.91372341121E+02 0.  0.
         11    1    3    3    0    0 -0.37124947654E+03  0.10332525932E+04 -0.14914366080E+03  0.11080076384E+04  0.00000000000E+00 0. -1.
        -11    1    3    3    0    0 -0.16989888055E+03  0.54762168646E+03 -0.13997294739E+03  0.59020976534E+03  0.00000000000E+00 0.  1.
         22    1    1    2    0    0  0.54114835710E+03 -0.15808742797E+04  0.76322063686E+03  0.18369841515E+04  0.00000000000E+00 0. -1.
<mgrwt>
<rscale>  0 0.35032664E+04</rscale>
<asrwt>0</asrwt>
<pdfrwt beam="1">  1        2 0.30840812E+00 0.35032664E+04</pdfrwt>
<pdfrwt beam="2">  1       -2 0.23546904E+00 0.35032664E+04</pdfrwt>
<totfact> 0.43123133E-01</totfact>
</mgrwt>
</event>
<event>
 6    1  0.9562506E-007  0.2733372E+04  0.7818608E-02  0.8324257E-01
          1   -1    0    0  501    0  0.00000000000E+00  0.00000000000E+00  0.18780085920E+04  0.18780085920E+04  0.00000000000E+00 0. -1.
         -1   -1    0    0    0  501 -0.00000000000E+00 -0.00000000000E+00 -0.99458075512E+03  0.99458075512E+03  0.00000000000E+00 0.  1.
         23    2    1    2    0    0 -0.12577252891E+04  0.33512071272E+03  0.94926567366E+01  0.13048069981E+04  0.90842703740E+02 0.  0.
         11    1    3    3    0    0 -0.52977529897E+03  0.16874186930E+03 -0.32121048301E+02  0.55692678837E+03  0.00000000000E+00 0. -1.
        -11    1    3    3    0    0 -0.72794999011E+03  0.16637884342E+03  0.41613705038E+02  0.74788020972E+03  0.00000000000E+00 0.  1.
         22    1    1    2    0    0  0.12577252891E+04 -0.33512071272E+03  0.87393518019E+03  0.15677823491E+04  0.00000000000E+00 0. -1.
<mgrwt>
<rscale>  0 0.27333724E+04</rscale>
<asrwt>0</asrwt>
<pdfrwt beam="1">  1        1 0.28892440E+00 0.27333724E+04</pdfrwt>
<pdfrwt beam="2">  1       -1 0.15301242E+00 0.27333724E+04</pdfrwt>
<totfact> 0.10378468E+00</totfact>
</mgrwt>
</event>
<event>
 6    1  0.2069080E-006  0.3862625E+04  0.7818608E-02  0.8032848E-01
         -2   -1    0    0    0  501 -0.00000000000E+00  0.00000000000E+00  0.22376775542E+04  0.22376775542E+04  0.00000000000E+00 0.  1.
          2   -1    0    0  501    0  0.00000000000E+00 -0.00000000000E+00 -0.16668924418E+04  0.16668924418E+04  0.00000000000E+00 0. -1.
         23    2    1    2    0    0 -0.36596857988E+03  0.88873806280E+03 -0.14065568062E+04  0.17060092375E+04  0.90978698823E+02 0.  0.
         13    1    3    3    0    0 -0.10193571838E+03  0.15483355618E+03 -0.28009367726E+03  0.33588210557E+03  0.00000000000E+00 0.  1.
        -13    1    3    3    0    0 -0.26403286150E+03  0.73390450662E+03 -0.11264631289E+04  0.13701271319E+04  0.00000000000E+00 0. -1.
         22    1    1    2    0    0  0.36596857988E+03 -0.88873806280E+03  0.19773419186E+04  0.21985607585E+04  0.00000000000E+00 0.  1.
<mgrwt>
<rscale>  0 0.38626249E+04</rscale>
<asrwt>0</asrwt>
<pdfrwt beam="1">  1        2 0.25644499E+00 0.38626249E+04</pdfrwt>
<pdfrwt beam="2">  1       -2 0.34425808E+00 0.38626249E+04</pdfrwt>
<totfact> 0.13797668E-01</totfact>
</mgrwt>
</event>
<event>
 6    1  0.9562506E-007  0.4473367E+04  0.7818608E-02  0.7915316E-01
         -2   -1    0    0    0  501 -0.00000000000E+00  0.00000000000E+00  0.15437151544E+04  0.15437151544E+04  0.00000000000E+00 0.  1.
          2   -1    0    0  501    0  0.00000000000E+00 -0.00000000000E+00 -0.32407222201E+04  0.32407222201E+04  0.00000000000E+00 0. -1.
         23    2    1    2    0    0 -0.72210221091E+03  0.73738963604E+03  0.12723525922E+04  0.16408292793E+04  0.90909441361E+02 0.  0.
         13    1    3    3    0    0 -0.37330100843E+03  0.41613159199E+03  0.62771147949E+03  0.84055984096E+03  0.00000000000E+00 0. -1.
        -13    1    3    3    0    0 -0.34880120248E+03  0.32125804404E+03  0.64464111271E+03  0.80026943832E+03  0.00000000000E+00 0.  1.
         22    1    1    2    0    0  0.72210221091E+03 -0.73738963604E+03 -0.29693596579E+04  0.31436080952E+04  0.00000000000E+00 0. -1.
<mgrwt>
<rscale>  0 0.44733665E+04</rscale>
<asrwt>0</asrwt>
<pdfrwt beam="1">  1        2 0.49857264E+00 0.44733665E+04</pdfrwt>
<pdfrwt beam="2">  1       -2 0.23749464E+00 0.44733665E+04</pdfrwt>
<totfact> 0.71011007E-02</totfact>
</mgrwt>
</event>
<event>
 6    1  0.9562506E-007  0.1121394E+04  0.7818608E-02  0.9184587E-01
          4   -1    0    0  501    0  0.00000000000E+00  0.00000000000E+00  0.64599013911E+03  0.64599013911E+03  0.00000000000E+00 0. -1.
         -4   -1    0    0    0  501 -0.00000000000E+00 -0.00000000000E+00 -0.48666530084E+03  0.48666530084E+03  0.00000000000E+00 0.  1.
         23    2    1    2    0    0 -0.79329021334E+02  0.53807101280E+03 -0.38892115484E+02  0.55377421793E+03  0.96642533904E+02 0.  0.
         13    1    3    3    0    0 -0.63615911374E+02  0.19054347822E+03 -0.44902037241E+02  0.20583972945E+03  0.00000000000E+00 0.  1.
        -13    1    3    3    0    0 -0.15713109961E+02  0.34752753458E+03  0.60099217571E+01  0.34793448848E+03  0.00000000000E+00 0. -1.
         22    1    1    2    0    0  0.79329021334E+02 -0.53807101280E+03  0.19821695375E+03  0.57888122201E+03  0.00000000000E+00 0.  1.
<mgrwt>
<rscale>  0 0.11213937E+04</rscale>
<asrwt>0</asrwt>
<pdfrwt beam="1">  1        4 0.99383098E-01 0.11213937E+04</pdfrwt>
<pdfrwt beam="2">  1       -4 0.74871585E-01 0.11213937E+04</pdfrwt>
<totfact> 0.26671533E+00</totfact>
</mgrwt>
</event>
<event>
 6    1  0.9562506E-007  0.2963400E+04  0.7818608E-02  0.8254260E-01
          2   -1    0    0  501    0  0.00000000000E+00  0.00000000000E+00  0.23302267539E+04  0.23302267539E+04  0.00000000000E+00 0. -1.
         -2   -1    0    0    0  501 -0.00000000000E+00 -0.00000000000E+00 -0.94215532565E+03  0.94215532565E+03  0.00000000000E+00 0.  1.
         23    2    1    2    0    0 -0.13639877416E+04  0.12739662836E+03  0.13140823800E+04  0.19004612219E+04  0.90817918016E+02 0.  0.
         11    1    3    3    0    0 -0.69534143450E+03  0.40067336267E+02  0.72030642422E+03  0.10019712804E+04  0.00000000000E+00 0. -1.
        -11    1    3    3    0    0 -0.66864630714E+03  0.87329292092E+02  0.59377595581E+03  0.89848994151E+03  0.00000000000E+00 0.  1.
         22    1    1    2    0    0  0.13639877416E+04 -0.12739662836E+03  0.73989048179E+02  0.13719208576E+04  0.00000000000E+00 0.  1.
<mgrwt>
<rscale>  0 0.29634004E+04</rscale>
<asrwt>0</asrwt>
<pdfrwt beam="1">  1        2 0.35849642E+00 0.29634004E+04</pdfrwt>
<pdfrwt beam="2">  1       -2 0.14494697E+00 0.29634004E+04</pdfrwt>
<totfact> 0.12270513E+00</totfact>
</mgrwt>
</event>
<event>
 6    1  0.9562506E-007  0.3256388E+04  0.7818608E-02  0.8174082E-01
         -2   -1    0    0    0  501 -0.00000000000E+00  0.00000000000E+00  0.15070027634E+04  0.15070027634E+04  0.00000000000E+00 0.  1.
          2   -1    0    0  501    0  0.00000000000E+00 -0.00000000000E+00 -0.17591313203E+04  0.17591313203E+04  0.00000000000E+00 0. -1.
         23    2    1    2    0    0  0.10515966944E+04 -0.75844457304E+03 -0.11118314969E+04  0.17104403724E+04  0.91341183712E+02 0.  0.
         13    1    3    3    0    0  0.88871178366E+03 -0.67575590620E+03 -0.93606574420E+03  0.14569398603E+04  0.00000000000E+00 0. -1.
        -13    1    3    3    0    0  0.16288491079E+03 -0.82688666840E+02 -0.17576575269E+03  0.25350051204E+03  0.00000000000E+00 0.  1.
         22    1    1    2    0    0 -0.10515966944E+04  0.75844457304E+03  0.85970293998E+03  0.15556937112E+04  0.00000000000E+00 0.  1.
<mgrwt>
<rscale>  0 0.32563880E+04</rscale>
<asrwt>0</asrwt>
<pdfrwt beam="1">  1        2 0.27063559E+00 0.32563880E+04</pdfrwt>
<pdfrwt beam="2">  1       -2 0.23184658E+00 0.32563880E+04</pdfrwt>
<totfact> 0.63448435E-01</totfact>
</mgrwt>
</event>
<event>
 6    1  0.2066219E-006  0.2814164E+04  0.7818608E-02  0.8298885E-01
         -2   -1    0    0    0  501 -0.00000000000E+00  0.00000000000E+00  0.98745685431E+03  0.98745685431E+03  0.00000000000E+00 0.  1.
          2   -1    0    0  501    0  0.00000000000E+00 -0.00000000000E+00 -0.20050288939E+04  0.20050288939E+04  0.00000000000E+00 0. -1.
         23    2    1    2    0    0 -0.20345751923E+03  0.73623592071E+03 -0.17637403987E+04  0.19246816870E+04  0.10090148383E+03 0.  0.
         13    1    3    3    0    0 -0.27085469912E+02  0.14389796989E+03 -0.25145553791E+03  0.29098133268E+03  0.00000000000E+00 0.  1.
        -13    1    3    3    0    0 -0.17637204932E+03  0.59233795082E+03 -0.15122848608E+04  0.16337003544E+04  0.00000000000E+00 0. -1.
         22    1    1    2    0    0  0.20345751923E+03 -0.73623592071E+03  0.74616835905E+03  0.10678040612E+04  0.00000000000E+00 0.  1.
<mgrwt>
<rscale>  0 0.28141638E+04</rscale>
<asrwt>0</asrwt>
<pdfrwt beam="1">  1        2 0.30846598E+00 0.28141638E+04</pdfrwt>
<pdfrwt beam="2">  1       -2 0.15191644E+00 0.28141638E+04</pdfrwt>
<totfact> 0.16714308E+00</totfact>
</mgrwt>
</event>
<event>
 6    1  0.1408822E-006  0.3719130E+04  0.7818608E-02  0.8063735E-01
         -2   -1    0    0    0  501 -0.00000000000E+00  0.00000000000E+00  0.21005791553E+04  0.21005791553E+04  0.00000000000E+00 0.  1.
          2   -1    0    0  501    0  0.00000000000E+00 -0.00000000000E+00 -0.16462044642E+04  0.16462044642E+04  0.00000000000E+00 0. -1.
         23    2    1    2    0    0 -0.41685714834E+03 -0.11212404103E+03  0.20484068457E+04  0.20953357116E+04  0.90108025783E+02 0.  0.
         13    1    3    3    0    0 -0.14644707692E+03 -0.75063221347E+02  0.64722615605E+03  0.66781953447E+03  0.00000000000E+00 0. -1.
        -13    1    3    3    0    0 -0.27041007142E+03 -0.37060819680E+02  0.14011806896E+04  0.14275161772E+04  0.00000000000E+00 0.  1.
         22    1    1    2    0    0  0.41685714834E+03  0.11212404103E+03 -0.15940321546E+04  0.16514479079E+04  0.00000000000E+00 0. -1.
<mgrwt>
<rscale>  0 0.37191304E+04</rscale>
<asrwt>0</asrwt>
<pdfrwt beam="1">  1        2 0.25326222E+00 0.37191304E+04</pdfrwt>
<pdfrwt beam="2">  1       -2 0.32316603E+00 0.37191304E+04</pdfrwt>
<totfact> 0.19408777E-01</totfact>
</mgrwt>
</event>
<event>
 6    1  0.9562506E-007  0.4014945E+03  0.7818608E-02  0.1043263E+00
          2   -1    0    0  501    0  0.00000000000E+00  0.00000000000E+00  0.10300296140E+03  0.10300296140E+03  0.00000000000E+00 0. -1.
         -2   -1    0    0    0  501 -0.00000000000E+00 -0.00000000000E+00 -0.39124570209E+03  0.39124570209E+03  0.00000000000E+00 0.  1.
         23    2    1    2    0    0 -0.18424860889E+03 -0.45979738965E+02 -0.14005145699E+03  0.25337038958E+03  0.92306323934E+02 0.  0.
         11    1    3    3    0    0 -0.81476849852E+02  0.26168930660E+02 -0.56848336794E+02  0.10273764349E+03  0.00000000000E+00 0.  1.
        -11    1    3    3    0    0 -0.10277175904E+03 -0.72148669625E+02 -0.83203120200E+02  0.15063274609E+03  0.00000000000E+00 0. -1.
         22    1    1    2    0    0  0.18424860889E+03  0.45979738965E+02 -0.14819128370E+03  0.24087827390E+03  0.00000000000E+00 0. -1.
<mgrwt>
<rscale>  0 0.40149454E+03</rscale>
<asrwt>0</asrwt>
<pdfrwt beam="1">  1        2 0.15846609E-01 0.40149454E+03</pdfrwt>
<pdfrwt beam="2">  1       -2 0.60191646E-01 0.40149454E+03</pdfrwt>
<totfact> 0.96549044E+02</totfact>
</mgrwt>
</event>
<event>
 6    1  0.9562506E-007  0.2352234E+04  0.7818608E-02  0.8457606E-01
         -2   -1    0    0    0  501 -0.00000000000E+00  0.00000000000E+00  0.56026777531E+03  0.56026777531E+03  0.00000000000E+00 0.  1.
          2   -1    0    0  501    0  0.00000000000E+00 -0.00000000000E+00 -0.24689105674E+04  0.24689105674E+04  0.00000000000E+00 0. -1.
         23    2    1    2    0    0 -0.10401755109E+04  0.45329480853E+03 -0.13455905923E+04  0.17625019608E+04  0.91421238621E+02 0.  0.
         11    1    3    3    0    0 -0.56153981290E+03  0.29269493629E+03 -0.73115602493E+03  0.96725716332E+03  0.00000000000E+00 0. -1.
        -11    1    3    3    0    0 -0.47863569797E+03  0.16059987223E+03 -0.61443456733E+03  0.79524479745E+03  0.00000000000E+00 0.  1.
         22    1    1    2    0    0  0.10401755109E+04 -0.45329480853E+03 -0.56305219982E+03  0.12666763819E+04  0.00000000000E+00 0.  1.
<mgrwt>
<rscale>  0 0.23522339E+04</rscale>
<asrwt>0</asrwt>
<pdfrwt beam="1">  1        2 0.37983240E+00 0.23522339E+04</pdfrwt>
<pdfrwt beam="2">  1       -2 0.86195041E-01 0.23522339E+04</pdfrwt>
<totfact> 0.38226200E+00</totfact>
</mgrwt>
</event>
<event>
 6    1  0.9562506E-007  0.6194354E+03  0.7818608E-02  0.9865885E-01
         -2   -1    0    0    0  501 -0.00000000000E+00  0.00000000000E+00  0.34297130405E+03  0.34297130405E+03  0.00000000000E+00 0.  1.
          2   -1    0    0  501    0  0.00000000000E+00 -0.00000000000E+00 -0.27968826027E+03  0.27968826027E+03  0.00000000000E+00 0. -1.
         23    2    1    2    0    0 -0.53883028803E+02  0.12076956677E+03 -0.24112326522E+03  0.29076821159E+03  0.94430158268E+02 0.  0.
         11    1    3    3    0    0 -0.12939350818E+02 -0.11761432539E+02 -0.74100166899E+01  0.18991220137E+02  0.00000000000E+00 0. -1.
        -11    1    3    3    0    0 -0.40943677985E+02  0.13253099931E+03 -0.23371324853E+03  0.27177699145E+03  0.00000000000E+00 0.  1.
         22    1    1    2    0    0  0.53883028803E+02 -0.12076956677E+03  0.30440630900E+03  0.33189135272E+03  0.00000000000E+00 0.  1.
<mgrwt>
<rscale>  0 0.61943538E+03</rscale>
<asrwt>0</asrwt>
<pdfrwt beam="1">  1        2 0.43028963E-01 0.61943538E+03</pdfrwt>
<pdfrwt beam="2">  1       -2 0.52764816E-01 0.61943538E+03</pdfrwt>
<totfact> 0.40603047E+02</totfact>
</mgrwt>
</event>
<event>
 6    1  0.9562506E-007  0.3409168E+03  0.7818608E-02  0.1066406E+00
          2   -1    0    0  501    0  0.00000000000E+00  0.00000000000E+00  0.55238496441E+03  0.55238496441E+03  0.00000000000E+00 0. -1.
         -2   -1    0    0    0  501 -0.00000000000E+00 -0.00000000000E+00 -0.52601130036E+02  0.52601130036E+02  0.00000000000E+00 0.  1.
         23    2    1    2    0    0  0.54781289363E+02  0.12702258039E+03  0.40541470180E+03  0.43753085035E+03  0.89086693594E+02 0.  0.
         13    1    3    3    0    0  0.74778283823E+02  0.64246681513E+02  0.23695030362E+03  0.25664152860E+03  0.00000000000E+00 0.  1.
        -13    1    3    3    0    0 -0.19996994460E+02  0.62775898877E+02  0.16846439818E+03  0.18088932174E+03  0.00000000000E+00 0. -1.
         22    1    1    2    0    0 -0.54781289363E+02 -0.12702258039E+03  0.94369132570E+02  0.16745524410E+03  0.00000000000E+00 0.  1.
<mgrwt>
<rscale>  0 0.34091684E+03</rscale>
<asrwt>0</asrwt>
<pdfrwt beam="1">  1        2 0.84982299E-01 0.34091684E+03</pdfrwt>
<pdfrwt beam="2">  1       -2 0.80924819E-02 0.34091684E+03</pdfrwt>
<totfact> 0.51752850E+03</totfact>
</mgrwt>
</event>
<event>
 6    1  0.9562506E-007  0.5462866E+04  0.7818608E-02  0.7760820E-01
          1   -1    0    0  501    0  0.00000000000E+00  0.00000000000E+00  0.26569302735E+04  0.26569302735E+04  0.00000000000E+00 0. -1.
         -1   -1    0    0    0  501 -0.00000000000E+00 -0.00000000000E+00 -0.28080248788E+04  0.28080248788E+04  0.00000000000E+00 0.  1.
         23    2    1    2    0    0 -0.26277053979E+04 -0.74252147408E+03 -0.93583862230E+02  0.27337500551E+04  0.91965356304E+02 0.  0.
         11    1    3    3    0    0 -0.19692191924E+04 -0.54127977445E+03 -0.10716345462E+03  0.20450652870E+04  0.00000000000E+00 0.  1.
        -11    1    3    3    0    0 -0.65848620552E+03 -0.20124169963E+03  0.13579592395E+02  0.68868476813E+03  0.00000000000E+00 0. -1.
         22    1    1    2    0    0  0.26277053979E+04  0.74252147408E+03 -0.57510743104E+02  0.27312050973E+04  0.00000000000E+00 0. -1.
<mgrwt>
<rscale>  0 0.54628660E+04</rscale>
<asrwt>0</asrwt>
<pdfrwt beam="1">  1        1 0.40875850E+00 0.54628660E+04</pdfrwt>
<pdfrwt beam="2">  1       -1 0.43200383E+00 0.54628660E+04</pdfrwt>
<totfact> 0.31631297E-03</totfact>
</mgrwt>
</event>
<event>
 6    1  0.9562506E-007  0.2870014E+04  0.7818608E-02  0.8281855E-01
          2   -1    0    0  501    0  0.00000000000E+00  0.00000000000E+00  0.32272712271E+04  0.32272712271E+04  0.00000000000E+00 0. -1.
         -2   -1    0    0    0  501 -0.00000000000E+00 -0.00000000000E+00 -0.63807630654E+03  0.63807630654E+03  0.00000000000E+00 0.  1.
         23    2    1    2    0    0 -0.92439291966E+03  0.32668356525E+03 -0.11284245748E+03  0.99093795704E+03  0.89443796680E+02 0.  0.
         11    1    3    3    0    0 -0.72092149234E+03  0.23059042293E+03 -0.56719970030E+02  0.75902364671E+03  0.00000000000E+00 0.  1.
        -11    1    3    3    0    0 -0.20347142732E+03  0.96093142325E+02 -0.56122487450E+02  0.23191431033E+03  0.00000000000E+00 0. -1.
         22    1    1    2    0    0  0.92439291966E+03 -0.32668356525E+03  0.27020373781E+04  0.28744095766E+04  0.00000000000E+00 0. -1.
<mgrwt>
<rscale>  0 0.28700141E+04</rscale>
<asrwt>0</asrwt>
<pdfrwt beam="1">  1        2 0.49650326E+00 0.28700141E+04</pdfrwt>
<pdfrwt beam="2">  1       -2 0.98165588E-01 0.28700141E+04</pdfrwt>
<totfact> 0.92870106E-01</totfact>
</mgrwt>
</event>
<event>
 6    1  0.9562506E-007  0.2389609E+04  0.7818608E-02  0.8443404E-01
          2   -1    0    0  501    0  0.00000000000E+00  0.00000000000E+00  0.27101249234E+04  0.27101249234E+04  0.00000000000E+00 0. -1.
         -2   -1    0    0    0  501 -0.00000000000E+00 -0.00000000000E+00 -0.52674966752E+03  0.52674966752E+03  0.00000000000E+00 0.  1.
         23    2    1    2    0    0  0.16532217399E+03 -0.11744733191E+04  0.12677180082E+04  0.17384930662E+04  0.92359051988E+02 0.  0.
         13    1    3    3    0    0  0.75653822075E+02 -0.50651508391E+03  0.48133902463E+03  0.70282877549E+03  0.00000000000E+00 0.  1.
        -13    1    3    3    0    0  0.89668351914E+02 -0.66795823516E+03  0.78637898352E+03  0.10356642907E+04  0.00000000000E+00 0. -1.
         22    1    1    2    0    0 -0.16532217399E+03  0.11744733191E+04  0.91565724775E+03  0.14983815248E+04  0.00000000000E+00 0.  1.
<mgrwt>
<rscale>  0 0.23896087E+04</rscale>
<asrwt>0</asrwt>
<pdfrwt beam="1">  1        2 0.41694229E+00 0.23896087E+04</pdfrwt>
<pdfrwt beam="2">  1       -2 0.81038412E-01 0.23896087E+04</pdfrwt>
<totfact> 0.31648011E+00</totfact>
</mgrwt>
</event>
<event>
 6    1  0.9562506E-007  0.1992856E+04  0.7818608E-02  0.8609968E-01
          2   -1    0    0  501    0  0.00000000000E+00  0.00000000000E+00  0.10831274684E+04  0.10831274684E+04  0.00000000000E+00 0. -1.
         -2   -1    0    0    0  501 -0.00000000000E+00 -0.00000000000E+00 -0.91666851997E+03  0.91666851997E+03  0.00000000000E+00 0.  1.
         23    2    1    2    0    0  0.40397471771E+03  0.44908648469E+03 -0.70921194749E+03  0.93599442733E+03  0.90717904834E+02 0.  0.
         13    1    3    3    0    0  0.29412557060E+03  0.33635162760E+03 -0.46035836722E+03  0.64153884913E+03  0.00000000000E+00 0. -1.
        -13    1    3    3    0    0  0.10984914711E+03  0.11273485709E+03 -0.24885358027E+03  0.29445557820E+03  0.00000000000E+00 0.  1.
         22    1    1    2    0    0 -0.40397471771E+03 -0.44908648469E+03  0.87567089590E+03  0.10638015610E+04  0.00000000000E+00 0. -1.
<mgrwt>
<rscale>  0 0.19928561E+04</rscale>
<asrwt>0</asrwt>
<pdfrwt beam="1">  1        2 0.16663500E+00 0.19928561E+04</pdfrwt>
<pdfrwt beam="2">  1       -2 0.14102593E+00 0.19928561E+04</pdfrwt>
<totfact> 0.73109869E+00</totfact>
</mgrwt>
</event>
<event>
 6    1  0.9562506E-007  0.2570755E+04  0.7818608E-02  0.8378203E-01
          2   -1    0    0  501    0  0.00000000000E+00  0.00000000000E+00  0.35707237176E+04  0.35707237176E+04  0.00000000000E+00 0. -1.
         -2   -1    0    0    0  501 -0.00000000000E+00 -0.00000000000E+00 -0.46270599375E+03  0.46270599375E+03  0.00000000000E+00 0.  1.
         23    2    1    2    0    0 -0.86549191590E+03  0.22377867869E+03  0.11035527161E+03  0.90530993566E+03  0.90855049990E+02 0.  0.
         13    1    3    3    0    0 -0.53830909875E+03  0.16979768456E+03  0.36852560572E+02  0.56565541693E+03  0.00000000000E+00 0.  1.
        -13    1    3    3    0    0 -0.32718281715E+03  0.53980994132E+02  0.73502711040E+02  0.33965451873E+03  0.00000000000E+00 0. -1.
         22    1    1    2    0    0  0.86549191590E+03 -0.22377867869E+03  0.29976624522E+04  0.31281197757E+04  0.00000000000E+00 0. -1.
<mgrwt>
<rscale>  0 0.25707550E+04</rscale>
<asrwt>0</asrwt>
<pdfrwt beam="1">  1        2 0.54934209E+00 0.25707550E+04</pdfrwt>
<pdfrwt beam="2">  1       -2 0.71185540E-01 0.25707550E+04</pdfrwt>
<totfact> 0.11523903E+00</totfact>
</mgrwt>
</event>
<event>
 6    1  0.9562506E-007  0.9721449E+03  0.7818608E-02  0.9339635E-01
          1   -1    0    0  501    0  0.00000000000E+00  0.00000000000E+00  0.11390443081E+03  0.11390443081E+03  0.00000000000E+00 0. -1.
         -1   -1    0    0    0  501 -0.00000000000E+00 -0.00000000000E+00 -0.20742512527E+04  0.20742512527E+04  0.00000000000E+00 0.  1.
         23    2    1    2    0    0 -0.15486123885E+03 -0.11181009644E+03 -0.19844455257E+04  0.19956349093E+04  0.89728177720E+02 0.  0.
         13    1    3    3    0    0 -0.63658592086E+02 -0.34172082938E+02 -0.11921467713E+04  0.11943341542E+04  0.00000000000E+00 0.  1.
        -13    1    3    3    0    0 -0.91202646768E+02 -0.77638013499E+02 -0.79229875438E+03  0.80130075510E+03  0.00000000000E+00 0. -1.
         22    1    1    2    0    0  0.15486123885E+03  0.11181009644E+03  0.24098703818E+02  0.19252077418E+03  0.00000000000E+00 0. -1.
<mgrwt>
<rscale>  0 0.97214486E+03</rscale>
<asrwt>0</asrwt>
<pdfrwt beam="1">  1        1 0.17523759E-01 0.97214486E+03</pdfrwt>
<pdfrwt beam="2">  1       -1 0.31911556E+00 0.97214486E+03</pdfrwt>
<totfact> 0.79275036E+00</totfact>
</mgrwt>
</event>
<event>
 6    1  0.9562506E-007  0.1088515E+04  0.7818608E-02  0.9216459E-01
          2   -1    0    0  501    0  0.00000000000E+00  0.00000000000E+00  0.33383205181E+03  0.33383205181E+03  0.00000000000E+00 0. -1.
         -2   -1    0    0    0  501 -0.00000000000E+00 -0.00000000000E+00 -0.88732144170E+03  0.88732144170E+03  0.00000000000E+00 0.  1.
         23    2    1    2    0    0 -0.29187523888E+03  0.32124240954E+03  0.82522975509E+02  0.45115377293E+03  0.91333699094E+02 0.  0.
         13    1    3    3    0    0 -0.17766878447E+03  0.14843135497E+03  0.76857675820E+02  0.24393680831E+03  0.00000000000E+00 0.  1.
        -13    1    3    3    0    0 -0.11420645440E+03  0.17281105457E+03  0.56652996884E+01  0.20721696463E+03  0.00000000000E+00 0. -1.
         22    1    1    2    0    0  0.29187523888E+03 -0.32124240954E+03 -0.63601236539E+03  0.76999972058E+03  0.00000000000E+00 0.  1.
<mgrwt>
<rscale>  0 0.10885152E+04</rscale>
<asrwt>0</asrwt>
<pdfrwt beam="1">  1        2 0.51358778E-01 0.10885152E+04</pdfrwt>
<pdfrwt beam="2">  1       -2 0.13651099E+00 0.10885152E+04</pdfrwt>
<totfact> 0.37085837E+01</totfact>
</mgrwt>
</event>
<event>
 6    1  0.9562506E-007  0.2660235E+04  0.7818608E-02  0.8348024E-01
         -3   -1    0    0    0  501 -0.00000000000E+00  0.00000000000E+00  0.65419146644E+03  0.65419146644E+03  0.00000000000E+00 0.  1.
          3   -1    0    0  501    0  0.00000000000E+00 -0.00000000000E+00 -0.27044254759E+04  0.27044254759E+04  0.00000000000E+00 0. -1.
         23    2    1    2    0    0 -0.10391912113E+04  0.77894257059E+03 -0.13797860897E+04  0.18970526040E+04  0.91263504054E+02 0.  0.
         13    1    3    3    0    0 -0.85141211854E+03  0.67977623256E+03 -0.11473464528E+04  0.15822143359E+04  0.00000000000E+00 0.  1.
        -13    1    3    3    0    0 -0.18777909277E+03  0.99166338035E+02 -0.23243963693E+03  0.31483826815E+03  0.00000000000E+00 0. -1.
         22    1    1    2    0    0  0.10391912113E+04 -0.77894257059E+03 -0.67044791975E+03  0.14615643383E+04  0.00000000000E+00 0.  1.
<mgrwt>
<rscale>  0 0.26602346E+04</rscale>
<asrwt>0</asrwt>
<pdfrwt beam="1">  1        3 0.41606546E+00 0.26602346E+04</pdfrwt>
<pdfrwt beam="2">  1       -3 0.10064484E+00 0.26602346E+04</pdfrwt>
<totfact> 0.18053597E-02</totfact>
</mgrwt>
</event>
<event>
 6    1  0.9562506E-007  0.1194246E+04  0.7818608E-02  0.9117908E-01
         -2   -1    0    0    0  501 -0.00000000000E+00  0.00000000000E+00  0.31053775650E+03  0.31053775650E+03  0.00000000000E+00 0.  1.
          2   -1    0    0  501    0  0.00000000000E+00 -0.00000000000E+00 -0.11481884443E+04  0.11481884443E+04  0.00000000000E+00 0. -1.
         23    2    1    2    0    0  0.20757450371E+03 -0.37489801016E+03  0.79717407117E+02  0.44620463847E+03  0.95435956421E+02 0.  0.
         13    1    3    3    0    0  0.16503739518E+03 -0.23629793963E+03  0.18467346035E+02  0.28881672554E+03  0.00000000000E+00 0. -1.
        -13    1    3    3    0    0  0.42537108531E+02 -0.13860007053E+03  0.61250061082E+02  0.15738791293E+03  0.00000000000E+00 0.  1.
         22    1    1    2    0    0 -0.20757450371E+03  0.37489801016E+03 -0.91736809491E+03  0.10125215623E+04  0.00000000000E+00 0. -1.
<mgrwt>
<rscale>  0 0.11942460E+04</rscale>
<asrwt>0</asrwt>
<pdfrwt beam="1">  1        2 0.17664437E+00 0.11942460E+04</pdfrwt>
<pdfrwt beam="2">  1       -2 0.47775040E-01 0.11942460E+04</pdfrwt>
<totfact> 0.83379597E+01</totfact>
</mgrwt>
</event>
<event>
 6    1  0.9562506E-007  0.1278842E+04  0.7818608E-02  0.9046514E-01
          2   -1    0    0  501    0  0.00000000000E+00  0.00000000000E+00  0.51168738729E+03  0.51168738729E+03  0.00000000000E+00 0. -1.
         -2   -1    0    0    0  501 -0.00000000000E+00 -0.00000000000E+00 -0.79904163882E+03  0.79904163882E+03  0.00000000000E+00 0.  1.
         23    2    1    2    0    0 -0.21766347105E+03 -0.48697078852E+03  0.21087075984E+03  0.58083444643E+03  0.91565502780E+02 0.  0.
         11    1    3    3    0    0 -0.13967326915E+03 -0.29498182086E+03  0.17563401564E+03  0.37063486642E+03  0.00000000000E+00 0.  1.
        -11    1    3    3    0    0 -0.77990201903E+02 -0.19198896765E+03  0.35236744202E+02  0.21019958001E+03  0.00000000000E+00 0. -1.
         22    1    1    2    0    0  0.21766347105E+03  0.48697078852E+03 -0.49822501137E+03  0.72989457969E+03  0.00000000000E+00 0.  1.
<mgrwt>
<rscale>  0 0.12788425E+04</rscale>
<asrwt>0</asrwt>
<pdfrwt beam="1">  1        2 0.78721137E-01 0.12788425E+04</pdfrwt>
<pdfrwt beam="2">  1       -2 0.12292948E+00 0.12788425E+04</pdfrwt>
<totfact> 0.29407524E+01</totfact>
</mgrwt>
</event>
<event>
 6    1  0.9562506E-007  0.2705293E+04  0.7818608E-02  0.8333290E-01
          1   -1    0    0  501    0  0.00000000000E+00  0.00000000000E+00  0.10999398459E+04  0.10999398459E+04  0.00000000000E+00 0. -1.
         -1   -1    0    0    0  501 -0.00000000000E+00 -0.00000000000E+00 -0.16634115946E+04  0.16634115946E+04  0.00000000000E+00 0.  1.
         23    2    1    2    0    0  0.28223564219E+03 -0.11785162909E+04  0.32837695177E+03  0.12587080575E+04  0.89201713929E+02 0.  0.
         13    1    3    3    0    0  0.15927112234E+03 -0.50582594009E+03  0.16845108741E+03  0.55641975246E+03  0.00000000000E+00 0.  1.
        -13    1    3    3    0    0  0.12296451984E+03 -0.67269035085E+03  0.15992586436E+03  0.70228830501E+03  0.00000000000E+00 0. -1.
         22    1    1    2    0    0 -0.28223564219E+03  0.11785162909E+04 -0.89184870049E+03  0.15046433831E+04  0.00000000000E+00 0.  1.
<mgrwt>
<rscale>  0 0.27052931E+04</rscale>
<asrwt>0</asrwt>
<pdfrwt beam="1">  1        1 0.16922151E+00 0.27052931E+04</pdfrwt>
<pdfrwt beam="2">  1       -1 0.25590948E+00 0.27052931E+04</pdfrwt>
<totfact> 0.70595978E-01</totfact>
</mgrwt>
</event>
<event>
 6    1  0.9562506E-007  0.1369334E+04  0.7818608E-02  0.8976320E-01
         -1   -1    0    0    0  501 -0.00000000000E+00  0.00000000000E+00  0.24537334406E+03  0.24537334406E+03  0.00000000000E+00 0.  1.
          1   -1    0    0  501    0  0.00000000000E+00 -0.00000000000E+00 -0.19104319558E+04  0.19104319558E+04  0.00000000000E+00 0. -1.
         23    2    1    2    0    0  0.39197895683E+03 -0.32874942289E+02  0.40284081480E+02  0.40568474238E+03  0.90714048247E+02 0.  0.
         13    1    3    3    0    0  0.30454917998E+03 -0.62310194255E+01 -0.28319111906E+01  0.30462607957E+03  0.00000000000E+00 0.  1.
        -13    1    3    3    0    0  0.87429776846E+02 -0.26643922863E+02  0.43115992671E+02  0.10105866281E+03  0.00000000000E+00 0. -1.
         22    1    1    2    0    0 -0.39197895683E+03  0.32874942289E+02 -0.17053426932E+04  0.17501205575E+04  0.00000000000E+00 0. -1.
<mgrwt>
<rscale>  0 0.13693343E+04</rscale>
<asrwt>0</asrwt>
<pdfrwt beam="1">  1        1 0.29391261E+00 0.13693343E+04</pdfrwt>
<pdfrwt beam="2">  1       -1 0.37749745E-01 0.13693343E+04</pdfrwt>
<totfact> 0.22694973E+01</totfact>
</mgrwt>
</event>
<event>
 6    1  0.9562506E-007  0.1894045E+04  0.7818608E-02  0.8657826E-01
          2   -1    0    0  501    0  0.00000000000E+00  0.00000000000E+00  0.20920145380E+04  0.20920145380E+04  0.00000000000E+00 0. -1.
         -2   -1    0    0    0  501 -0.00000000000E+00 -0.00000000000E+00 -0.42870233196E+03  0.42870233196E+03  0.00000000000E+00 0.  1.
         23    2    1    2    0    0 -0.45990241394E+03  0.68871509490E+03  0.14389134994E+04  0.16626996838E+04  0.90881611729E+02 0.  0.
         11    1    3    3    0    0 -0.72353377566E+02  0.76652081740E+02  0.13767974963E+03  0.17339626968E+03  0.00000000000E+00 0.  1.
        -11    1    3    3    0    0 -0.38754903637E+03  0.61206301316E+03  0.13012337498E+04  0.14893034141E+04  0.00000000000E+00 0. -1.
         22    1    1    2    0    0  0.45990241394E+03 -0.68871509490E+03  0.22439870667E+03  0.85801718622E+03  0.00000000000E+00 0.  1.
<mgrwt>
<rscale>  0 0.18940449E+04</rscale>
<asrwt>0</asrwt>
<pdfrwt beam="1">  1        2 0.32184838E+00 0.18940449E+04</pdfrwt>
<pdfrwt beam="2">  1       -2 0.65954206E-01 0.18940449E+04</pdfrwt>
<totfact> 0.11768582E+01</totfact>
</mgrwt>
</event>
<event>
 6    1  0.1046986E-006  0.5561262E+04  0.7818608E-02  0.7747315E-01
          1   -1    0    0  501    0  0.00000000000E+00  0.00000000000E+00  0.21041054079E+04  0.21041054079E+04  0.00000000000E+00 0. -1.
         -1   -1    0    0    0  501 -0.00000000000E+00 -0.00000000000E+00 -0.36746775205E+04  0.36746775205E+04  0.00000000000E+00 0.  1.
         23    2    1    2    0    0 -0.49156902963E+03 -0.94615966230E+02 -0.36268696080E+04  0.36624295359E+04  0.92815196192E+02 0.  0.
         11    1    3    3    0    0 -0.19394575327E+03 -0.80451873346E+02 -0.16241856154E+04  0.16377015517E+04  0.00000000000E+00 0. -1.
        -11    1    3    3    0    0 -0.29762327636E+03 -0.14164092884E+02 -0.20026839925E+04  0.20247279842E+04  0.00000000000E+00 0.  1.
         22    1    1    2    0    0  0.49156902963E+03  0.94615966230E+02  0.20562974954E+04  0.21163533924E+04  0.00000000000E+00 0. -1.
<mgrwt>
<rscale>  0 0.55612620E+04</rscale>
<asrwt>0</asrwt>
<pdfrwt beam="1">  1        1 0.32370852E+00 0.55612620E+04</pdfrwt>
<pdfrwt beam="2">  1       -1 0.56533500E+00 0.55612620E+04</pdfrwt>
<totfact> 0.11136589E-03</totfact>
</mgrwt>
</event>
<event>
 6    1  0.9562506E-007  0.2107496E+04  0.7818608E-02  0.8557948E-01
         -2   -1    0    0    0  501 -0.00000000000E+00  0.00000000000E+00  0.21880093749E+03  0.21880093749E+03  0.00000000000E+00 0.  1.
          2   -1    0    0  501    0  0.00000000000E+00 -0.00000000000E+00 -0.50748643623E+04  0.50748643623E+04  0.00000000000E+00 0. -1.
         23    2    1    2    0    0  0.72495948711E+02  0.10111040305E+04 -0.31364239879E+04  0.32974822380E+04  0.92987391811E+02 0.  0.
         13    1    3    3    0    0  0.24140066129E+01  0.65163216301E+03 -0.20276030605E+04  0.21297428188E+04  0.00000000000E+00 0.  1.
        -13    1    3    3    0    0  0.70081942098E+02  0.35947186753E+03 -0.11088209274E+04  0.11677394192E+04  0.00000000000E+00 0. -1.
         22    1    1    2    0    0 -0.72495948711E+02 -0.10111040305E+04 -0.17196394369E+04  0.19961830618E+04  0.00000000000E+00 0.  1.
<mgrwt>
<rscale>  0 0.21074962E+04</rscale>
<asrwt>0</asrwt>
<pdfrwt beam="1">  1        2 0.78074831E+00 0.21074962E+04</pdfrwt>
<pdfrwt beam="2">  1       -2 0.33661685E-01 0.21074962E+04</pdfrwt>
<totfact> 0.21354077E-01</totfact>
</mgrwt>
</event>
<event>
 6    1  0.9562506E-007  0.1955396E+04  0.7818608E-02  0.8627763E-01
          2   -1    0    0  501    0  0.00000000000E+00  0.00000000000E+00  0.70743590268E+03  0.70743590268E+03  0.00000000000E+00 0. -1.
         -2   -1    0    0    0  501 -0.00000000000E+00 -0.00000000000E+00 -0.13512090967E+04  0.13512090967E+04  0.00000000000E+00 0.  1.
         23    2    1    2    0    0  0.34213200380E+03 -0.55394525675E+03  0.44220447131E+03  0.79244709024E+03  0.92292691345E+02 0.  0.
         11    1    3    3    0    0  0.22963428406E+03 -0.34378469504E+03  0.22886276125E+03  0.47254416137E+03  0.00000000000E+00 0.  1.
        -11    1    3    3    0    0  0.11249771974E+03 -0.21016056172E+03  0.21334171005E+03  0.31990292887E+03  0.00000000000E+00 0. -1.
         22    1    1    2    0    0 -0.34213200380E+03  0.55394525675E+03 -0.10859776653E+04  0.12661979091E+04  0.00000000000E+00 0.  1.
<mgrwt>
<rscale>  0 0.19553965E+04</rscale>
<asrwt>0</asrwt>
<pdfrwt beam="1">  1        2 0.10883629E+00 0.19553965E+04</pdfrwt>
<pdfrwt beam="2">  1       -2 0.20787832E+00 0.19553965E+04</pdfrwt>
<totfact> 0.44516821E+00</totfact>
</mgrwt>
</event>
<event>
 6    1  0.9562506E-007  0.1502452E+04  0.7818608E-02  0.8882824E-01
          2   -1    0    0  501    0  0.00000000000E+00  0.00000000000E+00  0.90310155888E+03  0.90310155888E+03  0.00000000000E+00 0. -1.
         -2   -1    0    0    0  501 -0.00000000000E+00 -0.00000000000E+00 -0.62489139151E+03  0.62489139151E+03  0.00000000000E+00 0.  1.
         23    2    1    2    0    0 -0.41255885203E+03  0.48935218568E+03 -0.25513322929E+03  0.69485097763E+03  0.89747135937E+02 0.  0.
         11    1    3    3    0    0 -0.44564382874E+02  0.49002405702E+02  0.14017021386E+01  0.66250922668E+02  0.00000000000E+00 0.  1.
        -11    1    3    3    0    0 -0.36799446915E+03  0.44034977997E+03 -0.25653493143E+03  0.62860005496E+03  0.00000000000E+00 0. -1.
         22    1    1    2    0    0  0.41255885203E+03 -0.48935218568E+03  0.53334339667E+03  0.83314197276E+03  0.00000000000E+00 0. -1.
<mgrwt>
<rscale>  0 0.15024518E+04</rscale>
<asrwt>0</asrwt>
<pdfrwt beam="1">  1        2 0.13893870E+00 0.15024518E+04</pdfrwt>
<pdfrwt beam="2">  1       -2 0.96137137E-01 0.15024518E+04</pdfrwt>
<totfact> 0.25555802E+01</totfact>
</mgrwt>
</event>
<event>
 6    1  0.9562506E-007  0.2620164E+04  0.7818608E-02  0.8361384E-01
          1   -1    0    0  501    0  0.00000000000E+00  0.00000000000E+00  0.15842002429E+04  0.15842002429E+04  0.00000000000E+00 0. -1.
         -1   -1    0    0    0  501 -0.00000000000E+00 -0.00000000000E+00 -0.10833952562E+04  0.10833952562E+04  0.00000000000E+00 0.  1.
         23    2    1    2    0    0 -0.10443729803E+04 -0.69738640784E+03 -0.12288672420E+03  0.12654349969E+04  0.95717609234E+02 0.  0.
         13    1    3    3    0    0 -0.74591850977E+03 -0.54879339775E+03 -0.91926717969E+02  0.93060149264E+03  0.00000000000E+00 0.  1.
        -13    1    3    3    0    0 -0.29845447049E+03 -0.14859301009E+03 -0.30960006228E+02  0.33483350428E+03  0.00000000000E+00 0. -1.
         22    1    1    2    0    0  0.10443729803E+04  0.69738640784E+03  0.62369171082E+03  0.14021605022E+04  0.00000000000E+00 0. -1.
<mgrwt>
<rscale>  0 0.26201641E+04</rscale>
<asrwt>0</asrwt>
<pdfrwt beam="1">  1        1 0.24372311E+00 0.26201641E+04</pdfrwt>
<pdfrwt beam="2">  1       -1 0.16667619E+00 0.26201641E+04</pdfrwt>
<totfact> 0.13099144E+00</totfact>
</mgrwt>
</event>
<event>
 6    1  0.9562506E-007  0.1601716E+04  0.7818608E-02  0.8819494E-01
         -2   -1    0    0    0  501 -0.00000000000E+00  0.00000000000E+00  0.24132055244E+03  0.24132055244E+03  0.00000000000E+00 0.  1.
          2   -1    0    0  501    0  0.00000000000E+00 -0.00000000000E+00 -0.26577674155E+04  0.26577674155E+04  0.00000000000E+00 0. -1.
         23    2    1    2    0    0  0.47391194028E+03  0.29076724998E+03 -0.22488670031E+04  0.23183805285E+04  0.91363867260E+02 0.  0.
         11    1    3    3    0    0  0.15213549604E+03  0.10637290080E+03 -0.58784237743E+03  0.61645686296E+03  0.00000000000E+00 0.  1.
        -11    1    3    3    0    0  0.32177644424E+03  0.18439434918E+03 -0.16610246257E+04  0.17019236655E+04  0.00000000000E+00 0. -1.
         22    1    1    2    0    0 -0.47391194028E+03 -0.29076724998E+03 -0.16757985993E+03  0.58070743947E+03  0.00000000000E+00 0.  1.
<mgrwt>
<rscale>  0 0.16017165E+04</rscale>
<asrwt>0</asrwt>
<pdfrwt beam="1">  1        2 0.40888724E+00 0.16017165E+04</pdfrwt>
<pdfrwt beam="2">  1       -2 0.37126243E-01 0.16017165E+04</pdfrwt>
<totfact> 0.18505614E+01</totfact>
</mgrwt>
</event>
<event>
 6    1  0.9562506E-007  0.1343324E+04  0.7818608E-02  0.8995897E-01
          1   -1    0    0  501    0  0.00000000000E+00  0.00000000000E+00  0.14826514876E+04  0.14826514876E+04  0.00000000000E+00 0. -1.
         -1   -1    0    0    0  501 -0.00000000000E+00 -0.00000000000E+00 -0.30427240355E+03  0.30427240355E+03  0.00000000000E+00 0.  1.
         23    2    1    2    0    0 -0.25964179282E+03  0.59649087703E+03  0.79726850986E+03  0.10329606979E+04  0.90307805447E+02 0.  0.
         13    1    3    3    0    0 -0.11057502897E+03  0.35144249505E+03  0.41303874333E+03  0.55347960021E+03  0.00000000000E+00 0. -1.
        -13    1    3    3    0    0 -0.14906676384E+03  0.24504838198E+03  0.38422976653E+03  0.47948109773E+03  0.00000000000E+00 0.  1.
         22    1    1    2    0    0  0.25964179282E+03 -0.59649087703E+03  0.38111057421E+03  0.75396319322E+03  0.00000000000E+00 0. -1.
<mgrwt>
<rscale>  0 0.13433241E+04</rscale>
<asrwt>0</asrwt>
<pdfrwt beam="1">  1        1 0.22810022E+00 0.13433241E+04</pdfrwt>
<pdfrwt beam="2">  1       -1 0.46811140E-01 0.13433241E+04</pdfrwt>
<totfact> 0.29951373E+01</totfact>
</mgrwt>
</event>
<event>
 6    1  0.9562506E-007  0.1820355E+04  0.7818608E-02  0.8695549E-01
          2   -1    0    0  501    0  0.00000000000E+00  0.00000000000E+00  0.13580470044E+04  0.13580470044E+04  0.00000000000E+00 0. -1.
         -2   -1    0    0    0  501 -0.00000000000E+00 -0.00000000000E+00 -0.61001039790E+03  0.61001039790E+03  0.00000000000E+00 0.  1.
         23    2    1    2    0    0 -0.23811243281E+03  0.23000670063E+03  0.12889846124E+04  0.13338450103E+04  0.89780663518E+02 0.  0.
         11    1    3    3    0    0 -0.16359033775E+03  0.20323483164E+03  0.90910882956E+03  0.94580392227E+03  0.00000000000E+00 0. -1.
        -11    1    3    3    0    0 -0.74522095052E+02  0.26771868981E+02  0.37987578284E+03  0.38804108804E+03  0.00000000000E+00 0.  1.
         22    1    1    2    0    0  0.23811243281E+03 -0.23000670063E+03 -0.54094800593E+03  0.63421239196E+03  0.00000000000E+00 0.  1.
<mgrwt>
<rscale>  0 0.18203547E+04</rscale>
<asrwt>0</asrwt>
<pdfrwt beam="1">  1        2 0.20893031E+00 0.18203547E+04</pdfrwt>
<pdfrwt beam="2">  1       -2 0.93847754E-01 0.18203547E+04</pdfrwt>
<totfact> 0.13828126E+01</totfact>
</mgrwt>
</event>
<event>
 6    1  0.9562506E-007  0.1802680E+04  0.7818608E-02  0.8704876E-01
          2   -1    0    0  501    0  0.00000000000E+00  0.00000000000E+00  0.13173606850E+04  0.13173606850E+04  0.00000000000E+00 0. -1.
         -2   -1    0    0    0  501 -0.00000000000E+00 -0.00000000000E+00 -0.61669800424E+03  0.61669800424E+03  0.00000000000E+00 0.  1.
         23    2    1    2    0    0 -0.25598716057E+03 -0.69656045325E+03 -0.19323791405E+03  0.77225656977E+03  0.91177994755E+02 0.  0.
         11    1    3    3    0    0 -0.28832683165E+02 -0.17502566781E+03 -0.66595035813E+02  0.18947349895E+03  0.00000000000E+00 0.  1.
        -11    1    3    3    0    0 -0.22715447741E+03 -0.52153478544E+03 -0.12664287824E+03  0.58278307082E+03  0.00000000000E+00 0. -1.
         22    1    1    2    0    0  0.25598716057E+03  0.69656045325E+03  0.89390059485E+03  0.11618021195E+04  0.00000000000E+00 0. -1.
<mgrwt>
<rscale>  0 0.18026799E+04</rscale>
<asrwt>0</asrwt>
<pdfrwt beam="1">  1        2 0.20267087E+00 0.18026799E+04</pdfrwt>
<pdfrwt beam="2">  1       -2 0.94876616E-01 0.18026799E+04</pdfrwt>
<totfact> 0.14252833E+01</totfact>
</mgrwt>
</event>
<event>
 6    1  0.9562506E-007  0.3333933E+04  0.7818608E-02  0.8154314E-01
         -1   -1    0    0    0  501 -0.00000000000E+00  0.00000000000E+00  0.30143245318E+04  0.30143245318E+04  0.00000000000E+00 0.  1.
          1   -1    0    0  501    0  0.00000000000E+00 -0.00000000000E+00 -0.92185755849E+03  0.92185755849E+03  0.00000000000E+00 0. -1.
         23    2    1    2    0    0  0.13266455502E+04 -0.84922230533E+02  0.22319541349E+04  0.25995232448E+04  0.93282572531E+02 0.  0.
         13    1    3    3    0    0  0.62968703906E+03 -0.45653040441E+01  0.11142645839E+04  0.12798875623E+04  0.00000000000E+00 0. -1.
        -13    1    3    3    0    0  0.69695851118E+03 -0.80356926489E+02  0.11176895510E+04  0.13196356825E+04  0.00000000000E+00 0.  1.
         22    1    1    2    0    0 -0.13266455502E+04  0.84922230533E+02 -0.13948716158E+03  0.13366588456E+04  0.00000000000E+00 0. -1.
<mgrwt>
<rscale>  0 0.33339333E+04</rscale>
<asrwt>0</asrwt>
<pdfrwt beam="1">  1        1 0.14182424E+00 0.33339333E+04</pdfrwt>
<pdfrwt beam="2">  1       -1 0.46374223E+00 0.33339333E+04</pdfrwt>
<totfact> 0.37573216E-02</totfact>
</mgrwt>
</event>
<event>
 6    1  0.9562506E-007  0.1529131E+04  0.7818608E-02  0.8865309E-01
          2   -1    0    0  501    0  0.00000000000E+00  0.00000000000E+00  0.24810718912E+03  0.24810718912E+03  0.00000000000E+00 0. -1.
         -2   -1    0    0    0  501 -0.00000000000E+00 -0.00000000000E+00 -0.23560785840E+04  0.23560785840E+04  0.00000000000E+00 0.  1.
         23    2    1    2    0    0 -0.38237072449E+03  0.42802397827E+03 -0.19108826756E+04  0.19973448877E+04  0.92206851818E+02 0.  0.
         13    1    3    3    0    0 -0.13658464011E+03  0.13970118280E+03 -0.51027537598E+03  0.54639980209E+03  0.00000000000E+00 0. -1.
        -13    1    3    3    0    0 -0.24578608438E+03  0.28832279547E+03 -0.14006072997E+04  0.14509450856E+04  0.00000000000E+00 0.  1.
         22    1    1    2    0    0  0.38237072449E+03 -0.42802397827E+03 -0.19708871921E+03  0.60684088538E+03  0.00000000000E+00 0. -1.
<mgrwt>
<rscale>  0 0.15291305E+04</rscale>
<asrwt>0</asrwt>
<pdfrwt beam="1">  1        2 0.38170337E-01 0.15291305E+04</pdfrwt>
<pdfrwt beam="2">  1       -2 0.36247362E+00 0.15291305E+04</pdfrwt>
<totfact> 0.17098041E+00</totfact>
</mgrwt>
</event>
<event>
 6    1  0.9562506E-007  0.8985065E+03  0.7818608E-02  0.9427450E-01
          1   -1    0    0  501    0  0.00000000000E+00  0.00000000000E+00  0.39584059377E+03  0.39584059377E+03  0.00000000000E+00 0. -1.
         -1   -1    0    0    0  501 -0.00000000000E+00 -0.00000000000E+00 -0.50987317914E+03  0.50987317914E+03  0.00000000000E+00 0.  1.
         23    2    1    2    0    0  0.60302954382E+02  0.15867436232E+03  0.35688215061E+03  0.40513941467E+03  0.89213655511E+02 0.  0.
         11    1    3    3    0    0  0.81659131654E+02  0.11050215955E+03  0.23265576057E+03  0.27019926716E+03  0.00000000000E+00 0. -1.
        -11    1    3    3    0    0 -0.21356177271E+02  0.48172202772E+02  0.12422639004E+03  0.13494014751E+03  0.00000000000E+00 0.  1.
         22    1    1    2    0    0 -0.60302954382E+02 -0.15867436232E+03 -0.47091473598E+03  0.50057435824E+03  0.00000000000E+00 0.  1.
<mgrwt>
<rscale>  0 0.89850654E+03</rscale>
<asrwt>0</asrwt>
<pdfrwt beam="1">  1        1 0.60898553E-01 0.89850654E+03</pdfrwt>
<pdfrwt beam="2">  1       -1 0.78442027E-01 0.89850654E+03</pdfrwt>
<totfact> 0.99805538E+01</totfact>
</mgrwt>
</event>
<event>
 6    1  0.9562506E-007  0.8739764E+03  0.7818608E-02  0.9458710E-01
          1   -1    0    0  501    0  0.00000000000E+00  0.00000000000E+00  0.17586068951E+04  0.17586068951E+04  0.00000000000E+00 0. -1.
         -1   -1    0    0    0  501 -0.00000000000E+00 -0.00000000000E+00 -0.10858520644E+03  0.10858520644E+03  0.00000000000E+00 0.  1.
         23    2    1    2    0    0  0.84340132724E+02 -0.42232296353E+03  0.74314012989E+03  0.86324782762E+03  0.86426938690E+02 0.  0.
         11    1    3    3    0    0  0.51613375353E+02 -0.19154052419E+03  0.26207273651E+03  0.32868500445E+03  0.00000000000E+00 0. -1.
        -11    1    3    3    0    0  0.32726757371E+02 -0.23078243933E+03  0.48106739338E+03  0.53456282318E+03  0.00000000000E+00 0.  1.
         22    1    1    2    0    0 -0.84340132724E+02  0.42232296353E+03  0.90688155882E+03  0.10039442740E+04  0.00000000000E+00 0. -1.
<mgrwt>
<rscale>  0 0.87397641E+03</rscale>
<asrwt>0</asrwt>
<pdfrwt beam="1">  1        1 0.27055489E+00 0.87397641E+03</pdfrwt>
<pdfrwt beam="2">  1       -1 0.16705418E-01 0.87397641E+03</pdfrwt>
<totfact> 0.12157328E+02</totfact>
</mgrwt>
</event>
<event>
 6    1  0.9562506E-007  0.2804552E+04  0.7818608E-02  0.8301856E-01
          2   -1    0    0  501    0  0.00000000000E+00  0.00000000000E+00  0.19401112658E+04  0.19401112658E+04  0.00000000000E+00 0. -1.
         -2   -1    0    0    0  501 -0.00000000000E+00 -0.00000000000E+00 -0.10135389515E+04  0.10135389515E+04  0.00000000000E+00 0.  1.
         23    2    1    2    0    0  0.85430946486E+03 -0.10350118333E+04  0.40882676114E+02  0.13456886841E+04  0.90069332698E+02 0.  0.
         13    1    3    3    0    0  0.74285488537E+03 -0.93218304297E+03  0.56039514572E+02  0.11932891659E+04  0.00000000000E+00 0. -1.
        -13    1    3    3    0    0  0.11145457949E+03 -0.10282879029E+03 -0.15156838458E+02  0.15239951822E+03  0.00000000000E+00 0.  1.
         22    1    1    2    0    0 -0.85430946486E+03  0.10350118333E+04  0.88568963824E+03  0.16079615331E+04  0.00000000000E+00 0.  1.
<mgrwt>
<rscale>  0 0.28045523E+04</rscale>
<asrwt>0</asrwt>
<pdfrwt beam="1">  1        2 0.29847865E+00 0.28045523E+04</pdfrwt>
<pdfrwt beam="2">  1       -2 0.15592907E+00 0.28045523E+04</pdfrwt>
<totfact> 0.16952049E+00</totfact>
</mgrwt>
</event>
<event>
 6    1  0.9562506E-007  0.1743149E+04  0.7818608E-02  0.8737131E-01
          2   -1    0    0  501    0  0.00000000000E+00  0.00000000000E+00  0.15105053038E+04  0.15105053038E+04  0.00000000000E+00 0. -1.
         -2   -1    0    0    0  501 -0.00000000000E+00 -0.00000000000E+00 -0.50290575881E+03  0.50290575881E+03  0.00000000000E+00 0.  1.
         23    2    1    2    0    0  0.22710204295E+03 -0.78400145959E+03  0.15771421846E+03  0.83504834479E+03  0.78729517125E+02 0.  0.
         13    1    3    3    0    0  0.56185435430E+02 -0.30469170807E+03  0.82712126884E+02  0.32067917933E+03  0.00000000000E+00 0.  1.
        -13    1    3    3    0    0  0.17091660752E+03 -0.47930975152E+03  0.75002091579E+02  0.51436916546E+03  0.00000000000E+00 0. -1.
         22    1    1    2    0    0 -0.22710204295E+03  0.78400145959E+03  0.84988532656E+03  0.11783627179E+04  0.00000000000E+00 0.  1.
<mgrwt>
<rscale>  0 0.17431487E+04</rscale>
<asrwt>0</asrwt>
<pdfrwt beam="1">  1        2 0.23238543E+00 0.17431487E+04</pdfrwt>
<pdfrwt beam="2">  1       -2 0.77370117E-01 0.17431487E+04</pdfrwt>
<totfact> 0.17691562E+01</totfact>
</mgrwt>
</event>
<event>
 6    1  0.9562506E-007  0.2797035E+04  0.7818608E-02  0.8304189E-01
          2   -1    0    0  501    0  0.00000000000E+00  0.00000000000E+00  0.22393482863E+04  0.22393482863E+04  0.00000000000E+00 0. -1.
         -2   -1    0    0    0  501 -0.00000000000E+00 -0.00000000000E+00 -0.87340214651E+03  0.87340214651E+03  0.00000000000E+00 0.  1.
         23    2    1    2    0    0  0.13466403329E+04  0.91184951597E+02  0.10850550695E+04  0.17341081024E+04  0.89618778229E+02 0.  0.
         13    1    3    3    0    0  0.10962668079E+04  0.63951682492E+02  0.92410051138E+03  0.14352186199E+04  0.00000000000E+00 0. -1.
        -13    1    3    3    0    0  0.25037352506E+03  0.27233269105E+02  0.16095455808E+03  0.29888948253E+03  0.00000000000E+00 0.  1.
         22    1    1    2    0    0 -0.13466403329E+04 -0.91184951597E+02  0.28089107032E+03  0.13786423304E+04  0.00000000000E+00 0.  1.
<mgrwt>
<rscale>  0 0.27970353E+04</rscale>
<asrwt>0</asrwt>
<pdfrwt beam="1">  1        2 0.34451512E+00 0.27970353E+04</pdfrwt>
<pdfrwt beam="2">  1       -2 0.13436956E+00 0.27970353E+04</pdfrwt>
<totfact> 0.17049619E+00</totfact>
</mgrwt>
</event>
<event>
 6    1  0.9562506E-007  0.3009238E+04  0.7818608E-02  0.8241098E-01
         -2   -1    0    0    0  501 -0.00000000000E+00  0.00000000000E+00  0.94284925577E+03  0.94284925577E+03  0.00000000000E+00 0.  1.
          2   -1    0    0  501    0  0.00000000000E+00 -0.00000000000E+00 -0.24011035766E+04  0.24011035766E+04  0.00000000000E+00 0. -1.
         23    2    1    2    0    0 -0.31355572238E+03  0.13753888815E+04 -0.13070730289E+04  0.19251971982E+04  0.89065048537E+02 0.  0.
         11    1    3    3    0    0 -0.12949799472E+03  0.76296463059E+03 -0.70290309795E+03  0.10454460882E+04  0.00000000000E+00 0. -1.
        -11    1    3    3    0    0 -0.18405772766E+03  0.61242425092E+03 -0.60416993091E+03  0.87975111006E+03  0.00000000000E+00 0.  1.
         22    1    1    2    0    0  0.31355572238E+03 -0.13753888815E+04 -0.15118129199E+03  0.14187556342E+04  0.00000000000E+00 0.  1.
<mgrwt>
<rscale>  0 0.30092383E+04</rscale>
<asrwt>0</asrwt>
<pdfrwt beam="1">  1        2 0.36940054E+00 0.30092383E+04</pdfrwt>
<pdfrwt beam="2">  1       -2 0.14505373E+00 0.30092383E+04</pdfrwt>
<totfact> 0.11114053E+00</totfact>
</mgrwt>
</event>
<event>
 6    1  0.9562506E-007  0.1310001E+04  0.7818608E-02  0.9021672E-01
         -2   -1    0    0    0  501 -0.00000000000E+00  0.00000000000E+00  0.78388929595E+03  0.78388929595E+03  0.00000000000E+00 0.  1.
          2   -1    0    0  501    0  0.00000000000E+00 -0.00000000000E+00 -0.54730369688E+03  0.54730369688E+03  0.00000000000E+00 0. -1.
         23    2    1    2    0    0 -0.30998158533E+03 -0.36243502477E+03  0.57087920405E+03  0.74878424912E+03  0.85598222405E+02 0.  0.
         11    1    3    3    0    0 -0.77692905279E+02 -0.13776210047E+03  0.22933214914E+03  0.27858179855E+03  0.00000000000E+00 0.  1.
        -11    1    3    3    0    0 -0.23228868005E+03 -0.22467292430E+03  0.34154705491E+03  0.47020245056E+03  0.00000000000E+00 0. -1.
         22    1    1    2    0    0  0.30998158533E+03  0.36243502477E+03 -0.33429360498E+03  0.58240874372E+03  0.00000000000E+00 0. -1.
<mgrwt>
<rscale>  0 0.13100008E+04</rscale>
<asrwt>0</asrwt>
<pdfrwt beam="1">  1        2 0.84200569E-01 0.13100008E+04</pdfrwt>
<pdfrwt beam="2">  1       -2 0.12059835E+00 0.13100008E+04</pdfrwt>
<totfact> 0.28438705E+01</totfact>
</mgrwt>
</event>
<event>
 6    1  0.9562506E-007  0.3123375E+04  0.7818608E-02  0.8209352E-01
          2   -1    0    0  501    0  0.00000000000E+00  0.00000000000E+00  0.31251176132E+04  0.31251176132E+04  0.00000000000E+00 0. -1.
         -2   -1    0    0    0  501 -0.00000000000E+00 -0.00000000000E+00 -0.78040849852E+03  0.78040849852E+03  0.00000000000E+00 0.  1.
         23    2    1    2    0    0  0.12170105593E+04  0.24793390190E+02 -0.47308217878E+02  0.12215968405E+04  0.91276281627E+02 0.  0.
         11    1    3    3    0    0  0.34063715791E+02 -0.10088787086E+02  0.94953066235E+01  0.36773376323E+02  0.00000000000E+00 0. -1.
        -11    1    3    3    0    0  0.11829468435E+04  0.34882177275E+02 -0.56803524501E+02  0.11848234642E+04  0.00000000000E+00 0.  1.
         22    1    1    2    0    0 -0.12170105593E+04 -0.24793390190E+02  0.23920173325E+04  0.26839292712E+04  0.00000000000E+00 0. -1.
<mgrwt>
<rscale>  0 0.31233753E+04</rscale>
<asrwt>0</asrwt>
<pdfrwt beam="1">  1        2 0.48078732E+00 0.31233753E+04</pdfrwt>
<pdfrwt beam="2">  1       -2 0.12006285E+00 0.31233753E+04</pdfrwt>
<totfact> 0.65110728E-01</totfact>
</mgrwt>
</event>
<event>
 6    1  0.9562506E-007  0.5878139E+04  0.7818608E-02  0.7705697E-01
          2   -1    0    0  501    0  0.00000000000E+00  0.00000000000E+00  0.37700791093E+04  0.37700791093E+04  0.00000000000E+00 0. -1.
         -2   -1    0    0    0  501 -0.00000000000E+00 -0.00000000000E+00 -0.22912329011E+04  0.22912329011E+04  0.00000000000E+00 0.  1.
         23    2    1    2    0    0 -0.19088464373E+03 -0.26496129248E+04  0.20349948016E+04  0.33472400040E+04  0.76981838247E+02 0.  0.
         13    1    3    3    0    0 -0.78729457373E+02 -0.12258804340E+04  0.89423705752E+03  0.15194212980E+04  0.00000000000E+00 0.  1.
        -13    1    3    3    0    0 -0.11215518636E+03 -0.14237324909E+04  0.11407577440E+04  0.18278187060E+04  0.00000000000E+00 0. -1.
         22    1    1    2    0    0  0.19088464373E+03  0.26496129248E+04 -0.55614859337E+03  0.27140720065E+04  0.00000000000E+00 0. -1.
<mgrwt>
<rscale>  0 0.58781389E+04</rscale>
<asrwt>0</asrwt>
<pdfrwt beam="1">  1        2 0.58001217E+00 0.58781389E+04</pdfrwt>
<pdfrwt beam="2">  1       -2 0.35249737E+00 0.58781389E+04</pdfrwt>
<totfact> 0.52566235E-03</totfact>
</mgrwt>
</event>
<event>
 6    1  0.9562506E-007  0.3919751E+04  0.7818608E-02  0.8020934E-01
          1   -1    0    0  501    0  0.00000000000E+00  0.00000000000E+00  0.25569627209E+04  0.25569627209E+04  0.00000000000E+00 0. -1.
         -1   -1    0    0    0  501 -0.00000000000E+00 -0.00000000000E+00 -0.15022164092E+04  0.15022164092E+04  0.00000000000E+00 0.  1.
         23    2    1    2    0    0  0.16615416119E+04 -0.34835469498E+03 -0.48434589518E+03  0.17677000569E+04  0.90005685061E+02 0.  0.
         13    1    3    3    0    0  0.15106722766E+04 -0.30641255865E+03 -0.46422873832E+03  0.16098222588E+04  0.00000000000E+00 0.  1.
        -13    1    3    3    0    0  0.15086933531E+03 -0.41942136338E+02 -0.20117156863E+02  0.15787779811E+03  0.00000000000E+00 0. -1.
         22    1    1    2    0    0 -0.16615416119E+04  0.34835469498E+03  0.15390922069E+04  0.22914790732E+04  0.00000000000E+00 0. -1.
<mgrwt>
<rscale>  0 0.39197507E+04</rscale>
<asrwt>0</asrwt>
<pdfrwt beam="1">  1        1 0.39337888E+00 0.39197507E+04</pdfrwt>
<pdfrwt beam="2">  1       -1 0.23111022E+00 0.39197507E+04</pdfrwt>
<totfact> 0.90403230E-02</totfact>
</mgrwt>
</event>
<event>
 6    1  0.9562506E-007  0.2453938E+04  0.7818608E-02  0.8419581E-01
          2   -1    0    0  501    0  0.00000000000E+00  0.00000000000E+00  0.88415388351E+03  0.88415388351E+03  0.00000000000E+00 0. -1.
         -2   -1    0    0    0  501 -0.00000000000E+00 -0.00000000000E+00 -0.17027051196E+04  0.17027051196E+04  0.00000000000E+00 0.  1.
         23    2    1    2    0    0  0.90387229618E+03 -0.86501551121E+02  0.45726984704E+03  0.10209129369E+04  0.93273069837E+02 0.  0.
         11    1    3    3    0    0  0.13877264621E+03 -0.62843826494E+01  0.10843074107E+03  0.17622305868E+03  0.00000000000E+00 0.  1.
        -11    1    3    3    0    0  0.76509964997E+03 -0.80217168472E+02  0.34883910596E+03  0.84468987821E+03  0.00000000000E+00 0. -1.
         22    1    1    2    0    0 -0.90387229618E+03  0.86501551121E+02 -0.12758210831E+04  0.15659460662E+04  0.00000000000E+00 0.  1.
<mgrwt>
<rscale>  0 0.24539383E+04</rscale>
<asrwt>0</asrwt>
<pdfrwt beam="1">  1        2 0.13602368E+00 0.24539383E+04</pdfrwt>
<pdfrwt beam="2">  1       -2 0.26195463E+00 0.24539383E+04</pdfrwt>
<totfact> 0.14605296E+00</totfact>
</mgrwt>
</event>
<event>
 6    1  0.9562506E-007  0.7306122E+03  0.7818608E-02  0.9666267E-01
         -1   -1    0    0    0  501 -0.00000000000E+00  0.00000000000E+00  0.19872436013E+03  0.19872436013E+03  0.00000000000E+00 0.  1.
          1   -1    0    0  501    0  0.00000000000E+00 -0.00000000000E+00 -0.67152584170E+03  0.67152584170E+03  0.00000000000E+00 0. -1.
         23    2    1    2    0    0 -0.64757071552E+02 -0.58723331530E+02 -0.65236757542E+03  0.67053568046E+03  0.12803412567E+03 0.  0.
         13    1    3    3    0    0 -0.26270535092E+02  0.25664836916E+02 -0.39967660302E+03  0.40136045130E+03  0.00000000000E+00 0. -1.
        -13    1    3    3    0    0 -0.38486536460E+02 -0.84388168446E+02 -0.25269097240E+03  0.26917522916E+03  0.00000000000E+00 0.  1.
         22    1    1    2    0    0  0.64757071552E+02  0.58723331530E+02  0.17956609385E+03  0.19971452137E+03  0.00000000000E+00 0.  1.
<mgrwt>
<rscale>  0 0.73061219E+03</rscale>
<asrwt>0</asrwt>
<pdfrwt beam="1">  1        1 0.10331167E+00 0.73061219E+03</pdfrwt>
<pdfrwt beam="2">  1       -1 0.30572979E-01 0.73061219E+03</pdfrwt>
<totfact> 0.28951465E+02</totfact>
</mgrwt>
</event>
<event>
 6    1  0.9562506E-007  0.3134476E+04  0.7818608E-02  0.8206339E-01
          2   -1    0    0  501    0  0.00000000000E+00  0.00000000000E+00  0.14228819364E+04  0.14228819364E+04  0.00000000000E+00 0. -1.
         -2   -1    0    0    0  501 -0.00000000000E+00 -0.00000000000E+00 -0.17262396601E+04  0.17262396601E+04  0.00000000000E+00 0.  1.
         23    2    1    2    0    0  0.48454978064E+03  0.14825971490E+04 -0.13072842287E+02  0.15625693256E+04  0.92569982798E+02 0.  0.
         13    1    3    3    0    0  0.29794581981E+03  0.89280633815E+03  0.37026223794E+02  0.94193726449E+03  0.00000000000E+00 0. -1.
        -13    1    3    3    0    0  0.18660396083E+03  0.58979081090E+03 -0.50099066082E+02  0.62063206108E+03  0.00000000000E+00 0.  1.
         22    1    1    2    0    0 -0.48454978064E+03 -0.14825971490E+04 -0.29028488140E+03  0.15865522710E+04  0.00000000000E+00 0.  1.
<mgrwt>
<rscale>  0 0.31344762E+04</rscale>
<asrwt>0</asrwt>
<pdfrwt beam="1">  1        2 0.21890491E+00 0.31344762E+04</pdfrwt>
<pdfrwt beam="2">  1       -2 0.26557533E+00 0.31344762E+04</pdfrwt>
<totfact> 0.61315248E-01</totfact>
</mgrwt>
</event>
<event>
 6    1  0.9562506E-007  0.4138793E+04  0.7818608E-02  0.7977118E-01
         -2   -1    0    0    0  501 -0.00000000000E+00  0.00000000000E+00  0.10629716642E+04  0.10629716642E+04  0.00000000000E+00 0.  1.
          2   -1    0    0  501    0  0.00000000000E+00 -0.00000000000E+00 -0.40287076015E+04  0.40287076015E+04  0.00000000000E+00 0. -1.
         23    2    1    2    0    0  0.68000186678E+03 -0.10221700612E+04  0.56436769824E+03  0.13541846704E+04  0.89839021577E+02 0.  0.
         13    1    3    3    0    0  0.56499631764E+03 -0.87610907915E+03  0.44664920720E+03  0.11341443787E+04  0.00000000000E+00 0. -1.
        -13    1    3    3    0    0  0.11500554914E+03 -0.14606098206E+03  0.11771849103E+03  0.22004029164E+03  0.00000000000E+00 0.  1.
         22    1    1    2    0    0 -0.68000186678E+03  0.10221700612E+04 -0.35301036355E+04  0.37374945954E+04  0.00000000000E+00 0. -1.
<mgrwt>
<rscale>  0 0.41387931E+04</rscale>
<asrwt>0</asrwt>
<pdfrwt beam="1">  1        2 0.61980116E+00 0.41387931E+04</pdfrwt>
<pdfrwt beam="2">  1       -2 0.16353410E+00 0.41387931E+04</pdfrwt>
<totfact> 0.59768885E-02</totfact>
</mgrwt>
</event>
<event>
 6    1  0.9562506E-007  0.4286105E+04  0.7818608E-02  0.7949192E-01
         -1   -1    0    0    0  501 -0.00000000000E+00  0.00000000000E+00  0.23602749100E+04  0.23602749100E+04  0.00000000000E+00 0.  1.
          1   -1    0    0  501    0  0.00000000000E+00 -0.00000000000E+00 -0.19458215626E+04  0.19458215626E+04  0.00000000000E+00 0. -1.
         23    2    1    2    0    0 -0.17014020332E+04 -0.37918549095E+03 -0.10435304825E+04  0.20335940275E+04  0.89433135491E+02 0.  0.
         11    1    3    3    0    0 -0.10394192531E+04 -0.24398963134E+03 -0.59002119817E+03  0.12198558678E+04  0.00000000000E+00 0. -1.
        -11    1    3    3    0    0 -0.66198278010E+03 -0.13519585960E+03 -0.45350928437E+03  0.81373815973E+03  0.00000000000E+00 0.  1.
         22    1    1    2    0    0  0.17014020332E+04  0.37918549095E+03  0.14579838299E+04  0.22725024451E+04  0.00000000000E+00 0.  1.
<mgrwt>
<rscale>  0 0.42861049E+04</rscale>
<asrwt>0</asrwt>
<pdfrwt beam="1">  1        1 0.29935716E+00 0.42861049E+04</pdfrwt>
<pdfrwt beam="2">  1       -1 0.36311922E+00 0.42861049E+04</pdfrwt>
<totfact> 0.31500532E-02</totfact>
</mgrwt>
</event>
<event>
 6    1  0.9562506E-007  0.1754249E+04  0.7818608E-02  0.8731015E-01
          2   -1    0    0  501    0  0.00000000000E+00  0.00000000000E+00  0.95195528287E+03  0.95195528287E+03  0.00000000000E+00 0. -1.
         -2   -1    0    0    0  501 -0.00000000000E+00 -0.00000000000E+00 -0.80817579924E+03  0.80817579924E+03  0.00000000000E+00 0.  1.
         23    2    1    2    0    0  0.19728389063E+03 -0.52369334729E+02 -0.78133370749E+03  0.81276742590E+03  0.91896928203E+02 0.  0.
         13    1    3    3    0    0  0.26207558255E+02 -0.38214967677E+02 -0.25414711136E+03  0.25833693905E+03  0.00000000000E+00 0. -1.
        -13    1    3    3    0    0  0.17107633237E+03 -0.14154367052E+02 -0.52718659613E+03  0.55443048684E+03  0.00000000000E+00 0.  1.
         22    1    1    2    0    0 -0.19728389063E+03  0.52369334729E+02  0.92511319113E+03  0.94736365622E+03  0.00000000000E+00 0. -1.
<mgrwt>
<rscale>  0 0.17542488E+04</rscale>
<asrwt>0</asrwt>
<pdfrwt beam="1">  1        2 0.14645466E+00 0.17542488E+04</pdfrwt>
<pdfrwt beam="2">  1       -2 0.12433474E+00 0.17542488E+04</pdfrwt>
<totfact> 0.12463829E+01</totfact>
</mgrwt>
</event>
<event>
 6    1  0.1002381E-006  0.2162339E+04  0.7818608E-02  0.8534269E-01
          2   -1    0    0  501    0  0.00000000000E+00  0.00000000000E+00  0.18005710686E+04  0.18005710686E+04  0.00000000000E+00 0. -1.
         -2   -1    0    0    0  501 -0.00000000000E+00 -0.00000000000E+00 -0.64919844466E+03  0.64919844466E+03  0.00000000000E+00 0.  1.
         23    2    1    2    0    0 -0.22529449446E+03 -0.18617141088E+03 -0.60032147628E+03  0.67386140071E+03  0.91026968639E+02 0.  0.
         11    1    3    3    0    0 -0.16031160315E+03 -0.16937966856E+03 -0.40522951430E+03  0.46754704735E+03  0.00000000000E+00 0. -1.
        -11    1    3    3    0    0 -0.64982891305E+02 -0.16791742323E+02 -0.19509196198E+03  0.20631435336E+03  0.00000000000E+00 0.  1.
         22    1    1    2    0    0  0.22529449446E+03  0.18617141088E+03  0.17516941002E+04  0.17759081125E+04  0.00000000000E+00 0. -1.
<mgrwt>
<rscale>  0 0.21623394E+04</rscale>
<asrwt>0</asrwt>
<pdfrwt beam="1">  1        2 0.27701093E+00 0.21623394E+04</pdfrwt>
<pdfrwt beam="2">  1       -2 0.99876685E-01 0.21623394E+04</pdfrwt>
<totfact> 0.65493962E+00</totfact>
</mgrwt>
</event>
<event>
 6    1  0.9562506E-007  0.2090786E+04  0.7818608E-02  0.8565313E-01
          2   -1    0    0  501    0  0.00000000000E+00  0.00000000000E+00  0.12059260196E+04  0.12059260196E+04  0.00000000000E+00 0. -1.
         -2   -1    0    0    0  501 -0.00000000000E+00 -0.00000000000E+00 -0.90623025313E+03  0.90623025313E+03  0.00000000000E+00 0.  1.
         23    2    1    2    0    0 -0.37148237521E+03 -0.10951686321E+03 -0.82870004906E+03  0.91914738135E+03  0.89972434230E+02 0.  0.
         11    1    3    3    0    0 -0.20384331020E+03 -0.96199345880E+02 -0.53800263371E+03  0.58331230326E+03  0.00000000000E+00 0. -1.
        -11    1    3    3    0    0 -0.16763906500E+03 -0.13317517328E+02 -0.29069741535E+03  0.33583507809E+03  0.00000000000E+00 0.  1.
         22    1    1    2    0    0  0.37148237521E+03  0.10951686321E+03  0.11283958155E+04  0.11930088913E+04  0.00000000000E+00 0. -1.
<mgrwt>
<rscale>  0 0.20907861E+04</rscale>
<asrwt>0</asrwt>
<pdfrwt beam="1">  1        2 0.18552708E+00 0.20907861E+04</pdfrwt>
<pdfrwt beam="2">  1       -2 0.13942004E+00 0.20907861E+04</pdfrwt>
<totfact> 0.62910744E+00</totfact>
</mgrwt>
</event>
<event>
 6    1  0.9562506E-007  0.2571412E+04  0.7818608E-02  0.8377977E-01
          2   -1    0    0  501    0  0.00000000000E+00  0.00000000000E+00  0.33811226416E+04  0.33811226416E+04  0.00000000000E+00 0. -1.
         -2   -1    0    0    0  501 -0.00000000000E+00 -0.00000000000E+00 -0.48890250858E+03  0.48890250858E+03  0.00000000000E+00 0.  1.
         23    2    1    2    0    0 -0.91397560330E+03 -0.60014951101E+03  0.43442847100E+03  0.11799934231E+04  0.90141794124E+02 0.  0.
         13    1    3    3    0    0 -0.43590203706E+03 -0.25350799626E+03  0.23851143630E+03  0.55782129336E+03  0.00000000000E+00 0. -1.
        -13    1    3    3    0    0 -0.47807356624E+03 -0.34664151474E+03  0.19591703470E+03  0.62217212969E+03  0.00000000000E+00 0.  1.
         22    1    1    2    0    0  0.91397560330E+03  0.60014951101E+03  0.24577916620E+04  0.26900317271E+04  0.00000000000E+00 0. -1.
<mgrwt>
<rscale>  0 0.25714116E+04</rscale>
<asrwt>0</asrwt>
<pdfrwt beam="1">  1        2 0.52017270E+00 0.25714116E+04</pdfrwt>
<pdfrwt beam="2">  1       -2 0.75215773E-01 0.25714116E+04</pdfrwt>
<totfact> 0.13824217E+00</totfact>
</mgrwt>
</event>
<event>
 6    1  0.9562506E-007  0.3314123E+04  0.7818608E-02  0.8159311E-01
         -2   -1    0    0    0  501 -0.00000000000E+00  0.00000000000E+00  0.13693287392E+04  0.13693287392E+04  0.00000000000E+00 0.  1.
          2   -1    0    0  501    0  0.00000000000E+00 -0.00000000000E+00 -0.20052543018E+04  0.20052543018E+04  0.00000000000E+00 0. -1.
         23    2    1    2    0    0  0.80555212423E+03  0.52350984139E+02 -0.17902674629E+04  0.19659808712E+04  0.91478668088E+02 0.  0.
         13    1    3    3    0    0  0.44417066325E+03  0.14431182181E+02 -0.10883843640E+04  0.11756174382E+04  0.00000000000E+00 0.  1.
        -13    1    3    3    0    0  0.36138146099E+03  0.37919801958E+02 -0.70188309887E+03  0.79036343299E+03  0.00000000000E+00 0. -1.
         22    1    1    2    0    0 -0.80555212423E+03 -0.52350984139E+02  0.11543419002E+04  0.14086021699E+04  0.00000000000E+00 0.  1.
<mgrwt>
<rscale>  0 0.33141227E+04</rscale>
<asrwt>0</asrwt>
<pdfrwt beam="1">  1        2 0.30850066E+00 0.33141227E+04</pdfrwt>
<pdfrwt beam="2">  1       -2 0.21066596E+00 0.33141227E+04</pdfrwt>
<totfact> 0.62778339E-01</totfact>
</mgrwt>
</event>
<event>
 6    1  0.9562506E-007  0.2338050E+04  0.7818608E-02  0.8463068E-01
          1   -1    0    0  501    0  0.00000000000E+00  0.00000000000E+00  0.65033942880E+03  0.65033942880E+03  0.00000000000E+00 0. -1.
         -1   -1    0    0    0  501 -0.00000000000E+00 -0.00000000000E+00 -0.21013949715E+04  0.21013949715E+04  0.00000000000E+00 0.  1.
         23    2    1    2    0    0  0.63462561902E+03 -0.50127963266E+03 -0.17172990138E+04  0.19003140973E+04  0.89704064024E+02 0.  0.
         13    1    3    3    0    0  0.13395100151E+03 -0.12201017408E+03 -0.30725786200E+03  0.35670260322E+03  0.00000000000E+00 0. -1.
        -13    1    3    3    0    0  0.50067461751E+03 -0.37926945857E+03 -0.14100411518E+04  0.15436114941E+04  0.00000000000E+00 0.  1.
         22    1    1    2    0    0 -0.63462561902E+03  0.50127963266E+03  0.26624347112E+03  0.85142030299E+03  0.00000000000E+00 0. -1.
<mgrwt>
<rscale>  0 0.23380505E+04</rscale>
<asrwt>0</asrwt>
<pdfrwt beam="1">  1        1 0.10005222E+00 0.23380505E+04</pdfrwt>
<pdfrwt beam="2">  1       -1 0.32329153E+00 0.23380505E+04</pdfrwt>
<totfact> 0.63889773E-01</totfact>
</mgrwt>
</event>
<event>
 6    1  0.9562506E-007  0.1052240E+04  0.7818608E-02  0.9253035E-01
         -1   -1    0    0    0  501 -0.00000000000E+00  0.00000000000E+00  0.11744737240E+03  0.11744737240E+03  0.00000000000E+00 0.  1.
          1   -1    0    0  501    0  0.00000000000E+00 -0.00000000000E+00 -0.23568179852E+04  0.23568179852E+04  0.00000000000E+00 0. -1.
         23    2    1    2    0    0 -0.13295291489E+03 -0.52247653819E+02 -0.23091852235E+04  0.23152673237E+04  0.87864036368E+02 0.  0.
         11    1    3    3    0    0 -0.37620170992E+02 -0.59191053635E+02 -0.11571740109E+04  0.11592974379E+04  0.00000000000E+00 0. -1.
        -11    1    3    3    0    0 -0.95332743893E+02  0.69433998158E+01 -0.11520112126E+04  0.11559698858E+04  0.00000000000E+00 0.  1.
         22    1    1    2    0    0  0.13295291489E+03  0.52247653819E+02  0.69814610720E+02  0.15899803387E+03  0.00000000000E+00 0.  1.
<mgrwt>
<rscale>  0 0.10522397E+04</rscale>
<asrwt>0</asrwt>
<pdfrwt beam="1">  1        1 0.36258739E+00 0.10522397E+04</pdfrwt>
<pdfrwt beam="2">  1       -1 0.18068826E-01 0.10522397E+04</pdfrwt>
<totfact> 0.41540274E+01</totfact>
</mgrwt>
</event>
<event>
 6    1  0.9562506E-007  0.2259287E+04  0.7818608E-02  0.8494149E-01
          1   -1    0    0  501    0  0.00000000000E+00  0.00000000000E+00  0.96408868678E+03  0.96408868678E+03  0.00000000000E+00 0. -1.
         -1   -1    0    0    0  501 -0.00000000000E+00 -0.00000000000E+00 -0.13236279919E+04  0.13236279919E+04  0.00000000000E+00 0.  1.
         23    2    1    2    0    0 -0.33272704438E+03 -0.38090743106E+02 -0.12705897972E+04  0.13170616474E+04  0.89970881045E+02 0.  0.
         11    1    3    3    0    0 -0.30060810488E+03 -0.30500023623E+02 -0.10052618682E+04  0.10496889577E+04  0.00000000000E+00 0.  1.
        -11    1    3    3    0    0 -0.32118939503E+02 -0.75907194832E+01 -0.26532792898E+03  0.26737268969E+03  0.00000000000E+00 0. -1.
         22    1    1    2    0    0  0.33272704438E+03  0.38090743106E+02  0.91105049206E+03  0.97065503134E+03  0.00000000000E+00 0. -1.
<mgrwt>
<rscale>  0 0.22592873E+04</rscale>
<asrwt>0</asrwt>
<pdfrwt beam="1">  1        1 0.14832134E+00 0.22592873E+04</pdfrwt>
<pdfrwt beam="2">  1       -1 0.20363508E+00 0.22592873E+04</pdfrwt>
<totfact> 0.20813918E+00</totfact>
</mgrwt>
</event>
<event>
 6    1  0.1536337E-006  0.3972304E+04  0.7818608E-02  0.8010157E-01
          1   -1    0    0  501    0  0.00000000000E+00  0.00000000000E+00  0.21372118466E+04  0.21372118466E+04  0.00000000000E+00 0. -1.
         -1   -1    0    0    0  501 -0.00000000000E+00 -0.00000000000E+00 -0.18457696177E+04  0.18457696177E+04  0.00000000000E+00 0.  1.
         23    2    1    2    0    0  0.11924921604E+04  0.11820538123E+04 -0.91661081688E+03  0.19144842008E+04  0.76063116319E+02 0.  0.
         13    1    3    3    0    0  0.72254662203E+03  0.73976450775E+03 -0.60181245075E+03  0.11964545013E+04  0.00000000000E+00 0.  1.
        -13    1    3    3    0    0  0.46994553838E+03  0.44228930451E+03 -0.31479836613E+03  0.71802969942E+03  0.00000000000E+00 0. -1.
         22    1    1    2    0    0 -0.11924921604E+04 -0.11820538123E+04  0.12080530458E+04  0.20684972635E+04  0.00000000000E+00 0.  1.
<mgrwt>
<rscale>  0 0.39723045E+04</rscale>
<asrwt>0</asrwt>
<pdfrwt beam="1">  1        1 0.32880182E+00 0.39723045E+04</pdfrwt>
<pdfrwt beam="2">  1       -1 0.28396456E+00 0.39723045E+04</pdfrwt>
<totfact> 0.79119916E-02</totfact>
</mgrwt>
</event>
<event>
 6    1  0.9562506E-007  0.3110450E+04  0.7818608E-02  0.8212876E-01
          1   -1    0    0  501    0  0.00000000000E+00  0.00000000000E+00  0.17905089115E+04  0.17905089115E+04  0.00000000000E+00 0. -1.
         -1   -1    0    0    0  501 -0.00000000000E+00 -0.00000000000E+00 -0.13508588672E+04  0.13508588672E+04  0.00000000000E+00 0.  1.
         23    2    1    2    0    0 -0.91810287351E+03  0.15389512722E+02 -0.10460156698E+04  0.13948419880E+04  0.91025637765E+02 0.  0.
         13    1    3    3    0    0 -0.14948370601E+03  0.35756144351E+02 -0.18352190260E+03  0.23938289194E+03  0.00000000000E+00 0. -1.
        -13    1    3    3    0    0 -0.76861916750E+03 -0.20366631629E+02 -0.86249376717E+03  0.11554590961E+04  0.00000000000E+00 0.  1.
         22    1    1    2    0    0  0.91810287351E+03 -0.15389512722E+02  0.14856657140E+04  0.17465257906E+04  0.00000000000E+00 0. -1.
<mgrwt>
<rscale>  0 0.31104500E+04</rscale>
<asrwt>0</asrwt>
<pdfrwt beam="1">  1        1 0.27546291E+00 0.31104500E+04</pdfrwt>
<pdfrwt beam="2">  1       -1 0.20782444E+00 0.31104500E+04</pdfrwt>
<totfact> 0.46373325E-01</totfact>
</mgrwt>
</event>
<event>
 6    1  0.9562506E-007  0.4354740E+04  0.7818608E-02  0.7936573E-01
          2   -1    0    0  501    0  0.00000000000E+00  0.00000000000E+00  0.29783273072E+04  0.29783273072E+04  0.00000000000E+00 0. -1.
         -2   -1    0    0    0  501 -0.00000000000E+00 -0.00000000000E+00 -0.15918130960E+04  0.15918130960E+04  0.00000000000E+00 0.  1.
         23    2    1    2    0    0 -0.24775022481E+03 -0.21223928611E+04  0.11270569405E+04  0.24176419233E+04  0.93826922340E+02 0.  0.
         11    1    3    3    0    0 -0.41501647531E+02 -0.68012245968E+03  0.33410143480E+03  0.75888913264E+03  0.00000000000E+00 0.  1.
        -11    1    3    3    0    0 -0.20624857728E+03 -0.14422704014E+04  0.79295550570E+03  0.16587527906E+04  0.00000000000E+00 0. -1.
         22    1    1    2    0    0  0.24775022481E+03  0.21223928611E+04  0.25945727076E+03  0.21524984799E+04  0.00000000000E+00 0.  1.
<mgrwt>
<rscale>  0 0.43547401E+04</rscale>
<asrwt>0</asrwt>
<pdfrwt beam="1">  1        2 0.45820420E+00 0.43547401E+04</pdfrwt>
<pdfrwt beam="2">  1       -2 0.24489432E+00 0.43547401E+04</pdfrwt>
<totfact> 0.95102715E-02</totfact>
</mgrwt>
</event>
<event>
 6    1  0.9562506E-007  0.3283164E+04  0.7818608E-02  0.8167193E-01
         -2   -1    0    0    0  501 -0.00000000000E+00  0.00000000000E+00  0.12239439528E+04  0.12239439528E+04  0.00000000000E+00 0.  1.
          2   -1    0    0  501    0  0.00000000000E+00 -0.00000000000E+00 -0.22017277783E+04  0.22017277783E+04  0.00000000000E+00 0. -1.
         23    2    1    2    0    0  0.79498716449E+03 -0.94079345028E+03  0.64085395977E+03  0.13916891383E+04  0.94910232397E+02 0.  0.
         11    1    3    3    0    0  0.45633036538E+03 -0.59773456770E+03  0.42136317001E+03  0.86201562447E+03  0.00000000000E+00 0.  1.
        -11    1    3    3    0    0  0.33865679910E+03 -0.34305888258E+03  0.21949078976E+03  0.52967351386E+03  0.00000000000E+00 0. -1.
         22    1    1    2    0    0 -0.79498716449E+03  0.94079345028E+03 -0.16186377853E+04  0.20339825928E+04  0.00000000000E+00 0. -1.
<mgrwt>
<rscale>  0 0.32831640E+04</rscale>
<asrwt>0</asrwt>
<pdfrwt beam="1">  1        2 0.33872735E+00 0.32831640E+04</pdfrwt>
<pdfrwt beam="2">  1       -2 0.18829907E+00 0.32831640E+04</pdfrwt>
<totfact> 0.68576604E-01</totfact>
</mgrwt>
</event>
<event>
 6    1  0.9562506E-007  0.1502520E+04  0.7818608E-02  0.8882779E-01
         -2   -1    0    0    0  501 -0.00000000000E+00  0.00000000000E+00  0.29585301366E+03  0.29585301366E+03  0.00000000000E+00 0.  1.
          2   -1    0    0  501    0  0.00000000000E+00 -0.00000000000E+00 -0.19076767377E+04  0.19076767377E+04  0.00000000000E+00 0. -1.
         23    2    1    2    0    0  0.46567434929E+03  0.58295001366E+03 -0.71849280098E+03  0.10396038705E+04  0.88662193228E+02 0.  0.
         13    1    3    3    0    0  0.15369677217E+03  0.16676773488E+03 -0.16788306105E+03  0.28216820757E+03  0.00000000000E+00 0. -1.
        -13    1    3    3    0    0  0.31197757712E+03  0.41618227878E+03 -0.55060973993E+03  0.75743566295E+03  0.00000000000E+00 0.  1.
         22    1    1    2    0    0 -0.46567434929E+03 -0.58295001366E+03 -0.89333092309E+03  0.11639258809E+04  0.00000000000E+00 0. -1.
<mgrwt>
<rscale>  0 0.15025204E+04</rscale>
<asrwt>0</asrwt>
<pdfrwt beam="1">  1        2 0.29348874E+00 0.15025204E+04</pdfrwt>
<pdfrwt beam="2">  1       -2 0.45515847E-01 0.15025204E+04</pdfrwt>
<totfact> 0.33253742E+01</totfact>
</mgrwt>
</event>
<event>
 6    1  0.9562506E-007  0.1899407E+04  0.7818608E-02  0.8655152E-01
         -1   -1    0    0    0  501 -0.00000000000E+00  0.00000000000E+00  0.92255069502E+03  0.92255069502E+03  0.00000000000E+00 0.  1.
          1   -1    0    0  501    0  0.00000000000E+00 -0.00000000000E+00 -0.97765544883E+03  0.97765544883E+03  0.00000000000E+00 0. -1.
         23    2    1    2    0    0 -0.18232313528E+03  0.46590706362E+03 -0.83346934438E+03  0.97491562005E+03  0.74014867438E+02 0.  0.
         11    1    3    3    0    0 -0.87245871782E+02  0.12933726852E+03 -0.25844896330E+03  0.30188712759E+03  0.00000000000E+00 0. -1.
        -11    1    3    3    0    0 -0.95077263498E+02  0.33656979510E+03 -0.57502038108E+03  0.67302849246E+03  0.00000000000E+00 0.  1.
         22    1    1    2    0    0  0.18232313528E+03 -0.46590706362E+03  0.77836459056E+03  0.92529052380E+03  0.00000000000E+00 0.  1.
<mgrwt>
<rscale>  0 0.18994070E+04</rscale>
<asrwt>0</asrwt>
<pdfrwt beam="1">  1        1 0.15040853E+00 0.18994070E+04</pdfrwt>
<pdfrwt beam="2">  1       -1 0.14193088E+00 0.18994070E+04</pdfrwt>
<totfact> 0.59616187E+00</totfact>
</mgrwt>
</event>
<event>
 6    1  0.9562506E-007  0.3765314E+04  0.7818608E-02  0.8053640E-01
         -2   -1    0    0    0  501 -0.00000000000E+00  0.00000000000E+00  0.25094665321E+04  0.25094665321E+04  0.00000000000E+00 0.  1.
          2   -1    0    0  501    0  0.00000000000E+00 -0.00000000000E+00 -0.14124104846E+04  0.14124104846E+04  0.00000000000E+00 0. -1.
         23    2    1    2    0    0  0.16178806114E+04  0.46584004357E+01 -0.45156977677E+03  0.16822785444E+04  0.92663176951E+02 0.  0.
         11    1    3    3    0    0  0.26874146746E+03  0.31263643781E+01 -0.11126894194E+03  0.29088232660E+03  0.00000000000E+00 0.  1.
        -11    1    3    3    0    0  0.13491391439E+04  0.15320360576E+01 -0.34030083482E+03  0.13913962178E+04  0.00000000000E+00 0. -1.
         22    1    1    2    0    0 -0.16178806114E+04 -0.46584004357E+01  0.15486258243E+04  0.22395984723E+04  0.00000000000E+00 0.  1.
<mgrwt>
<rscale>  0 0.37653137E+04</rscale>
<asrwt>0</asrwt>
<pdfrwt beam="1">  1        2 0.21729392E+00 0.37653137E+04</pdfrwt>
<pdfrwt beam="2">  1       -2 0.38607177E+00 0.37653137E+04</pdfrwt>
<totfact> 0.10463325E-01</totfact>
</mgrwt>
</event>
<event>
 6    1  0.9562506E-007  0.1055591E+04  0.7818608E-02  0.9249591E-01
          1   -1    0    0  501    0  0.00000000000E+00  0.00000000000E+00  0.15889719425E+04  0.15889719425E+04  0.00000000000E+00 0. -1.
         -1   -1    0    0    0  501 -0.00000000000E+00 -0.00000000000E+00 -0.17531340090E+03  0.17531340090E+03  0.00000000000E+00 0.  1.
         23    2    1    2    0    0 -0.13575858906E+03 -0.49363391773E+03  0.52527221418E+03  0.73893900875E+03  0.89527205013E+02 0.  0.
         13    1    3    3    0    0 -0.43603868550E+02 -0.31429007571E+03  0.34091362962E+03  0.46572701435E+03  0.00000000000E+00 0. -1.
        -13    1    3    3    0    0 -0.92154720512E+02 -0.17934384202E+03  0.18435858456E+03  0.27321199440E+03  0.00000000000E+00 0.  1.
         22    1    1    2    0    0  0.13575858906E+03  0.49363391773E+03  0.88838632746E+03  0.10253463347E+04  0.00000000000E+00 0. -1.
<mgrwt>
<rscale>  0 0.10555910E+04</rscale>
<asrwt>0</asrwt>
<pdfrwt beam="1">  1        1 0.24445721E+00 0.10555910E+04</pdfrwt>
<pdfrwt beam="2">  1       -1 0.26971294E-01 0.10555910E+04</pdfrwt>
<totfact> 0.69740563E+01</totfact>
</mgrwt>
</event>
<event>
 6    1  0.9562506E-007  0.1989787E+04  0.7818608E-02  0.8611411E-01
          2   -1    0    0  501    0  0.00000000000E+00  0.00000000000E+00  0.26764171002E+04  0.26764171002E+04  0.00000000000E+00 0. -1.
         -2   -1    0    0    0  501 -0.00000000000E+00 -0.00000000000E+00 -0.36982759334E+03  0.36982759334E+03  0.00000000000E+00 0.  1.
         23    2    1    2    0    0 -0.49278987342E+03 -0.75932385231E+03  0.17797927667E+04  0.19989007303E+04  0.92343191183E+02 0.  0.
         11    1    3    3    0    0 -0.17028038299E+03 -0.24811901686E+03  0.50046414801E+03  0.58397159075E+03  0.00000000000E+00 0. -1.
        -11    1    3    3    0    0 -0.32250949044E+03 -0.51120483545E+03  0.12793286187E+04  0.14149291395E+04  0.00000000000E+00 0.  1.
         22    1    1    2    0    0  0.49278987342E+03  0.75932385231E+03  0.52679674016E+03  0.10473439633E+04  0.00000000000E+00 0.  1.
<mgrwt>
<rscale>  0 0.19897868E+04</rscale>
<asrwt>0</asrwt>
<pdfrwt beam="1">  1        2 0.41175646E+00 0.19897868E+04</pdfrwt>
<pdfrwt beam="2">  1       -2 0.56896555E-01 0.19897868E+04</pdfrwt>
<totfact> 0.73948124E+00</totfact>
</mgrwt>
</event>
<event>
 6    1  0.9562506E-007  0.3645762E+04  0.7818608E-02  0.8080089E-01
         -2   -1    0    0    0  501 -0.00000000000E+00  0.00000000000E+00  0.16383867018E+04  0.16383867018E+04  0.00000000000E+00 0.  1.
          2   -1    0    0  501    0  0.00000000000E+00 -0.00000000000E+00 -0.20281505394E+04  0.20281505394E+04  0.00000000000E+00 0. -1.
         23    2    1    2    0    0  0.17237574525E+04 -0.56758792537E+03 -0.35546300444E+02  0.18174926578E+04  0.92305002784E+02 0.  0.
         11    1    3    3    0    0  0.89392429777E+03 -0.33175191695E+03  0.10710917455E+02  0.95355896949E+03  0.00000000000E+00 0.  1.
        -11    1    3    3    0    0  0.82983315470E+03 -0.23583600842E+03 -0.46257217899E+02  0.86393368827E+03  0.00000000000E+00 0. -1.
         22    1    1    2    0    0 -0.17237574525E+04  0.56758792537E+03 -0.35421753722E+03  0.18490445835E+04  0.00000000000E+00 0. -1.
<mgrwt>
<rscale>  0 0.36457619E+04</rscale>
<asrwt>0</asrwt>
<pdfrwt beam="1">  1        2 0.31202316E+00 0.36457619E+04</pdfrwt>
<pdfrwt beam="2">  1       -2 0.25205949E+00 0.36457619E+04</pdfrwt>
<totfact> 0.32661911E-01</totfact>
</mgrwt>
</event>
<event>
 6    1  0.9562506E-007  0.2491436E+04  0.7818608E-02  0.8406043E-01
         -1   -1    0    0    0  501 -0.00000000000E+00  0.00000000000E+00  0.14043839513E+04  0.14043839513E+04  0.00000000000E+00 0.  1.
          1   -1    0    0  501    0  0.00000000000E+00 -0.00000000000E+00 -0.11049779604E+04  0.11049779604E+04  0.00000000000E+00 0. -1.
         23    2    1    2    0    0  0.87998735395E+02  0.27432367022E+03 -0.10691286774E+04  0.11108325443E+04  0.88969428732E+02 0.  0.
         13    1    3    3    0    0  0.17711068610E+02  0.18586048822E+03 -0.60524995514E+03  0.63339190967E+03  0.00000000000E+00 0.  1.
        -13    1    3    3    0    0  0.70287666785E+02  0.88463181998E+02 -0.46387872222E+03  0.47744063463E+03  0.00000000000E+00 0. -1.
         22    1    1    2    0    0 -0.87998735395E+02 -0.27432367022E+03  0.13685346683E+04  0.13985293675E+04  0.00000000000E+00 0.  1.
<mgrwt>
<rscale>  0 0.24914360E+04</rscale>
<asrwt>0</asrwt>
<pdfrwt beam="1">  1        1 0.16999661E+00 0.24914360E+04</pdfrwt>
<pdfrwt beam="2">  1       -1 0.21605907E+00 0.24914360E+04</pdfrwt>
<totfact> 0.13071848E+00</totfact>
</mgrwt>
</event>
<event>
 6    1  0.9562506E-007  0.1746888E+04  0.7818608E-02  0.8735065E-01
         -2   -1    0    0    0  501 -0.00000000000E+00  0.00000000000E+00  0.47701210606E+03  0.47701210606E+03  0.00000000000E+00 0.  1.
          2   -1    0    0  501    0  0.00000000000E+00 -0.00000000000E+00 -0.15993403181E+04  0.15993403181E+04  0.00000000000E+00 0. -1.
         23    2    1    2    0    0  0.16382771578E+03 -0.72095458644E+03 -0.14494580810E+02  0.74447015060E+03  0.86085283833E+02 0.  0.
         13    1    3    3    0    0  0.71667882062E+02 -0.47391984493E+03 -0.30832058919E+02  0.48029878263E+03  0.00000000000E+00 0.  1.
        -13    1    3    3    0    0  0.92159833719E+02 -0.24703474151E+03  0.16337478109E+02  0.26417136797E+03  0.00000000000E+00 0. -1.
         22    1    1    2    0    0 -0.16382771578E+03  0.72095458644E+03 -0.11078336313E+04  0.13318822736E+04  0.00000000000E+00 0. -1.
<mgrwt>
<rscale>  0 0.17468883E+04</rscale>
<asrwt>0</asrwt>
<pdfrwt beam="1">  1        2 0.24605235E+00 0.17468883E+04</pdfrwt>
<pdfrwt beam="2">  1       -2 0.73386479E-01 0.17468883E+04</pdfrwt>
<totfact> 0.17729012E+01</totfact>
</mgrwt>
</event>
<event>
 6    1  0.9562506E-007  0.7940614E+03  0.7818608E-02  0.9568653E-01
         -1   -1    0    0    0  501 -0.00000000000E+00  0.00000000000E+00  0.19458598486E+03  0.19458598486E+03  0.00000000000E+00 0.  1.
          1   -1    0    0  501    0  0.00000000000E+00 -0.00000000000E+00 -0.81009614905E+03  0.81009614905E+03  0.00000000000E+00 0. -1.
         23    2    1    2    0    0 -0.62471279606E+02 -0.34947009587E+03 -0.52253424529E+03  0.63769912316E+03  0.87098366777E+02 0.  0.
         11    1    3    3    0    0 -0.12304749986E+02 -0.25562319983E+03 -0.32874292770E+03  0.41661317751E+03  0.00000000000E+00 0.  1.
        -11    1    3    3    0    0 -0.50166529620E+02 -0.93846896045E+02 -0.19379131759E+03  0.22108594565E+03  0.00000000000E+00 0. -1.
         22    1    1    2    0    0  0.62471279606E+02  0.34947009587E+03 -0.92975918905E+02  0.36698301075E+03  0.00000000000E+00 0.  1.
<mgrwt>
<rscale>  0 0.79406135E+03</rscale>
<asrwt>0</asrwt>
<pdfrwt beam="1">  1        1 0.12463018E+00 0.79406135E+03</pdfrwt>
<pdfrwt beam="2">  1       -1 0.29936306E-01 0.79406135E+03</pdfrwt>
<totfact> 0.22409062E+02</totfact>
</mgrwt>
</event>
<event>
 6    1  0.9562506E-007  0.2175793E+04  0.7818608E-02  0.8528572E-01
          1   -1    0    0  501    0  0.00000000000E+00  0.00000000000E+00  0.22333375971E+04  0.22333375971E+04  0.00000000000E+00 0. -1.
         -1   -1    0    0    0  501 -0.00000000000E+00 -0.00000000000E+00 -0.52993259851E+03  0.52993259851E+03  0.00000000000E+00 0.  1.
         23    2    1    2    0    0 -0.53100576413E+03  0.45023697790E+03 -0.20514556963E+03  0.73170780936E+03  0.92904013488E+02 0.  0.
         11    1    3    3    0    0 -0.72406270306E+02  0.96031529980E+02 -0.11823949803E+02  0.12084919743E+03  0.00000000000E+00 0. -1.
        -11    1    3    3    0    0 -0.45859949382E+03  0.35420544793E+03 -0.19332161983E+03  0.61085861193E+03  0.00000000000E+00 0.  1.
         22    1    1    2    0    0  0.53100576413E+03 -0.45023697790E+03  0.19085505682E+04  0.20315623863E+04  0.00000000000E+00 0. -1.
<mgrwt>
<rscale>  0 0.21757926E+04</rscale>
<asrwt>0</asrwt>
<pdfrwt beam="1">  1        1 0.34359039E+00 0.21757926E+04</pdfrwt>
<pdfrwt beam="2">  1       -1 0.81528094E-01 0.21757926E+04</pdfrwt>
<totfact> 0.28291099E+00</totfact>
</mgrwt>
</event>
<event>
 6    1  0.9562506E-007  0.2674945E+04  0.7818608E-02  0.8343180E-01
         -2   -1    0    0    0  501 -0.00000000000E+00  0.00000000000E+00  0.69728767876E+03  0.69728767876E+03  0.00000000000E+00 0.  1.
          2   -1    0    0  501    0  0.00000000000E+00 -0.00000000000E+00 -0.25654165115E+04  0.25654165115E+04  0.00000000000E+00 0. -1.
         23    2    1    2    0    0 -0.74707934690E+03 -0.94828944822E+03 -0.23712230793E+03  0.12335263488E+04  0.89329928764E+02 0.  0.
         13    1    3    3    0    0 -0.36900101702E+03 -0.51716406441E+03 -0.15807774056E+03  0.65468235973E+03  0.00000000000E+00 0. -1.
        -13    1    3    3    0    0 -0.37807832987E+03 -0.43112538381E+03 -0.79044567371E+02  0.57884398910E+03  0.00000000000E+00 0.  1.
         22    1    1    2    0    0  0.74707934690E+03  0.94828944822E+03 -0.16310065248E+04  0.20291778414E+04  0.00000000000E+00 0. -1.
<mgrwt>
<rscale>  0 0.26749455E+04</rscale>
<asrwt>0</asrwt>
<pdfrwt beam="1">  1        2 0.39467946E+00 0.26749455E+04</pdfrwt>
<pdfrwt beam="2">  1       -2 0.10727503E+00 0.26749455E+04</pdfrwt>
<totfact> 0.19564030E+00</totfact>
</mgrwt>
</event>
<event>
 6    1  0.9562506E-007  0.2688736E+04  0.7818608E-02  0.8338669E-01
         -1   -1    0    0    0  501 -0.00000000000E+00  0.00000000000E+00  0.20208014763E+04  0.20208014763E+04  0.00000000000E+00 0.  1.
          1   -1    0    0  501    0  0.00000000000E+00 -0.00000000000E+00 -0.89436075990E+03  0.89436075990E+03  0.00000000000E+00 0. -1.
         23    2    1    2    0    0 -0.39830833096E+03  0.77141985061E+03 -0.54696085658E+03  0.10299537764E+04  0.88884703457E+02 0.  0.
         11    1    3    3    0    0 -0.14932064392E+03  0.38233239936E+03 -0.24327479045E+03  0.47713451140E+03  0.00000000000E+00 0.  1.
        -11    1    3    3    0    0 -0.24898768704E+03  0.38908745125E+03 -0.30368606613E+03  0.55281926502E+03  0.00000000000E+00 0. -1.
         22    1    1    2    0    0  0.39830833096E+03 -0.77141985061E+03  0.16734015730E+04  0.18852084598E+04  0.00000000000E+00 0.  1.
<mgrwt>
<rscale>  0 0.26887362E+04</rscale>
<asrwt>0</asrwt>
<pdfrwt beam="1">  1        1 0.13759396E+00 0.26887362E+04</pdfrwt>
<pdfrwt beam="2">  1       -1 0.31089253E+00 0.26887362E+04</pdfrwt>
<totfact> 0.45102935E-01</totfact>
</mgrwt>
</event>
<event>
 6    1  0.9562506E-007  0.2437513E+04  0.7818608E-02  0.8425591E-01
          2   -1    0    0  501    0  0.00000000000E+00  0.00000000000E+00  0.14221349545E+04  0.14221349545E+04  0.00000000000E+00 0. -1.
         -2   -1    0    0    0  501 -0.00000000000E+00 -0.00000000000E+00 -0.10444633561E+04  0.10444633561E+04  0.00000000000E+00 0.  1.
         23    2    1    2    0    0 -0.18368595454E+03 -0.19609881860E+02  0.14063893496E+04  0.14214259377E+04  0.91627596745E+02 0.  0.
         13    1    3    3    0    0 -0.49804032088E+02 -0.40209071020E+02  0.29846530332E+03  0.30525194232E+03  0.00000000000E+00 0. -1.
        -13    1    3    3    0    0 -0.13388192245E+03  0.20599189160E+02  0.11079240462E+04  0.11161739954E+04  0.00000000000E+00 0.  1.
         22    1    1    2    0    0  0.18368595454E+03  0.19609881860E+02 -0.10287177512E+04  0.10451723728E+04  0.00000000000E+00 0.  1.
<mgrwt>
<rscale>  0 0.24375134E+04</rscale>
<asrwt>0</asrwt>
<pdfrwt beam="1">  1        2 0.21878999E+00 0.24375134E+04</pdfrwt>
<pdfrwt beam="2">  1       -2 0.16068667E+00 0.24375134E+04</pdfrwt>
<totfact> 0.31373608E+00</totfact>
</mgrwt>
</event>
<event>
 6    1  0.9562506E-007  0.1890436E+04  0.7818608E-02  0.8659632E-01
         -1   -1    0    0    0  501 -0.00000000000E+00  0.00000000000E+00  0.44274791791E+03  0.44274791791E+03  0.00000000000E+00 0.  1.
          1   -1    0    0  501    0  0.00000000000E+00 -0.00000000000E+00 -0.20179367703E+04  0.20179367703E+04  0.00000000000E+00 0. -1.
         23    2    1    2    0    0 -0.59020718511E+03 -0.52576776410E+03 -0.14589193702E+04  0.16617511142E+04  0.90524990667E+02 0.  0.
         11    1    3    3    0    0 -0.53239206340E+03 -0.44046899311E+03 -0.13025879452E+04  0.14745133428E+04  0.00000000000E+00 0. -1.
        -11    1    3    3    0    0 -0.57815121701E+02 -0.85298770991E+02 -0.15633142494E+03  0.18723777144E+03  0.00000000000E+00 0.  1.
         22    1    1    2    0    0  0.59020718511E+03  0.52576776410E+03 -0.11626948223E+03  0.79893357397E+03  0.00000000000E+00 0.  1.
<mgrwt>
<rscale>  0 0.18904362E+04</rscale>
<asrwt>0</asrwt>
<pdfrwt beam="1">  1        1 0.31045182E+00 0.18904362E+04</pdfrwt>
<pdfrwt beam="2">  1       -1 0.68115063E-01 0.18904362E+04</pdfrwt>
<totfact> 0.59204508E+00</totfact>
</mgrwt>
</event>
<event>
 6    1  0.9562506E-007  0.1040865E+04  0.7818608E-02  0.9264826E-01
         -2   -1    0    0    0  501 -0.00000000000E+00  0.00000000000E+00  0.42087611880E+03  0.42087611880E+03  0.00000000000E+00 0.  1.
          2   -1    0    0  501    0  0.00000000000E+00 -0.00000000000E+00 -0.64353875584E+03  0.64353875584E+03  0.00000000000E+00 0. -1.
         23    2    1    2    0    0  0.10363023248E+03  0.50590319124E+03 -0.98259000334E+02  0.53323361667E+03  0.89476224803E+02 0.  0.
         13    1    3    3    0    0 -0.99026492595E+01  0.14953010335E+03 -0.21080409349E+02  0.15133306951E+03  0.00000000000E+00 0. -1.
        -13    1    3    3    0    0  0.11353288174E+03  0.35637308790E+03 -0.77178590985E+02  0.38190054716E+03  0.00000000000E+00 0.  1.
         22    1    1    2    0    0 -0.10363023248E+03 -0.50590319124E+03 -0.12440363671E+03  0.53118125797E+03  0.00000000000E+00 0. -1.
<mgrwt>
<rscale>  0 0.10408652E+04</rscale>
<asrwt>0</asrwt>
<pdfrwt beam="1">  1        2 0.99005962E-01 0.10408652E+04</pdfrwt>
<pdfrwt beam="2">  1       -2 0.64750172E-01 0.10408652E+04</pdfrwt>
<totfact> 0.99892248E+01</totfact>
</mgrwt>
</event>
<event>
 6    1  0.9562506E-007  0.3934421E+04  0.7818608E-02  0.8017908E-01
         -2   -1    0    0    0  501 -0.00000000000E+00  0.00000000000E+00  0.10777815163E+04  0.10777815163E+04  0.00000000000E+00 0.  1.
          2   -1    0    0  501    0  0.00000000000E+00 -0.00000000000E+00 -0.35906331901E+04  0.35906331901E+04  0.00000000000E+00 0. -1.
         23    2    1    2    0    0 -0.92610136943E+03  0.17339129835E+04 -0.12094187175E+04  0.23098016706E+04  0.91499411029E+02 0.  0.
         13    1    3    3    0    0 -0.45696266247E+03  0.87922877946E+03 -0.55751655794E+03  0.11369621075E+04  0.00000000000E+00 0. -1.
        -13    1    3    3    0    0 -0.46913870696E+03  0.85468420409E+03 -0.65190215959E+03  0.11728395631E+04  0.00000000000E+00 0.  1.
         22    1    1    2    0    0  0.92610136943E+03 -0.17339129835E+04 -0.13034329564E+04  0.23586130358E+04  0.00000000000E+00 0. -1.
<mgrwt>
<rscale>  0 0.39344215E+04</rscale>
<asrwt>0</asrwt>
<pdfrwt beam="1">  1        2 0.55240511E+00 0.39344215E+04</pdfrwt>
<pdfrwt beam="2">  1       -2 0.16581254E+00 0.39344215E+04</pdfrwt>
<totfact> 0.12674288E-01</totfact>
</mgrwt>
</event>
<event>
 6    1  0.9562506E-007  0.2832807E+04  0.7818608E-02  0.8293155E-01
          2   -1    0    0  501    0  0.00000000000E+00  0.00000000000E+00  0.30690206854E+04  0.30690206854E+04  0.00000000000E+00 0. -1.
         -2   -1    0    0    0  501 -0.00000000000E+00 -0.00000000000E+00 -0.65369354077E+03  0.65369354077E+03  0.00000000000E+00 0.  1.
         23    2    1    2    0    0 -0.79090419285E+03 -0.13975756474E+03 -0.32192356879E+03  0.87006579229E+03  0.91203506531E+02 0.  0.
         11    1    3    3    0    0 -0.56602236645E+03 -0.11480517788E+03 -0.18919627219E+03  0.60774729749E+03  0.00000000000E+00 0.  1.
        -11    1    3    3    0    0 -0.22488182640E+03 -0.24952386852E+02 -0.13272729659E+03  0.26231849481E+03  0.00000000000E+00 0. -1.
         22    1    1    2    0    0  0.79090419285E+03  0.13975756474E+03  0.27372507134E+04  0.28526484339E+04  0.00000000000E+00 0. -1.
<mgrwt>
<rscale>  0 0.28328071E+04</rscale>
<asrwt>0</asrwt>
<pdfrwt beam="1">  1        2 0.47215702E+00 0.28328071E+04</pdfrwt>
<pdfrwt beam="2">  1       -2 0.10056824E+00 0.28328071E+04</pdfrwt>
<totfact> 0.11133194E+00</totfact>
</mgrwt>
</event>
<event>
 6    1  0.9562506E-007  0.4473119E+04  0.7818608E-02  0.7915360E-01
          2   -1    0    0  501    0  0.00000000000E+00  0.00000000000E+00  0.36526987561E+04  0.36526987561E+04  0.00000000000E+00 0. -1.
         -2   -1    0    0    0  501 -0.00000000000E+00 -0.00000000000E+00 -0.13694525836E+04  0.13694525836E+04  0.00000000000E+00 0.  1.
         23    2    1    2    0    0 -0.58441691191E+03  0.14266518408E+04 -0.67559957047E+03  0.16857390852E+04  0.91667233734E+02 0.  0.
         13    1    3    3    0    0 -0.21701874449E+03  0.51333571868E+03 -0.29213374074E+03  0.62924781924E+03  0.00000000000E+00 0. -1.
        -13    1    3    3    0    0 -0.36739816742E+03  0.91331612216E+03 -0.38346582973E+03  0.10564912659E+04  0.00000000000E+00 0.  1.
         22    1    1    2    0    0  0.58441691191E+03 -0.14266518408E+04  0.29588457429E+04  0.33364122545E+04  0.00000000000E+00 0.  1.
<mgrwt>
<rscale>  0 0.44731187E+04</rscale>
<asrwt>0</asrwt>
<pdfrwt beam="1">  1        2 0.56195365E+00 0.44731187E+04</pdfrwt>
<pdfrwt beam="2">  1       -2 0.21068501E+00 0.44731187E+04</pdfrwt>
<totfact> 0.54289897E-02</totfact>
</mgrwt>
</event>
<event>
 6    1  0.9562506E-007  0.1190605E+04  0.7818608E-02  0.9121120E-01
          2   -1    0    0  501    0  0.00000000000E+00  0.00000000000E+00  0.85642309048E+03  0.85642309048E+03  0.00000000000E+00 0. -1.
         -2   -1    0    0    0  501 -0.00000000000E+00 -0.00000000000E+00 -0.41379640605E+03  0.41379640605E+03  0.00000000000E+00 0.  1.
         23    2    1    2    0    0  0.27126639870E+03  0.44570943470E+03 -0.74886401119E+02  0.53533028518E+03  0.93424739335E+02 0.  0.
         13    1    3    3    0    0  0.25002536513E+02  0.11506678196E+03 -0.19373759696E+02  0.11933496431E+03  0.00000000000E+00 0.  1.
        -13    1    3    3    0    0  0.24626386219E+03  0.33064265274E+03 -0.55512641423E+02  0.41599532087E+03  0.00000000000E+00 0. -1.
         22    1    1    2    0    0 -0.27126639870E+03 -0.44570943470E+03  0.51751308554E+03  0.73488921134E+03  0.00000000000E+00 0. -1.
<mgrwt>
<rscale>  0 0.11906045E+04</rscale>
<asrwt>0</asrwt>
<pdfrwt beam="1">  1        2 0.13175740E+00 0.11906045E+04</pdfrwt>
<pdfrwt beam="2">  1       -2 0.63660986E-01 0.11906045E+04</pdfrwt>
<totfact> 0.70830032E+01</totfact>
</mgrwt>
</event>
<event>
 6    1  0.9562506E-007  0.6385958E+03  0.7818608E-02  0.9828417E-01
         -3   -1    0    0    0  501 -0.00000000000E+00  0.00000000000E+00  0.24637427811E+03  0.24637427811E+03  0.00000000000E+00 0.  1.
          3   -1    0    0  501    0  0.00000000000E+00 -0.00000000000E+00 -0.41380601848E+03  0.41380601848E+03  0.00000000000E+00 0. -1.
         23    2    1    2    0    0  0.19205295656E+03  0.76050651531E+02  0.15739777505E+03  0.27523581512E+03  0.91173760525E+02 0.  0.
         13    1    3    3    0    0  0.12069698478E+03  0.91415684424E+02  0.12015495277E+03  0.19329201269E+03  0.00000000000E+00 0.  1.
        -13    1    3    3    0    0  0.71355971781E+02 -0.15365032893E+02  0.37242822278E+02  0.81943802425E+02  0.00000000000E+00 0. -1.
         22    1    1    2    0    0 -0.19205295656E+03 -0.76050651531E+02 -0.32482951542E+03  0.38494448147E+03  0.00000000000E+00 0. -1.
<mgrwt>
<rscale>  0 0.63859583E+03</rscale>
<asrwt>0</asrwt>
<pdfrwt beam="1">  1        3 0.63662463E-01 0.63859583E+03</pdfrwt>
<pdfrwt beam="2">  1       -3 0.37903736E-01 0.63859583E+03</pdfrwt>
<totfact> 0.43546891E+01</totfact>
</mgrwt>
</event>
<event>
 6    1  0.9562506E-007  0.8142184E+03  0.7818608E-02  0.9539662E-01
         -1   -1    0    0    0  501 -0.00000000000E+00  0.00000000000E+00  0.16824107193E+03  0.16824107193E+03  0.00000000000E+00 0.  1.
          1   -1    0    0  501    0  0.00000000000E+00 -0.00000000000E+00 -0.98512144734E+03  0.98512144734E+03  0.00000000000E+00 0. -1.
         23    2    1    2    0    0 -0.27436621837E+03  0.28638801218E+03 -0.50704878567E+03  0.65008274688E+03  0.90632176611E+02 0.  0.
         11    1    3    3    0    0 -0.17941652591E+03  0.18463755090E+03 -0.39460671072E+03  0.47116427190E+03  0.00000000000E+00 0.  1.
        -11    1    3    3    0    0 -0.94949692455E+02  0.10175046128E+03 -0.11244207495E+03  0.17891847497E+03  0.00000000000E+00 0. -1.
         22    1    1    2    0    0  0.27436621837E+03 -0.28638801218E+03 -0.30983158974E+03  0.50327977240E+03  0.00000000000E+00 0.  1.
<mgrwt>
<rscale>  0 0.81421837E+03</rscale>
<asrwt>0</asrwt>
<pdfrwt beam="1">  1        1 0.15155714E+00 0.81421837E+03</pdfrwt>
<pdfrwt beam="2">  1       -1 0.25883242E-01 0.81421837E+03</pdfrwt>
<totfact> 0.20700055E+02</totfact>
</mgrwt>
</event>
<event>
 6    1  0.9562506E-007  0.1353799E+04  0.7818608E-02  0.8987957E-01
          2   -1    0    0  501    0  0.00000000000E+00  0.00000000000E+00  0.57476944926E+03  0.57476944926E+03  0.00000000000E+00 0. -1.
         -2   -1    0    0    0  501 -0.00000000000E+00 -0.00000000000E+00 -0.79717725965E+03  0.79717725965E+03  0.00000000000E+00 0.  1.
         23    2    1    2    0    0 -0.43177962306E+03 -0.41206585579E+03  0.20493453302E+03  0.63788036935E+03  0.93066053869E+02 0.  0.
         11    1    3    3    0    0 -0.29763961792E+03 -0.24079310053E+03  0.96578111740E+02  0.39483919649E+03  0.00000000000E+00 0. -1.
        -11    1    3    3    0    0 -0.13414000514E+03 -0.17127275526E+03  0.10835642128E+03  0.24304117286E+03  0.00000000000E+00 0.  1.
         22    1    1    2    0    0  0.43177962306E+03  0.41206585579E+03 -0.42734234341E+03  0.73406633955E+03  0.00000000000E+00 0.  1.
<mgrwt>
<rscale>  0 0.13537993E+04</rscale>
<asrwt>0</asrwt>
<pdfrwt beam="1">  1        2 0.88426070E-01 0.13537993E+04</pdfrwt>
<pdfrwt beam="2">  1       -2 0.12264265E+00 0.13537993E+04</pdfrwt>
<totfact> 0.25644543E+01</totfact>
</mgrwt>
</event>
<event>
 6    1  0.9562506E-007  0.2885943E+04  0.7818608E-02  0.8277072E-01
          2   -1    0    0  501    0  0.00000000000E+00  0.00000000000E+00  0.15551740404E+04  0.15551740404E+04  0.00000000000E+00 0. -1.
         -2   -1    0    0    0  501 -0.00000000000E+00 -0.00000000000E+00 -0.13388640483E+04  0.13388640483E+04  0.00000000000E+00 0.  1.
         23    2    1    2    0    0 -0.42611822857E+03  0.95012077293E+03 -0.89132788981E+03  0.13737855093E+04  0.92276706679E+02 0.  0.
         11    1    3    3    0    0 -0.35358688586E+03  0.69664444990E+03 -0.68450064409E+03  0.10386906696E+04  0.00000000000E+00 0.  1.
        -11    1    3    3    0    0 -0.72531342714E+02  0.25347632303E+03 -0.20682724571E+03  0.33509483968E+03  0.00000000000E+00 0. -1.
         22    1    1    2    0    0  0.42611822857E+03 -0.95012077293E+03  0.11076378818E+04  0.15202525794E+04  0.00000000000E+00 0. -1.
<mgrwt>
<rscale>  0 0.28859429E+04</rscale>
<asrwt>0</asrwt>
<pdfrwt beam="1">  1        2 0.23925755E+00 0.28859429E+04</pdfrwt>
<pdfrwt beam="2">  1       -2 0.20597908E+00 0.28859429E+04</pdfrwt>
<totfact> 0.12413652E+00</totfact>
</mgrwt>
</event>
<event>
 6    1  0.9562506E-007  0.2225050E+04  0.7818608E-02  0.8508073E-01
          2   -1    0    0  501    0  0.00000000000E+00  0.00000000000E+00  0.13409600069E+04  0.13409600069E+04  0.00000000000E+00 0. -1.
         -2   -1    0    0    0  501 -0.00000000000E+00 -0.00000000000E+00 -0.92300438175E+03  0.92300438175E+03  0.00000000000E+00 0.  1.
         23    2    1    2    0    0  0.11890774794E+03  0.81355125914E+03 -0.55013322000E+03  0.99384600209E+03  0.95281752461E+02 0.  0.
         11    1    3    3    0    0  0.60914591747E+02  0.43155176267E+03 -0.34843638611E+03  0.55799231761E+03  0.00000000000E+00 0. -1.
        -11    1    3    3    0    0  0.57993156190E+02  0.38199949647E+03 -0.20169683389E+03  0.43585368447E+03  0.00000000000E+00 0.  1.
         22    1    1    2    0    0 -0.11890774794E+03 -0.81355125914E+03  0.96808884515E+03  0.12701183866E+04  0.00000000000E+00 0. -1.
<mgrwt>
<rscale>  0 0.22250501E+04</rscale>
<asrwt>0</asrwt>
<pdfrwt beam="1">  1        2 0.20630154E+00 0.22250501E+04</pdfrwt>
<pdfrwt beam="2">  1       -2 0.14200067E+00 0.22250501E+04</pdfrwt>
<totfact> 0.49415629E+00</totfact>
</mgrwt>
</event>
<event>
 6    1  0.9562506E-007  0.2780856E+04  0.7818608E-02  0.8309236E-01
         -1   -1    0    0    0  501 -0.00000000000E+00  0.00000000000E+00  0.10761171119E+04  0.10761171119E+04  0.00000000000E+00 0.  1.
          1   -1    0    0  501    0  0.00000000000E+00 -0.00000000000E+00 -0.17965427023E+04  0.17965427023E+04  0.00000000000E+00 0. -1.
         23    2    1    2    0    0  0.11835611301E+04  0.48389752016E+03 -0.91903160529E+03  0.15786667277E+04  0.11223095442E+03 0.  0.
         13    1    3    3    0    0  0.52168790994E+03  0.17516104292E+03 -0.34244032365E+03  0.64815510612E+03  0.00000000000E+00 0.  1.
        -13    1    3    3    0    0  0.66187322015E+03  0.30873647724E+03 -0.57659128164E+03  0.93051162163E+03  0.00000000000E+00 0. -1.
         22    1    1    2    0    0 -0.11835611301E+04 -0.48389752016E+03  0.19860601482E+03  0.12939930864E+04  0.00000000000E+00 0.  1.
<mgrwt>
<rscale>  0 0.27808562E+04</rscale>
<asrwt>0</asrwt>
<pdfrwt beam="1">  1        1 0.27639118E+00 0.27808562E+04</pdfrwt>
<pdfrwt beam="2">  1       -1 0.16555648E+00 0.27808562E+04</pdfrwt>
<totfact> 0.94281499E-01</totfact>
</mgrwt>
</event>
<event>
 6    1  0.1245372E-006  0.4447189E+04  0.7818608E-02  0.7919948E-01
          2   -1    0    0  501    0  0.00000000000E+00  0.00000000000E+00  0.29806023084E+04  0.29806023084E+04  0.00000000000E+00 0. -1.
         -2   -1    0    0    0  501 -0.00000000000E+00 -0.00000000000E+00 -0.16588501019E+04  0.16588501019E+04  0.00000000000E+00 0.  1.
         23    2    1    2    0    0  0.34970488019E+03  0.18803508453E+04 -0.52019892291E+03  0.19841187650E+04  0.90041932266E+02 0.  0.
         11    1    3    3    0    0  0.17711378291E+03  0.76085617201E+03 -0.24041791767E+03  0.81735682644E+03  0.00000000000E+00 0.  1.
        -11    1    3    3    0    0  0.17259109727E+03  0.11194946733E+04 -0.27978100524E+03  0.11667619385E+04  0.00000000000E+00 0. -1.
         22    1    1    2    0    0 -0.34970488019E+03 -0.18803508453E+04  0.18419511294E+04  0.26553336453E+04  0.00000000000E+00 0. -1.
<mgrwt>
<rscale>  0 0.44471890E+04</rscale>
<asrwt>0</asrwt>
<pdfrwt beam="1">  1        2 0.45855420E+00 0.44471890E+04</pdfrwt>
<pdfrwt beam="2">  1       -2 0.25520771E+00 0.44471890E+04</pdfrwt>
<totfact> 0.81295048E-02</totfact>
</mgrwt>
</event>
<event>
 6    1  0.9562506E-007  0.1285351E+04  0.7818608E-02  0.9041264E-01
          2   -1    0    0  501    0  0.00000000000E+00  0.00000000000E+00  0.16774179830E+04  0.16774179830E+04  0.00000000000E+00 0. -1.
         -2   -1    0    0    0  501 -0.00000000000E+00 -0.00000000000E+00 -0.24623057360E+03  0.24623057360E+03  0.00000000000E+00 0.  1.
         23    2    1    2    0    0 -0.27269336518E+03  0.55124401190E+03  0.97890634317E+03  0.11602418531E+04  0.98345802789E+02 0.  0.
         11    1    3    3    0    0 -0.23523470905E+02  0.85555261401E+02  0.90812804005E+02  0.12696464787E+03  0.00000000000E+00 0. -1.
        -11    1    3    3    0    0 -0.24916989428E+03  0.46568875050E+03  0.88809353916E+03  0.10332772052E+04  0.00000000000E+00 0.  1.
         22    1    1    2    0    0  0.27269336518E+03 -0.55124401190E+03  0.45228106624E+03  0.76340670350E+03  0.00000000000E+00 0.  1.
<mgrwt>
<rscale>  0 0.12853507E+04</rscale>
<asrwt>0</asrwt>
<pdfrwt beam="1">  1        2 0.25806430E+00 0.12853507E+04</pdfrwt>
<pdfrwt beam="2">  1       -2 0.37881628E-01 0.12853507E+04</pdfrwt>
<totfact> 0.65127393E+01</totfact>
</mgrwt>
</event>
<event>
 6    1  0.9562506E-007  0.3171224E+04  0.7818608E-02  0.8196458E-01
          2   -1    0    0  501    0  0.00000000000E+00  0.00000000000E+00  0.35315973240E+04  0.35315973240E+04  0.00000000000E+00 0. -1.
         -2   -1    0    0    0  501 -0.00000000000E+00 -0.00000000000E+00 -0.71190611322E+03  0.71190611322E+03  0.00000000000E+00 0.  1.
         23    2    1    2    0    0  0.38226005761E+03  0.14466773929E+04  0.21076121584E+04  0.25863809892E+04  0.91320208383E+02 0.  0.
         13    1    3    3    0    0  0.19966613201E+03  0.65798224770E+03  0.10338592121E+04  0.12416408792E+04  0.00000000000E+00 0. -1.
        -13    1    3    3    0    0  0.18259392560E+03  0.78869514522E+03  0.10737529463E+04  0.13447401100E+04  0.00000000000E+00 0.  1.
         22    1    1    2    0    0 -0.38226005761E+03 -0.14466773929E+04  0.71207905243E+03  0.16571224480E+04  0.00000000000E+00 0.  1.
<mgrwt>
<rscale>  0 0.31712242E+04</rscale>
<asrwt>0</asrwt>
<pdfrwt beam="1">  1        2 0.54332266E+00 0.31712242E+04</pdfrwt>
<pdfrwt beam="2">  1       -2 0.10952402E+00 0.31712242E+04</pdfrwt>
<totfact> 0.43233500E-01</totfact>
</mgrwt>
</event>
<event>
 6    1  0.9562506E-007  0.1064397E+04  0.7818608E-02  0.9240605E-01
         -1   -1    0    0    0  501 -0.00000000000E+00  0.00000000000E+00  0.38789610626E+03  0.38789610626E+03  0.00000000000E+00 0.  1.
          1   -1    0    0  501    0  0.00000000000E+00 -0.00000000000E+00 -0.73018390661E+03  0.73018390661E+03  0.00000000000E+00 0. -1.
         23    2    1    2    0    0 -0.29225163023E+02  0.33645109772E+03 -0.59948947977E+03  0.69357305745E+03  0.87192306700E+02 0.  0.
         11    1    3    3    0    0 -0.13567342814E+02  0.26884460249E+03 -0.39814316997E+03  0.48060324268E+03  0.00000000000E+00 0. -1.
        -11    1    3    3    0    0 -0.15657820208E+02  0.67606495225E+02 -0.20134630980E+03  0.21296981477E+03  0.00000000000E+00 0.  1.
         22    1    1    2    0    0  0.29225163023E+02 -0.33645109772E+03  0.25720167942E+03  0.42450695543E+03  0.00000000000E+00 0.  1.
<mgrwt>
<rscale>  0 0.10643975E+04</rscale>
<asrwt>0</asrwt>
<pdfrwt beam="1">  1        1 0.11233599E+00 0.10643975E+04</pdfrwt>
<pdfrwt beam="2">  1       -1 0.59676324E-01 0.10643975E+04</pdfrwt>
<totfact> 0.72608881E+01</totfact>
</mgrwt>
</event>
<event>
 6    1  0.9562506E-007  0.2234254E+04  0.7818608E-02  0.8504305E-01
          2   -1    0    0  501    0  0.00000000000E+00  0.00000000000E+00  0.11635001976E+04  0.11635001976E+04  0.00000000000E+00 0. -1.
         -2   -1    0    0    0  501 -0.00000000000E+00 -0.00000000000E+00 -0.10726023009E+04  0.10726023009E+04  0.00000000000E+00 0.  1.
         23    2    1    2    0    0  0.29431534352E+03 -0.38380900214E+03 -0.96017441970E+03  0.10790874226E+04  0.92541221748E+02 0.  0.
         13    1    3    3    0    0  0.20376427560E+02 -0.51769215560E+02 -0.17537222529E+03  0.18398550998E+03  0.00000000000E+00 0.  1.
        -13    1    3    3    0    0  0.27393891596E+03 -0.33203978658E+03 -0.78480219442E+03  0.89510191258E+03  0.00000000000E+00 0. -1.
         22    1    1    2    0    0 -0.29431534352E+03  0.38380900214E+03  0.10510723164E+04  0.11570150759E+04  0.00000000000E+00 0. -1.
<mgrwt>
<rscale>  0 0.22342542E+04</rscale>
<asrwt>0</asrwt>
<pdfrwt beam="1">  1        2 0.17900003E+00 0.22342542E+04</pdfrwt>
<pdfrwt beam="2">  1       -2 0.16501574E+00 0.22342542E+04</pdfrwt>
<totfact> 0.42032614E+00</totfact>
</mgrwt>
</event>
<event>
 6    1  0.9562506E-007  0.1396635E+04  0.7818608E-02  0.8956258E-01
         -1   -1    0    0    0  501 -0.00000000000E+00  0.00000000000E+00  0.28509043740E+03  0.28509043740E+03  0.00000000000E+00 0.  1.
          1   -1    0    0  501    0  0.00000000000E+00 -0.00000000000E+00 -0.17105008994E+04  0.17105008994E+04  0.00000000000E+00 0. -1.
         23    2    1    2    0    0 -0.39873496762E+03 -0.27230545531E+03 -0.14306866807E+04  0.15127169495E+04  0.91150182596E+02 0.  0.
         11    1    3    3    0    0 -0.15884796538E+03 -0.15873596630E+03 -0.59928154451E+03  0.63997511881E+03  0.00000000000E+00 0. -1.
        -11    1    3    3    0    0 -0.23988700224E+03 -0.11356948901E+03 -0.83140513616E+03  0.87274183073E+03  0.00000000000E+00 0.  1.
         22    1    1    2    0    0  0.39873496762E+03  0.27230545531E+03  0.52762186538E+01  0.48287438727E+03  0.00000000000E+00 0.  1.
<mgrwt>
<rscale>  0 0.13966352E+04</rscale>
<asrwt>0</asrwt>
<pdfrwt beam="1">  1        1 0.26315399E+00 0.13966352E+04</pdfrwt>
<pdfrwt beam="2">  1       -1 0.43860067E-01 0.13966352E+04</pdfrwt>
<totfact> 0.23494230E+01</totfact>
</mgrwt>
</event>
<event>
 6    1  0.9562506E-007  0.7230353E+03  0.7818608E-02  0.9678630E-01
          1   -1    0    0  501    0  0.00000000000E+00  0.00000000000E+00  0.13513221279E+03  0.13513221279E+03  0.00000000000E+00 0. -1.
         -1   -1    0    0    0  501 -0.00000000000E+00 -0.00000000000E+00 -0.96716410618E+03  0.96716410618E+03  0.00000000000E+00 0.  1.
         23    2    1    2    0    0  0.13730782533E+03 -0.25839102955E+03 -0.11169675933E+03  0.32479900809E+03  0.86016664432E+02 0.  0.
         11    1    3    3    0    0  0.87531031427E+02 -0.10326549308E+03 -0.17197530258E+02  0.13645951257E+03  0.00000000000E+00 0.  1.
        -11    1    3    3    0    0  0.49776793907E+02 -0.15512553647E+03 -0.94499229073E+02  0.18833949552E+03  0.00000000000E+00 0. -1.
         22    1    1    2    0    0 -0.13730782533E+03  0.25839102955E+03 -0.72033513407E+03  0.77749731088E+03  0.00000000000E+00 0.  1.
<mgrwt>
<rscale>  0 0.72303534E+03</rscale>
<asrwt>0</asrwt>
<pdfrwt beam="1">  1        1 0.20789571E-01 0.72303534E+03</pdfrwt>
<pdfrwt beam="2">  1       -1 0.14879448E+00 0.72303534E+03</pdfrwt>
<totfact> 0.90483828E+01</totfact>
</mgrwt>
</event>
<event>
 6    1  0.9562506E-007  0.9932117E+03  0.7818608E-02  0.9316022E-01
          1   -1    0    0  501    0  0.00000000000E+00  0.00000000000E+00  0.10631225127E+04  0.10631225127E+04  0.00000000000E+00 0. -1.
         -1   -1    0    0    0  501 -0.00000000000E+00 -0.00000000000E+00 -0.23197457249E+03  0.23197457249E+03  0.00000000000E+00 0.  1.
         23    2    1    2    0    0  0.59196456418E+02  0.46282456831E+03  0.62467615772E+03  0.78486047491E+03  0.89860233546E+02 0.  0.
         11    1    3    3    0    0  0.58793567674E+02  0.13398412195E+03  0.18976760541E+03  0.23962506672E+03  0.00000000000E+00 0. -1.
        -11    1    3    3    0    0  0.40288874334E+00  0.32884044636E+03  0.43490855230E+03  0.54523540819E+03  0.00000000000E+00 0.  1.
         22    1    1    2    0    0 -0.59196456418E+02 -0.46282456831E+03  0.20647178244E+03  0.51023661024E+03  0.00000000000E+00 0.  1.
<mgrwt>
<rscale>  0 0.99321174E+03</rscale>
<asrwt>0</asrwt>
<pdfrwt beam="1">  1        1 0.16355731E+00 0.99321174E+03</pdfrwt>
<pdfrwt beam="2">  1       -1 0.35688397E-01 0.99321174E+03</pdfrwt>
<totfact> 0.10151157E+02</totfact>
</mgrwt>
</event>
<event>
 6    1  0.9562506E-007  0.1056048E+04  0.7818608E-02  0.9249122E-01
          1   -1    0    0  501    0  0.00000000000E+00  0.00000000000E+00  0.23875412761E+04  0.23875412761E+04  0.00000000000E+00 0. -1.
         -1   -1    0    0    0  501 -0.00000000000E+00 -0.00000000000E+00 -0.11677673259E+03  0.11677673259E+03  0.00000000000E+00 0.  1.
         23    2    1    2    0    0  0.26011265761E+03  0.15163098488E+03  0.21611610908E+04  0.21839066058E+04  0.90444749013E+02 0.  0.
         11    1    3    3    0    0  0.66732019685E+02  0.45814122569E+02  0.89930659788E+03  0.90294210959E+03  0.00000000000E+00 0. -1.
        -11    1    3    3    0    0  0.19338063792E+03  0.10581686232E+03  0.12618544929E+04  0.12809644963E+04  0.00000000000E+00 0.  1.
         22    1    1    2    0    0 -0.26011265761E+03 -0.15163098488E+03  0.10960345278E+03  0.32041140286E+03  0.00000000000E+00 0.  1.
<mgrwt>
<rscale>  0 0.10560479E+04</rscale>
<asrwt>0</asrwt>
<pdfrwt beam="1">  1        1 0.36731401E+00 0.10560479E+04</pdfrwt>
<pdfrwt beam="2">  1       -1 0.17965653E-01 0.10560479E+04</pdfrwt>
<totfact> 0.39947670E+01</totfact>
</mgrwt>
</event>
<event>
 6    1  0.9562506E-007  0.2539802E+04  0.7818608E-02  0.8388941E-01
          1   -1    0    0  501    0  0.00000000000E+00  0.00000000000E+00  0.11611793981E+04  0.11611793981E+04  0.00000000000E+00 0. -1.
         -1   -1    0    0    0  501 -0.00000000000E+00 -0.00000000000E+00 -0.13888023743E+04  0.13888023743E+04  0.00000000000E+00 0.  1.
         23    2    1    2    0    0 -0.10247908443E+04 -0.18866691014E+03  0.61195870083E+03  0.12118155384E+04  0.90619921107E+02 0.  0.
         11    1    3    3    0    0 -0.67602560445E+03 -0.13445641164E+03  0.35563020286E+03  0.77560427132E+03  0.00000000000E+00 0.  1.
        -11    1    3    3    0    0 -0.34876523980E+03 -0.54210498496E+02  0.25632849797E+03  0.43621126707E+03  0.00000000000E+00 0. -1.
         22    1    1    2    0    0  0.10247908443E+04  0.18866691014E+03 -0.83958167703E+03  0.13381662340E+04  0.00000000000E+00 0.  1.
<mgrwt>
<rscale>  0 0.25398021E+04</rscale>
<asrwt>0</asrwt>
<pdfrwt beam="1">  1        1 0.17864299E+00 0.25398021E+04</pdfrwt>
<pdfrwt beam="2">  1       -1 0.21366190E+00 0.25398021E+04</pdfrwt>
<totfact> 0.12267775E+00</totfact>
</mgrwt>
</event>
<event>
 6    1  0.9562506E-007  0.2677153E+04  0.7818608E-02  0.8342456E-01
          2   -1    0    0  501    0  0.00000000000E+00  0.00000000000E+00  0.29024809569E+04  0.29024809569E+04  0.00000000000E+00 0. -1.
         -2   -1    0    0    0  501 -0.00000000000E+00 -0.00000000000E+00 -0.61732954238E+03  0.61732954238E+03  0.00000000000E+00 0.  1.
         23    2    1    2    0    0  0.10724322577E+04 -0.99736364624E+02  0.21855363653E+04  0.24381536924E+04  0.89252082759E+02 0.  0.
         11    1    3    3    0    0  0.23687827926E+03 -0.51042108769E+02  0.43933197337E+03  0.50172621904E+03  0.00000000000E+00 0.  1.
        -11    1    3    3    0    0  0.83555397841E+03 -0.48694255855E+02  0.17462043919E+04  0.19364274734E+04  0.00000000000E+00 0. -1.
         22    1    1    2    0    0 -0.10724322577E+04  0.99736364624E+02  0.99615049226E+02  0.10816568068E+04  0.00000000000E+00 0.  1.
<mgrwt>
<rscale>  0 0.26771531E+04</rscale>
<asrwt>0</asrwt>
<pdfrwt beam="1">  1        2 0.44653552E+00 0.26771531E+04</pdfrwt>
<pdfrwt beam="2">  1       -2 0.94973777E-01 0.26771531E+04</pdfrwt>
<totfact> 0.16405977E+00</totfact>
</mgrwt>
</event>
<event>
 6    1  0.9562506E-007  0.2903195E+04  0.7818608E-02  0.8271928E-01
          1   -1    0    0  501    0  0.00000000000E+00  0.00000000000E+00  0.13840513646E+04  0.13840513646E+04  0.00000000000E+00 0. -1.
         -1   -1    0    0    0  501 -0.00000000000E+00 -0.00000000000E+00 -0.15224396951E+04  0.15224396951E+04  0.00000000000E+00 0.  1.
         23    2    1    2    0    0  0.49329673596E+03  0.76979367208E+03  0.10576446946E+04  0.14010280198E+04  0.91341365581E+02 0.  0.
         13    1    3    3    0    0  0.35697926186E+03  0.57956182174E+03  0.84269454310E+03  0.10832636759E+04  0.00000000000E+00 0. -1.
        -13    1    3    3    0    0  0.13631747410E+03  0.19023185034E+03  0.21495015150E+03  0.31776434390E+03  0.00000000000E+00 0.  1.
         22    1    1    2    0    0 -0.49329673596E+03 -0.76979367208E+03 -0.11960330251E+04  0.15054630399E+04  0.00000000000E+00 0.  1.
<mgrwt>
<rscale>  0 0.29031946E+04</rscale>
<asrwt>0</asrwt>
<pdfrwt beam="1">  1        1 0.21293098E+00 0.29031946E+04</pdfrwt>
<pdfrwt beam="2">  1       -1 0.23422149E+00 0.29031946E+04</pdfrwt>
<totfact> 0.59879884E-01</totfact>
</mgrwt>
</event>
<event>
 6    1  0.9562506E-007  0.1892354E+04  0.7818608E-02  0.8658672E-01
         -2   -1    0    0    0  501 -0.00000000000E+00  0.00000000000E+00  0.29052242608E+03  0.29052242608E+03  0.00000000000E+00 0.  1.
          2   -1    0    0  501    0  0.00000000000E+00 -0.00000000000E+00 -0.30815216246E+04  0.30815216246E+04  0.00000000000E+00 0. -1.
         23    2    1    2    0    0  0.46730309223E+03 -0.61907746967E+03 -0.23573883969E+04  0.24834229724E+04  0.92089698221E+02 0.  0.
         11    1    3    3    0    0  0.11864325827E+03 -0.13527538210E+03 -0.43769738793E+03  0.47323847597E+03  0.00000000000E+00 0. -1.
        -11    1    3    3    0    0  0.34865983395E+03 -0.48380208757E+03 -0.19196910090E+04  0.20101844965E+04  0.00000000000E+00 0.  1.
         22    1    1    2    0    0 -0.46730309223E+03  0.61907746967E+03 -0.43361080158E+03  0.88862107824E+03  0.00000000000E+00 0.  1.
<mgrwt>
<rscale>  0 0.18923542E+04</rscale>
<asrwt>0</asrwt>
<pdfrwt beam="1">  1        2 0.47408024E+00 0.18923542E+04</pdfrwt>
<pdfrwt beam="2">  1       -2 0.44695759E-01 0.18923542E+04</pdfrwt>
<totfact> 0.69041376E+00</totfact>
</mgrwt>
</event>
<event>
 6    1  0.9562506E-007  0.7487650E+03  0.7818608E-02  0.9637290E-01
          1   -1    0    0  501    0  0.00000000000E+00  0.00000000000E+00  0.74825498278E+03  0.74825498278E+03  0.00000000000E+00 0. -1.
         -1   -1    0    0    0  501 -0.00000000000E+00 -0.00000000000E+00 -0.18731884961E+03  0.18731884961E+03  0.00000000000E+00 0.  1.
         23    2    1    2    0    0  0.24390326806E+02 -0.16659419336E+03  0.69479651062E+03  0.72047591526E+03  0.89413869159E+02 0.  0.
         11    1    3    3    0    0 -0.21544154731E+02 -0.10587493810E+03  0.31191703829E+03  0.33009982111E+03  0.00000000000E+00 0.  1.
        -11    1    3    3    0    0  0.45934481536E+02 -0.60719255261E+02  0.38287947233E+03  0.39037609415E+03  0.00000000000E+00 0. -1.
         22    1    1    2    0    0 -0.24390326806E+02  0.16659419336E+03 -0.13386037745E+03  0.21509791713E+03  0.00000000000E+00 0.  1.
<mgrwt>
<rscale>  0 0.74876502E+03</rscale>
<asrwt>0</asrwt>
<pdfrwt beam="1">  1        1 0.11511615E+00 0.74876502E+03</pdfrwt>
<pdfrwt beam="2">  1       -1 0.28818285E-01 0.74876502E+03</pdfrwt>
<totfact> 0.27202888E+02</totfact>
</mgrwt>
</event>
<event>
 6    1  0.9562506E-007  0.1869785E+04  0.7818608E-02  0.8670044E-01
          1   -1    0    0  501    0  0.00000000000E+00  0.00000000000E+00  0.30035711028E+04  0.30035711028E+04  0.00000000000E+00 0. -1.
         -1   -1    0    0    0  501 -0.00000000000E+00 -0.00000000000E+00 -0.29099479470E+03  0.29099479470E+03  0.00000000000E+00 0.  1.
         23    2    1    2    0    0 -0.98467013650E+02  0.83120862053E+03  0.20845877054E+04  0.22481562221E+04  0.89983186603E+02 0.  0.
         13    1    3    3    0    0 -0.80802843748E+02  0.70708407333E+03  0.16782291840E+04  0.18228960969E+04  0.00000000000E+00 0.  1.
        -13    1    3    3    0    0 -0.17664169901E+02  0.12412454720E+03  0.40635852145E+03  0.42526012519E+03  0.00000000000E+00 0. -1.
         22    1    1    2    0    0  0.98467013650E+02 -0.83120862053E+03  0.62798860265E+03  0.10464096754E+04  0.00000000000E+00 0.  1.
<mgrwt>
<rscale>  0 0.18697845E+04</rscale>
<asrwt>0</asrwt>
<pdfrwt beam="1">  1        1 0.46208784E+00 0.18697845E+04</pdfrwt>
<pdfrwt beam="2">  1       -1 0.44768432E-01 0.18697845E+04</pdfrwt>
<totfact> 0.27633271E+00</totfact>
</mgrwt>
</event>
<event>
 6    1  0.9562506E-007  0.2802703E+04  0.7818608E-02  0.8302430E-01
          2   -1    0    0  501    0  0.00000000000E+00  0.00000000000E+00  0.15504533925E+04  0.15504533925E+04  0.00000000000E+00 0. -1.
         -2   -1    0    0    0  501 -0.00000000000E+00 -0.00000000000E+00 -0.12665878742E+04  0.12665878742E+04  0.00000000000E+00 0.  1.
         23    2    1    2    0    0 -0.71582956922E+03 -0.96260552515E+02 -0.10632010970E+04  0.12885562219E+04  0.91118044707E+02 0.  0.
         13    1    3    3    0    0 -0.49876959133E+03 -0.81526570497E+02 -0.80990198082E+03  0.95465119571E+03  0.00000000000E+00 0. -1.
        -13    1    3    3    0    0 -0.21705997789E+03 -0.14733982018E+02 -0.25329911622E+03  0.33390502618E+03  0.00000000000E+00 0.  1.
         22    1    1    2    0    0  0.71582956922E+03  0.96260552515E+02  0.13470666153E+04  0.15284850448E+04  0.00000000000E+00 0. -1.
<mgrwt>
<rscale>  0 0.28027026E+04</rscale>
<asrwt>0</asrwt>
<pdfrwt beam="1">  1        2 0.23853129E+00 0.28027026E+04</pdfrwt>
<pdfrwt beam="2">  1       -2 0.19485967E+00 0.28027026E+04</pdfrwt>
<totfact> 0.14878001E+00</totfact>
</mgrwt>
</event>
<event>
 6    1  0.9562506E-007  0.3403007E+04  0.7818608E-02  0.8137169E-01
          2   -1    0    0  501    0  0.00000000000E+00  0.00000000000E+00  0.30286988389E+04  0.30286988389E+04  0.00000000000E+00 0. -1.
         -2   -1    0    0    0  501 -0.00000000000E+00 -0.00000000000E+00 -0.95589394385E+03  0.95589394385E+03  0.00000000000E+00 0.  1.
         23    2    1    2    0    0 -0.23247371949E+03 -0.14691474393E+04  0.72063023732E+02  0.14915211303E+04  0.83689750209E+02 0.  0.
         11    1    3    3    0    0 -0.27148337277E+02 -0.91958301102E+02 -0.11698374791E+02  0.96593029413E+02  0.00000000000E+00 0.  1.
        -11    1    3    3    0    0 -0.20532538222E+03 -0.13771891382E+04  0.83761398523E+02  0.13949281009E+04  0.00000000000E+00 0. -1.
         22    1    1    2    0    0  0.23247371949E+03  0.14691474393E+04  0.20007418714E+04  0.24930716525E+04  0.00000000000E+00 0. -1.
<mgrwt>
<rscale>  0 0.34030074E+04</rscale>
<asrwt>0</asrwt>
<pdfrwt beam="1">  1        2 0.46595366E+00 0.34030074E+04</pdfrwt>
<pdfrwt beam="2">  1       -2 0.14706061E+00 0.34030074E+04</pdfrwt>
<totfact> 0.43642927E-01</totfact>
</mgrwt>
</event>
<event>
 6    1  0.9562506E-007  0.1390718E+04  0.7818608E-02  0.8960565E-01
          1   -1    0    0  501    0  0.00000000000E+00  0.00000000000E+00  0.12718108143E+04  0.12718108143E+04  0.00000000000E+00 0. -1.
         -1   -1    0    0    0  501 -0.00000000000E+00 -0.00000000000E+00 -0.38018553101E+03  0.38018553101E+03  0.00000000000E+00 0.  1.
         23    2    1    2    0    0 -0.18738328580E+03  0.66647435588E+03  0.46251349290E+03  0.83747962263E+03  0.90292991760E+02 0.  0.
         11    1    3    3    0    0 -0.70490161167E+02  0.39945116083E+03  0.24617028332E+03  0.47447855705E+03  0.00000000000E+00 0. -1.
        -11    1    3    3    0    0 -0.11689312463E+03  0.26702319505E+03  0.21634320958E+03  0.36300106558E+03  0.00000000000E+00 0.  1.
         22    1    1    2    0    0  0.18738328580E+03 -0.66647435588E+03  0.42911179034E+03  0.81451672264E+03  0.00000000000E+00 0.  1.
<mgrwt>
<rscale>  0 0.13907179E+04</rscale>
<asrwt>0</asrwt>
<pdfrwt beam="1">  1        1 0.19566320E+00 0.13907179E+04</pdfrwt>
<pdfrwt beam="2">  1       -1 0.58490082E-01 0.13907179E+04</pdfrwt>
<totfact> 0.27389511E+01</totfact>
</mgrwt>
</event>
<event>
 6    1  0.9562506E-007  0.6861123E+03  0.7818608E-02  0.9741281E-01
          1   -1    0    0  501    0  0.00000000000E+00  0.00000000000E+00  0.46543430523E+03  0.46543430523E+03  0.00000000000E+00 0. -1.
         -1   -1    0    0    0  501 -0.00000000000E+00 -0.00000000000E+00 -0.25285528025E+03  0.25285528025E+03  0.00000000000E+00 0.  1.
         23    2    1    2    0    0 -0.32439582169E+02  0.27158185240E+03  0.31438412982E+03  0.42644492061E+03  0.90602760345E+02 0.  0.
         13    1    3    3    0    0  0.12182839550E+02  0.37151722490E+02  0.11321134840E+02  0.40704301462E+02  0.00000000000E+00 0. -1.
        -13    1    3    3    0    0 -0.44622421719E+02  0.23443012991E+03  0.30306299498E+03  0.38574061914E+03  0.00000000000E+00 0.  1.
         22    1    1    2    0    0  0.32439582169E+02 -0.27158185240E+03 -0.10180510485E+03  0.29184466488E+03  0.00000000000E+00 0. -1.
<mgrwt>
<rscale>  0 0.68611230E+03</rscale>
<asrwt>0</asrwt>
<pdfrwt beam="1">  1        1 0.71605278E-01 0.68611230E+03</pdfrwt>
<pdfrwt beam="2">  1       -1 0.38900812E-01 0.68611230E+03</pdfrwt>
<totfact> 0.31741393E+02</totfact>
</mgrwt>
</event>
<event>
 6    1  0.9562506E-007  0.2712395E+04  0.7818608E-02  0.8330994E-01
          2   -1    0    0  501    0  0.00000000000E+00  0.00000000000E+00  0.35742176327E+04  0.35742176327E+04  0.00000000000E+00 0. -1.
         -2   -1    0    0    0  501 -0.00000000000E+00 -0.00000000000E+00 -0.51459424026E+03  0.51459424026E+03  0.00000000000E+00 0.  1.
         23    2    1    2    0    0  0.11485193588E+04 -0.61347171153E+03  0.20944819435E+04  0.24680274101E+04  0.94129842085E+02 0.  0.
         11    1    3    3    0    0  0.97546264377E+03 -0.48290853382E+03  0.17282233556E+04  0.20424211094E+04  0.00000000000E+00 0. -1.
        -11    1    3    3    0    0  0.17305671506E+03 -0.13056317771E+03  0.36625858791E+03  0.42560630073E+03  0.00000000000E+00 0.  1.
         22    1    1    2    0    0 -0.11485193588E+04  0.61347171153E+03  0.96514144898E+03  0.16207844628E+04  0.00000000000E+00 0.  1.
<mgrwt>
<rscale>  0 0.27123951E+04</rscale>
<asrwt>0</asrwt>
<pdfrwt beam="1">  1        2 0.54987962E+00 0.27123951E+04</pdfrwt>
<pdfrwt beam="2">  1       -2 0.79168347E-01 0.27123951E+04</pdfrwt>
<totfact> 0.89375163E-01</totfact>
</mgrwt>
</event>
<event>
 6    1  0.9562506E-007  0.3697401E+04  0.7818608E-02  0.8068538E-01
          2   -1    0    0  501    0  0.00000000000E+00  0.00000000000E+00  0.17667222266E+04  0.17667222266E+04  0.00000000000E+00 0. -1.
         -2   -1    0    0    0  501 -0.00000000000E+00 -0.00000000000E+00 -0.19344823327E+04  0.19344823327E+04  0.00000000000E+00 0.  1.
         23    2    1    2    0    0 -0.56673476468E+01 -0.54674601585E+03  0.16826581233E+04  0.17716940129E+04  0.92725350124E+02 0.  0.
         13    1    3    3    0    0  0.34216276326E+02 -0.26319871626E+03  0.72043166754E+03  0.76776696034E+03  0.00000000000E+00 0. -1.
        -13    1    3    3    0    0 -0.39883623973E+02 -0.28354729960E+03  0.96222645579E+03  0.10039270525E+04  0.00000000000E+00 0.  1.
         22    1    1    2    0    0  0.56673476468E+01  0.54674601585E+03 -0.18504182295E+04  0.19295105464E+04  0.00000000000E+00 0.  1.
<mgrwt>
<rscale>  0 0.36974007E+04</rscale>
<asrwt>0</asrwt>
<pdfrwt beam="1">  1        2 0.27180342E+00 0.36974007E+04</pdfrwt>
<pdfrwt beam="2">  1       -2 0.29761267E+00 0.36974007E+04</pdfrwt>
<totfact> 0.23930329E-01</totfact>
</mgrwt>
</event>
<event>
 6    1  0.9562506E-007  0.1069354E+04  0.7818608E-02  0.9235587E-01
          1   -1    0    0  501    0  0.00000000000E+00  0.00000000000E+00  0.15020895076E+04  0.15020895076E+04  0.00000000000E+00 0. -1.
         -1   -1    0    0    0  501 -0.00000000000E+00 -0.00000000000E+00 -0.19032131914E+03  0.19032131914E+03  0.00000000000E+00 0.  1.
         23    2    1    2    0    0 -0.17593955635E+03  0.47177766178E+03  0.92633662614E+03  0.10583080126E+04  0.91582831087E+02 0.  0.
         11    1    3    3    0    0 -0.57781875493E+02  0.27432236268E+03  0.54641735246E+03  0.61413632596E+03  0.00000000000E+00 0. -1.
        -11    1    3    3    0    0 -0.11815768086E+03  0.19745529911E+03  0.37991927367E+03  0.44417168663E+03  0.00000000000E+00 0.  1.
         22    1    1    2    0    0  0.17593955635E+03 -0.47177766178E+03  0.38543156228E+03  0.63410281410E+03  0.00000000000E+00 0.  1.
<mgrwt>
<rscale>  0 0.10693543E+04</rscale>
<asrwt>0</asrwt>
<pdfrwt beam="1">  1        1 0.23109069E+00 0.10693543E+04</pdfrwt>
<pdfrwt beam="2">  1       -1 0.29280204E-01 0.10693543E+04</pdfrwt>
<totfact> 0.69301334E+01</totfact>
</mgrwt>
</event>
<event>
 6    1  0.9562506E-007  0.1791659E+04  0.7818608E-02  0.8710748E-01
         -1   -1    0    0    0  501 -0.00000000000E+00  0.00000000000E+00  0.35374126369E+03  0.35374126369E+03  0.00000000000E+00 0.  1.
          1   -1    0    0  501    0  0.00000000000E+00 -0.00000000000E+00 -0.22686371764E+04  0.22686371764E+04  0.00000000000E+00 0. -1.
         23    2    1    2    0    0 -0.65702740649E+03  0.38011854607E+03 -0.27254703025E+03  0.81310096726E+03  0.10332558887E+03 0.  0.
         11    1    3    3    0    0 -0.11734357256E+03  0.40212113313E+02 -0.13793050593E+02  0.12480695623E+03  0.00000000000E+00 0.  1.
        -11    1    3    3    0    0 -0.53968383393E+03  0.33990643276E+03 -0.25875397965E+03  0.68829401103E+03  0.00000000000E+00 0. -1.
         22    1    1    2    0    0  0.65702740649E+03 -0.38011854607E+03 -0.16423488824E+04  0.18092774728E+04  0.00000000000E+00 0. -1.
<mgrwt>
<rscale>  0 0.17916591E+04</rscale>
<asrwt>0</asrwt>
<pdfrwt beam="1">  1        1 0.34902110E+00 0.17916591E+04</pdfrwt>
<pdfrwt beam="2">  1       -1 0.54421733E-01 0.17916591E+04</pdfrwt>
<totfact> 0.63008892E+00</totfact>
</mgrwt>
</event>
<event>
 6    1  0.9562506E-007  0.4103097E+04  0.7818608E-02  0.7984066E-01
          2   -1    0    0  501    0  0.00000000000E+00  0.00000000000E+00  0.25961450086E+04  0.25961450086E+04  0.00000000000E+00 0. -1.
         -2   -1    0    0    0  501 -0.00000000000E+00 -0.00000000000E+00 -0.16211923054E+04  0.16211923054E+04  0.00000000000E+00 0.  1.
         23    2    1    2    0    0 -0.54367652213E+03  0.18385185510E+04 -0.25961085651E+03  0.19370123797E+04  0.94257834139E+02 0.  0.
         11    1    3    3    0    0 -0.23601915955E+03  0.93717740474E+03 -0.15680223994E+03  0.97907786926E+03  0.00000000000E+00 0. -1.
        -11    1    3    3    0    0 -0.30765736258E+03  0.90134114628E+03 -0.10280861658E+03  0.95793451048E+03  0.00000000000E+00 0.  1.
         22    1    1    2    0    0  0.54367652213E+03 -0.18385185510E+04  0.12345635597E+04  0.22803249343E+04  0.00000000000E+00 0. -1.
<mgrwt>
<rscale>  0 0.41030965E+04</rscale>
<asrwt>0</asrwt>
<pdfrwt beam="1">  1        2 0.39940692E+00 0.41030965E+04</pdfrwt>
<pdfrwt beam="2">  1       -2 0.24941420E+00 0.41030965E+04</pdfrwt>
<totfact> 0.15507420E-01</totfact>
</mgrwt>
</event>
<event>
 6    1  0.9562506E-007  0.1843834E+04  0.7818608E-02  0.8683330E-01
         -2   -1    0    0    0  501 -0.00000000000E+00  0.00000000000E+00  0.56817639852E+03  0.56817639852E+03  0.00000000000E+00 0.  1.
          2   -1    0    0  501    0  0.00000000000E+00 -0.00000000000E+00 -0.14958925612E+04  0.14958925612E+04  0.00000000000E+00 0. -1.
         23    2    1    2    0    0 -0.73459266661E+03  0.53925339038E+03 -0.60295138999E+03  0.10966534531E+04  0.93154778138E+02 0.  0.
         11    1    3    3    0    0 -0.52026866578E+03  0.36181019691E+03 -0.37036431645E+03  0.73399988425E+03  0.00000000000E+00 0.  1.
        -11    1    3    3    0    0 -0.21432400083E+03  0.17744319346E+03 -0.23258707354E+03  0.36265356887E+03  0.00000000000E+00 0. -1.
         22    1    1    2    0    0  0.73459266661E+03 -0.53925339038E+03 -0.32476477273E+03  0.96741550664E+03  0.00000000000E+00 0. -1.
<mgrwt>
<rscale>  0 0.18438339E+04</rscale>
<asrwt>0</asrwt>
<pdfrwt beam="1">  1        2 0.23013732E+00 0.18438339E+04</pdfrwt>
<pdfrwt beam="2">  1       -2 0.87411753E-01 0.18438339E+04</pdfrwt>
<totfact> 0.13569984E+01</totfact>
</mgrwt>
</event>
<event>
 6    1  0.9562506E-007  0.1695327E+04  0.7818608E-02  0.8764034E-01
         -1   -1    0    0    0  501 -0.00000000000E+00  0.00000000000E+00  0.46916342843E+03  0.46916342843E+03  0.00000000000E+00 0.  1.
          1   -1    0    0  501    0  0.00000000000E+00 -0.00000000000E+00 -0.15315211685E+04  0.15315211685E+04  0.00000000000E+00 0. -1.
         23    2    1    2    0    0  0.59836896835E+03 -0.27760061572E+03  0.91142288261E+02  0.67189949786E+03  0.89635341188E+02 0.  0.
         11    1    3    3    0    0  0.33427154333E+03 -0.20283226363E+03  0.61955353998E+02  0.39587480059E+03  0.00000000000E+00 0. -1.
        -11    1    3    3    0    0  0.26409742502E+03 -0.74768352085E+02  0.29186934263E+02  0.27602469727E+03  0.00000000000E+00 0.  1.
         22    1    1    2    0    0 -0.59836896835E+03  0.27760061572E+03 -0.11535000284E+04  0.13287850991E+04  0.00000000000E+00 0. -1.
<mgrwt>
<rscale>  0 0.16953274E+04</rscale>
<asrwt>0</asrwt>
<pdfrwt beam="1">  1        1 0.23561864E+00 0.16953274E+04</pdfrwt>
<pdfrwt beam="2">  1       -1 0.72178989E-01 0.16953274E+04</pdfrwt>
<totfact> 0.11468622E+01</totfact>
</mgrwt>
</event>
<event>
 6    1  0.9562506E-007  0.2186212E+04  0.7818608E-02  0.8524189E-01
          2   -1    0    0  501    0  0.00000000000E+00  0.00000000000E+00  0.16793257566E+04  0.16793257566E+04  0.00000000000E+00 0. -1.
         -2   -1    0    0    0  501 -0.00000000000E+00 -0.00000000000E+00 -0.71152439673E+03  0.71152439673E+03  0.00000000000E+00 0.  1.
         23    2    1    2    0    0 -0.11962381494E+03 -0.70396670461E+03  0.13856326627E+04  0.15635279815E+04  0.12150265319E+03 0.  0.
         11    1    3    3    0    0  0.17537327721E+02 -0.81307870464E+02  0.21492268985E+03  0.23045669935E+03  0.00000000000E+00 0.  1.
        -11    1    3    3    0    0 -0.13716114266E+03 -0.62265883414E+03  0.11707099729E+04  0.13330712822E+04  0.00000000000E+00 0. -1.
         22    1    1    2    0    0  0.11962381494E+03  0.70396670461E+03 -0.41783130286E+03  0.82732217180E+03  0.00000000000E+00 0.  1.
<mgrwt>
<rscale>  0 0.21862125E+04</rscale>
<asrwt>0</asrwt>
<pdfrwt beam="1">  1        2 0.25835781E+00 0.21862125E+04</pdfrwt>
<pdfrwt beam="2">  1       -2 0.10946529E+00 0.21862125E+04</pdfrwt>
<totfact> 0.61269739E+00</totfact>
</mgrwt>
</event>
<event>
 6    1  0.9562506E-007  0.1334864E+04  0.7818608E-02  0.9002365E-01
          1   -1    0    0  501    0  0.00000000000E+00  0.00000000000E+00  0.47244826834E+04  0.47244826834E+04  0.00000000000E+00 0. -1.
         -1   -1    0    0    0  501 -0.00000000000E+00 -0.00000000000E+00 -0.94288776676E+02  0.94288776676E+02  0.00000000000E+00 0.  1.
         23    2    1    2    0    0 -0.50222913089E+03 -0.22167877599E+03  0.36764343411E+04  0.37183020654E+04  0.90692917754E+02 0.  0.
         11    1    3    3    0    0 -0.27016488513E+02 -0.34002216684E+02  0.38612037890E+03  0.38855500048E+03  0.00000000000E+00 0.  1.
        -11    1    3    3    0    0 -0.47521264238E+03 -0.18767655930E+03  0.32903139622E+04  0.33297470649E+04  0.00000000000E+00 0. -1.
         22    1    1    2    0    0  0.50222913089E+03  0.22167877599E+03  0.95375956559E+03  0.11004693947E+04  0.00000000000E+00 0.  1.
<mgrwt>
<rscale>  0 0.13348643E+04</rscale>
<asrwt>0</asrwt>
<pdfrwt beam="1">  1        1 0.72684330E+00 0.13348643E+04</pdfrwt>
<pdfrwt beam="2">  1       -1 0.14505969E-01 0.13348643E+04</pdfrwt>
<totfact> 0.65990118E-01</totfact>
</mgrwt>
</event>
<event>
 6    1  0.9562506E-007  0.6695377E+04  0.7818608E-02  0.7609694E-01
          2   -1    0    0  501    0  0.00000000000E+00  0.00000000000E+00  0.29538958777E+04  0.29538958777E+04  0.00000000000E+00 0. -1.
         -2   -1    0    0    0  501 -0.00000000000E+00 -0.00000000000E+00 -0.37939782994E+04  0.37939782994E+04  0.00000000000E+00 0.  1.
         23    2    1    2    0    0  0.45858435405E+03 -0.65555032431E+03 -0.36956487890E+04  0.37823548102E+04  0.91335100285E+02 0.  0.
         13    1    3    3    0    0  0.98633309369E+02 -0.13249566834E+03 -0.60394559545E+03  0.62612611678E+03  0.00000000000E+00 0. -1.
        -13    1    3    3    0    0  0.35995104468E+03 -0.52305465596E+03 -0.30917031936E+04  0.31562286934E+04  0.00000000000E+00 0.  1.
         22    1    1    2    0    0 -0.45858435405E+03  0.65555032431E+03  0.28555663674E+04  0.29655193670E+04  0.00000000000E+00 0. -1.
<mgrwt>
<rscale>  0 0.66953766E+04</rscale>
<asrwt>0</asrwt>
<pdfrwt beam="1">  1        2 0.45444552E+00 0.66953766E+04</pdfrwt>
<pdfrwt beam="2">  1       -2 0.58368897E+00 0.66953766E+04</pdfrwt>
<totfact> 0.72165171E-04</totfact>
</mgrwt>
</event>
<event>
 6    1  0.9562506E-007  0.6696928E+03  0.7818608E-02  0.9770513E-01
          2   -1    0    0  501    0  0.00000000000E+00  0.00000000000E+00  0.79667921809E+03  0.79667921809E+03  0.00000000000E+00 0. -1.
         -2   -1    0    0    0  501 -0.00000000000E+00 -0.00000000000E+00 -0.14073681489E+03  0.14073681489E+03  0.00000000000E+00 0.  1.
         23    2    1    2    0    0 -0.42379563122E+02 -0.16031131038E+03  0.73121015540E+03  0.75531447305E+03  0.91301249924E+02 0.  0.
         13    1    3    3    0    0  0.26413315206E+01 -0.13636736308E+03  0.48116183166E+03  0.50011972826E+03  0.00000000000E+00 0. -1.
        -13    1    3    3    0    0 -0.45020894643E+02 -0.23943947304E+02  0.25004832373E+03  0.25519474479E+03  0.00000000000E+00 0.  1.
         22    1    1    2    0    0  0.42379563122E+02  0.16031131038E+03 -0.75267752197E+02  0.18210155993E+03  0.00000000000E+00 0.  1.
<mgrwt>
<rscale>  0 0.66969275E+03</rscale>
<asrwt>0</asrwt>
<pdfrwt beam="1">  1        2 0.12256603E+00 0.66969275E+03</pdfrwt>
<pdfrwt beam="2">  1       -2 0.21651818E-01 0.66969275E+03</pdfrwt>
<totfact> 0.64634690E+02</totfact>
</mgrwt>
</event>
<event>
 6    1  0.9562506E-007  0.3240678E+04  0.7818608E-02  0.8178156E-01
          2   -1    0    0  501    0  0.00000000000E+00  0.00000000000E+00  0.12720028876E+04  0.12720028876E+04  0.00000000000E+00 0. -1.
         -2   -1    0    0    0  501 -0.00000000000E+00 -0.00000000000E+00 -0.20640670121E+04  0.20640670121E+04  0.00000000000E+00 0.  1.
         23    2    1    2    0    0  0.75488295575E+03 -0.11427856839E+03  0.10732773793E+04  0.13205285843E+04  0.94675979211E+02 0.  0.
         11    1    3    3    0    0  0.13176879165E+03 -0.50934782190E+02  0.23346392213E+03  0.27287867162E+03  0.00000000000E+00 0.  1.
        -11    1    3    3    0    0  0.62311416410E+03 -0.63343786197E+02  0.83981345714E+03  0.10476499127E+04  0.00000000000E+00 0. -1.
         22    1    1    2    0    0 -0.75488295575E+03  0.11427856839E+03 -0.18653415038E+04  0.20155413154E+04  0.00000000000E+00 0.  1.
<mgrwt>
<rscale>  0 0.32406784E+04</rscale>
<asrwt>0</asrwt>
<pdfrwt beam="1">  1        2 0.19569275E+00 0.32406784E+04</pdfrwt>
<pdfrwt beam="2">  1       -2 0.31754877E+00 0.32406784E+04</pdfrwt>
<totfact> 0.35714789E-01</totfact>
</mgrwt>
</event>
<event>
 6    1  0.9562506E-007  0.2064194E+04  0.7818608E-02  0.8577182E-01
         -2   -1    0    0    0  501 -0.00000000000E+00  0.00000000000E+00  0.72769859549E+03  0.72769859549E+03  0.00000000000E+00 0.  1.
          2   -1    0    0  501    0  0.00000000000E+00 -0.00000000000E+00 -0.14638264992E+04  0.14638264992E+04  0.00000000000E+00 0. -1.
         23    2    1    2    0    0  0.78330888265E+03  0.79449611782E+02  0.33662344128E+03  0.86085590416E+03  0.88727110036E+02 0.  0.
         13    1    3    3    0    0  0.38939878050E+03  0.14195946510E+02  0.20596420846E+03  0.44074277114E+03  0.00000000000E+00 0. -1.
        -13    1    3    3    0    0  0.39391010215E+03  0.65253665272E+02  0.13065923282E+03  0.42011313301E+03  0.00000000000E+00 0.  1.
         22    1    1    2    0    0 -0.78330888265E+03 -0.79449611782E+02 -0.10727513450E+04  0.13306691905E+04  0.00000000000E+00 0. -1.
<mgrwt>
<rscale>  0 0.20641943E+04</rscale>
<asrwt>0</asrwt>
<pdfrwt beam="1">  1        2 0.22520408E+00 0.20641943E+04</pdfrwt>
<pdfrwt beam="2">  1       -2 0.11195363E+00 0.20641943E+04</pdfrwt>
<totfact> 0.77437864E+00</totfact>
</mgrwt>
</event>
<event>
 6    1  0.9562506E-007  0.6318406E+04  0.7818608E-02  0.7652130E-01
          1   -1    0    0  501    0  0.00000000000E+00  0.00000000000E+00  0.40589049885E+04  0.40589049885E+04  0.00000000000E+00 0. -1.
         -1   -1    0    0    0  501 -0.00000000000E+00 -0.00000000000E+00 -0.24589297432E+04  0.24589297432E+04  0.00000000000E+00 0.  1.
         23    2    1    2    0    0  0.17273563676E+04 -0.11844895138E+03  0.35251686300E+04  0.39285955108E+04  0.96221841342E+02 0.  0.
         11    1    3    3    0    0  0.16747988268E+04 -0.10086649088E+03  0.33894123582E+04  0.37819626245E+04  0.00000000000E+00 0.  1.
        -11    1    3    3    0    0  0.52557540883E+02 -0.17582460496E+02  0.13575627173E+03  0.14663288627E+03  0.00000000000E+00 0. -1.
         22    1    1    2    0    0 -0.17273563676E+04  0.11844895138E+03 -0.19251933846E+04  0.25892392209E+04  0.00000000000E+00 0.  1.
<mgrwt>
<rscale>  0 0.63184056E+04</rscale>
<asrwt>0</asrwt>
<pdfrwt beam="1">  1        1 0.62444692E+00 0.63184056E+04</pdfrwt>
<pdfrwt beam="2">  1       -1 0.37829688E+00 0.63184056E+04</pdfrwt>
<totfact> 0.55520280E-04</totfact>
</mgrwt>
</event>
<event>
 6    1  0.9562506E-007  0.4228483E+04  0.7818608E-02  0.7959976E-01
         -2   -1    0    0    0  501 -0.00000000000E+00  0.00000000000E+00  0.16238883257E+04  0.16238883257E+04  0.00000000000E+00 0.  1.
          2   -1    0    0  501    0  0.00000000000E+00 -0.00000000000E+00 -0.27526627845E+04  0.27526627845E+04  0.00000000000E+00 0. -1.
         23    2    1    2    0    0 -0.66655412971E+03 -0.33623331537E+03 -0.26108666873E+04  0.27170497924E+04  0.91583106529E+02 0.  0.
         11    1    3    3    0    0 -0.50441731066E+03 -0.21619709338E+03 -0.19855897225E+04  0.20600350853E+04  0.00000000000E+00 0. -1.
        -11    1    3    3    0    0 -0.16213681905E+03 -0.12003622199E+03 -0.62527696477E+03  0.65701470711E+03  0.00000000000E+00 0.  1.
         22    1    1    2    0    0  0.66655412971E+03  0.33623331537E+03  0.14820922285E+04  0.16595013179E+04  0.00000000000E+00 0.  1.
<mgrwt>
<rscale>  0 0.42284829E+04</rscale>
<asrwt>0</asrwt>
<pdfrwt beam="1">  1        2 0.42348658E+00 0.42284829E+04</pdfrwt>
<pdfrwt beam="2">  1       -2 0.24982898E+00 0.42284829E+04</pdfrwt>
<totfact> 0.12318583E-01</totfact>
</mgrwt>
</event>
<event>
 6    1  0.9562506E-007  0.1335656E+04  0.7818608E-02  0.9001758E-01
          1   -1    0    0  501    0  0.00000000000E+00  0.00000000000E+00  0.11937138011E+04  0.11937138011E+04  0.00000000000E+00 0. -1.
         -1   -1    0    0    0  501 -0.00000000000E+00 -0.00000000000E+00 -0.37361910535E+03  0.37361910535E+03  0.00000000000E+00 0.  1.
         23    2    1    2    0    0 -0.62069280309E+03 -0.45261993505E+02  0.68587805885E+03  0.93068362351E+03  0.91842754738E+02 0.  0.
         13    1    3    3    0    0 -0.51128799601E+03 -0.64936370054E+01  0.53138450003E+03  0.73744631606E+03  0.00000000000E+00 0.  1.
        -13    1    3    3    0    0 -0.10940480708E+03 -0.38768356499E+02  0.15449355881E+03  0.19323730746E+03  0.00000000000E+00 0. -1.
         22    1    1    2    0    0  0.62069280309E+03  0.45261993505E+02  0.13421663692E+03  0.63664928296E+03  0.00000000000E+00 0.  1.
<mgrwt>
<rscale>  0 0.13356561E+04</rscale>
<asrwt>0</asrwt>
<pdfrwt beam="1">  1        1 0.18364828E+00 0.13356561E+04</pdfrwt>
<pdfrwt beam="2">  1       -1 0.57479863E-01 0.13356561E+04</pdfrwt>
<totfact> 0.32436765E+01</totfact>
</mgrwt>
</event>
<event>
 6    1  0.9562506E-007  0.2029096E+04  0.7818608E-02  0.8593137E-01
          2   -1    0    0  501    0  0.00000000000E+00  0.00000000000E+00  0.22815132176E+04  0.22815132176E+04  0.00000000000E+00 0. -1.
         -2   -1    0    0    0  501 -0.00000000000E+00 -0.00000000000E+00 -0.45115133204E+03  0.45115133204E+03  0.00000000000E+00 0.  1.
         23    2    1    2    0    0 -0.20318288185E+03  0.53798714734E+03  0.20392633229E+04  0.21208203990E+04  0.92578670787E+02 0.  0.
         13    1    3    3    0    0 -0.14055043036E+03  0.38991899422E+03  0.16081995437E+04  0.16607519435E+04  0.00000000000E+00 0.  1.
        -13    1    3    3    0    0 -0.62632451490E+02  0.14806815312E+03  0.43106377925E+03  0.46006845548E+03  0.00000000000E+00 0. -1.
         22    1    1    2    0    0  0.20318288185E+03 -0.53798714734E+03 -0.20890143737E+03  0.61184415067E+03  0.00000000000E+00 0.  1.
<mgrwt>
<rscale>  0 0.20290961E+04</rscale>
<asrwt>0</asrwt>
<pdfrwt beam="1">  1        2 0.35100203E+00 0.20290961E+04</pdfrwt>
<pdfrwt beam="2">  1       -2 0.69407898E-01 0.20290961E+04</pdfrwt>
<totfact> 0.81528622E+00</totfact>
</mgrwt>
</event>
<event>
 6    1  0.9562506E-007  0.2424724E+04  0.7818608E-02  0.8430305E-01
          2   -1    0    0  501    0  0.00000000000E+00  0.00000000000E+00  0.19775503362E+04  0.19775503362E+04  0.00000000000E+00 0. -1.
         -2   -1    0    0    0  501 -0.00000000000E+00 -0.00000000000E+00 -0.74325396697E+03  0.74325396697E+03  0.00000000000E+00 0.  1.
         23    2    1    2    0    0  0.11634492601E+04 -0.32560707301E+03  0.70461147048E+03  0.14016378092E+04  0.92071043464E+02 0.  0.
         11    1    3    3    0    0  0.59085413382E+03 -0.13915416093E+03  0.30916832633E+03  0.68121769058E+03  0.00000000000E+00 0. -1.
        -11    1    3    3    0    0  0.57259512627E+03 -0.18645291208E+03  0.39544314416E+03  0.72042011862E+03  0.00000000000E+00 0.  1.
         22    1    1    2    0    0 -0.11634492601E+04  0.32560707301E+03  0.52968489870E+03  0.13191664939E+04  0.00000000000E+00 0.  1.
<mgrwt>
<rscale>  0 0.24247244E+04</rscale>
<asrwt>0</asrwt>
<pdfrwt beam="1">  1        2 0.30423851E+00 0.24247244E+04</pdfrwt>
<pdfrwt beam="2">  1       -2 0.11434676E+00 0.24247244E+04</pdfrwt>
<totfact> 0.36895209E+00</totfact>
</mgrwt>
</event>
<event>
 6    1  0.1181211E-006  0.2225368E+04  0.7818608E-02  0.8507943E-01
          2   -1    0    0  501    0  0.00000000000E+00  0.00000000000E+00  0.12020075261E+04  0.12020075261E+04  0.00000000000E+00 0. -1.
         -2   -1    0    0    0  501 -0.00000000000E+00 -0.00000000000E+00 -0.10299985465E+04  0.10299985465E+04  0.00000000000E+00 0.  1.
         23    2    1    2    0    0  0.78306481847E+03 -0.64549163593E+03  0.53933714779E+03  0.11527563586E+04  0.90070535472E+02 0.  0.
         13    1    3    3    0    0  0.39359632405E+03 -0.35500066245E+03  0.23796702563E+03  0.58100933034E+03  0.00000000000E+00 0. -1.
        -13    1    3    3    0    0  0.38946849442E+03 -0.29049097348E+03  0.30137012216E+03  0.57174702828E+03  0.00000000000E+00 0.  1.
         22    1    1    2    0    0 -0.78306481847E+03  0.64549163593E+03 -0.36732816826E+03  0.10792497140E+04  0.00000000000E+00 0.  1.
<mgrwt>
<rscale>  0 0.22253683E+04</rscale>
<asrwt>0</asrwt>
<pdfrwt beam="1">  1        2 0.18492423E+00 0.22253683E+04</pdfrwt>
<pdfrwt beam="2">  1       -2 0.15846131E+00 0.22253683E+04</pdfrwt>
<totfact> 0.44557405E+00</totfact>
</mgrwt>
</event>
<event>
 6    1  0.9562506E-007  0.2153524E+04  0.7818608E-02  0.8538025E-01
         -2   -1    0    0    0  501 -0.00000000000E+00  0.00000000000E+00  0.51233165059E+03  0.51233165059E+03  0.00000000000E+00 0.  1.
          2   -1    0    0  501    0  0.00000000000E+00 -0.00000000000E+00 -0.22630200914E+04  0.22630200914E+04  0.00000000000E+00 0. -1.
         23    2    1    2    0    0 -0.16866013047E+03 -0.10471448649E+04 -0.11051946473E+04  0.15337314920E+04  0.76931616505E+02 0.  0.
         13    1    3    3    0    0 -0.37205278764E+02 -0.96955117555E+02 -0.96746752719E+02  0.14193118667E+03  0.00000000000E+00 0.  1.
        -13    1    3    3    0    0 -0.13145485171E+03 -0.95018974730E+03 -0.10084478946E+04  0.13918003053E+04  0.00000000000E+00 0. -1.
         22    1    1    2    0    0  0.16866013047E+03  0.10471448649E+04 -0.64549379350E+03  0.12416202499E+04  0.00000000000E+00 0. -1.
<mgrwt>
<rscale>  0 0.21535244E+04</rscale>
<asrwt>0</asrwt>
<pdfrwt beam="1">  1        2 0.34815693E+00 0.21535244E+04</pdfrwt>
<pdfrwt beam="2">  1       -2 0.78820256E-01 0.21535244E+04</pdfrwt>
<totfact> 0.62387779E+00</totfact>
</mgrwt>
</event>
<event>
 6    1  0.9562506E-007  0.2260328E+04  0.7818608E-02  0.8493729E-01
         -1   -1    0    0    0  501 -0.00000000000E+00  0.00000000000E+00  0.98817842261E+03  0.98817842261E+03  0.00000000000E+00 0.  1.
          1   -1    0    0  501    0  0.00000000000E+00 -0.00000000000E+00 -0.12925511327E+04  0.12925511327E+04  0.00000000000E+00 0. -1.
         23    2    1    2    0    0  0.10842058890E+04  0.14264093673E+03  0.12796191531E+03  0.11048205134E+04  0.91680251670E+02 0.  0.
         13    1    3    3    0    0  0.36486528479E+03  0.53204611223E+01  0.51186575397E+02  0.36847665985E+03  0.00000000000E+00 0. -1.
        -13    1    3    3    0    0  0.71934060420E+03  0.13732047560E+03  0.76775339910E+02  0.73634385357E+03  0.00000000000E+00 0.  1.
         22    1    1    2    0    0 -0.10842058890E+04 -0.14264093673E+03 -0.43233462541E+03  0.11759090419E+04  0.00000000000E+00 0. -1.
<mgrwt>
<rscale>  0 0.22603284E+04</rscale>
<asrwt>0</asrwt>
<pdfrwt beam="1">  1        1 0.19885402E+00 0.22603284E+04</pdfrwt>
<pdfrwt beam="2">  1       -1 0.15202745E+00 0.22603284E+04</pdfrwt>
<totfact> 0.27945724E+00</totfact>
</mgrwt>
</event>
<event>
 6    1  0.9562506E-007  0.1096288E+04  0.7818608E-02  0.9208817E-01
         -3   -1    0    0    0  501 -0.00000000000E+00  0.00000000000E+00  0.50712074859E+03  0.50712074859E+03  0.00000000000E+00 0.  1.
          3   -1    0    0  501    0  0.00000000000E+00 -0.00000000000E+00 -0.59248621860E+03  0.59248621860E+03  0.00000000000E+00 0. -1.
         23    2    1    2    0    0  0.22138969789E+03  0.12336982428E+03 -0.52630011731E+03  0.59102376351E+03  0.89909752930E+02 0.  0.
         13    1    3    3    0    0  0.13613384301E+03  0.28293636023E+02 -0.23670115191E+03  0.27451846635E+03  0.00000000000E+00 0. -1.
        -13    1    3    3    0    0  0.85255854876E+02  0.95076188259E+02 -0.28959896541E+03  0.31650529716E+03  0.00000000000E+00 0.  1.
         22    1    1    2    0    0 -0.22138969789E+03 -0.12336982428E+03  0.44093464731E+03  0.50858320369E+03  0.00000000000E+00 0.  1.
<mgrwt>
<rscale>  0 0.10962884E+04</rscale>
<asrwt>0</asrwt>
<pdfrwt beam="1">  1        3 0.91151726E-01 0.10962884E+04</pdfrwt>
<pdfrwt beam="2">  1       -3 0.78018577E-01 0.10962884E+04</pdfrwt>
<totfact> 0.43383555E+00</totfact>
</mgrwt>
</event>
<event>
 6    1  0.9562506E-007  0.5158418E+04  0.7818608E-02  0.7804524E-01
         -1   -1    0    0    0  501 -0.00000000000E+00  0.00000000000E+00  0.44639608644E+04  0.44639608644E+04  0.00000000000E+00 0.  1.
          1   -1    0    0  501    0  0.00000000000E+00 -0.00000000000E+00 -0.14902280301E+04  0.14902280301E+04  0.00000000000E+00 0. -1.
         23    2    1    2    0    0 -0.13124039620E+04 -0.19318779081E+04  0.27483998775E+04  0.36078446417E+04  0.91020107856E+02 0.  0.
         11    1    3    3    0    0 -0.75415305677E+03 -0.11878631163E+04  0.16680741063E+04  0.21822549897E+04  0.00000000000E+00 0.  1.
        -11    1    3    3    0    0 -0.55825090527E+03 -0.74401479186E+03  0.10803257712E+04  0.14255896519E+04  0.00000000000E+00 0. -1.
         22    1    1    2    0    0  0.13124039620E+04  0.19318779081E+04  0.22533295679E+03  0.23463442529E+04  0.00000000000E+00 0. -1.
<mgrwt>
<rscale>  0 0.51584182E+04</rscale>
<asrwt>0</asrwt>
<pdfrwt beam="1">  1        1 0.22926585E+00 0.51584182E+04</pdfrwt>
<pdfrwt beam="2">  1       -1 0.68676321E+00 0.51584182E+04</pdfrwt>
<totfact> 0.10639408E-03</totfact>
</mgrwt>
</event>
<event>
 6    1  0.9562506E-007  0.2457578E+04  0.7818608E-02  0.8418256E-01
          2   -1    0    0  501    0  0.00000000000E+00  0.00000000000E+00  0.16178214531E+04  0.16178214531E+04  0.00000000000E+00 0. -1.
         -2   -1    0    0    0  501 -0.00000000000E+00 -0.00000000000E+00 -0.93330617570E+03  0.93330617570E+03  0.00000000000E+00 0.  1.
         23    2    1    2    0    0  0.11984896880E+04 -0.15552079516E+03  0.12190117509E+03  0.12180489072E+04  0.90658666142E+02 0.  0.
         11    1    3    3    0    0  0.67955657942E+03 -0.42839479049E+02  0.67364322360E+02  0.68422972570E+03  0.00000000000E+00 0. -1.
        -11    1    3    3    0    0  0.51893310859E+03 -0.11268131611E+03  0.54536852726E+02  0.53381918146E+03  0.00000000000E+00 0.  1.
         22    1    1    2    0    0 -0.11984896880E+04  0.15552079516E+03  0.56261410232E+03  0.13330787216E+04  0.00000000000E+00 0. -1.
<mgrwt>
<rscale>  0 0.24575783E+04</rscale>
<asrwt>0</asrwt>
<pdfrwt beam="1">  1        2 0.24889561E+00 0.24575783E+04</pdfrwt>
<pdfrwt beam="2">  1       -2 0.14358557E+00 0.24575783E+04</pdfrwt>
<totfact> 0.32800868E+00</totfact>
</mgrwt>
</event>
<event>
 6    1  0.9562506E-007  0.1743756E+04  0.7818608E-02  0.8736795E-01
          1   -1    0    0  501    0  0.00000000000E+00  0.00000000000E+00  0.72381176509E+03  0.72381176509E+03  0.00000000000E+00 0. -1.
         -1   -1    0    0    0  501 -0.00000000000E+00 -0.00000000000E+00 -0.10502328596E+04  0.10502328596E+04  0.00000000000E+00 0.  1.
         23    2    1    2    0    0 -0.63041779050E+03 -0.38026057369E+03  0.30702429371E+03  0.80281975149E+03  0.90724538956E+02 0.  0.
         11    1    3    3    0    0 -0.29266324942E+03 -0.19800275468E+03  0.19208749775E+03  0.40218711468E+03  0.00000000000E+00 0.  1.
        -11    1    3    3    0    0 -0.33775454108E+03 -0.18225781901E+03  0.11493679596E+03  0.40063263681E+03  0.00000000000E+00 0. -1.
         22    1    1    2    0    0  0.63041779050E+03  0.38026057369E+03 -0.63344538828E+03  0.97122487325E+03  0.00000000000E+00 0.  1.
<mgrwt>
<rscale>  0 0.17437556E+04</rscale>
<asrwt>0</asrwt>
<pdfrwt beam="1">  1        1 0.11135566E+00 0.17437556E+04</pdfrwt>
<pdfrwt beam="2">  1       -1 0.16157429E+00 0.17437556E+04</pdfrwt>
<totfact> 0.69774759E+00</totfact>
</mgrwt>
</event>
<event>
 6    1  0.9562506E-007  0.1391280E+04  0.7818608E-02  0.8960155E-01
          4   -1    0    0  501    0  0.00000000000E+00  0.00000000000E+00  0.86914955571E+03  0.86914955571E+03  0.00000000000E+00 0. -1.
         -4   -1    0    0    0  501 -0.00000000000E+00 -0.00000000000E+00 -0.55676834164E+03  0.55676834164E+03  0.00000000000E+00 0.  1.
         23    2    1    2    0    0 -0.29953410788E+03  0.59879612107E+03  0.33847637347E+03  0.75587429151E+03  0.92207444286E+02 0.  0.
         11    1    3    3    0    0 -0.13750634288E+03  0.17791133046E+03  0.11362527820E+03  0.25193479252E+03  0.00000000000E+00 0. -1.
        -11    1    3    3    0    0 -0.16202776500E+03  0.42088479061E+03  0.22485109527E+03  0.50393949899E+03  0.00000000000E+00 0.  1.
         22    1    1    2    0    0  0.29953410788E+03 -0.59879612107E+03 -0.26095159402E+02  0.67004360584E+03  0.00000000000E+00 0.  1.
<mgrwt>
<rscale>  0 0.13912799E+04</rscale>
<asrwt>0</asrwt>
<pdfrwt beam="1">  1        4 0.13371532E+00 0.13912799E+04</pdfrwt>
<pdfrwt beam="2">  1       -4 0.85656668E-01 0.13912799E+04</pdfrwt>
<totfact> 0.92950215E-01</totfact>
</mgrwt>
</event>
<event>
 6    1  0.9562506E-007  0.4737310E+04  0.7818608E-02  0.7870359E-01
          2   -1    0    0  501    0  0.00000000000E+00  0.00000000000E+00  0.22662248875E+04  0.22662248875E+04  0.00000000000E+00 0. -1.
         -2   -1    0    0    0  501 -0.00000000000E+00 -0.00000000000E+00 -0.24757145359E+04  0.24757145359E+04  0.00000000000E+00 0.  1.
         23    2    1    2    0    0  0.86397640661E+03 -0.15397709546E+04 -0.16840177184E+04  0.24415953506E+04  0.90124116934E+02 0.  0.
         11    1    3    3    0    0  0.16008886078E+03 -0.26080033884E+03 -0.33722103861E+03  0.45537159438E+03  0.00000000000E+00 0. -1.
        -11    1    3    3    0    0  0.70388754583E+03 -0.12789706157E+04 -0.13467966798E+04  0.19862237562E+04  0.00000000000E+00 0.  1.
         22    1    1    2    0    0 -0.86397640661E+03  0.15397709546E+04  0.14745280700E+04  0.23003440727E+04  0.00000000000E+00 0. -1.
<mgrwt>
<rscale>  0 0.47373097E+04</rscale>
<asrwt>0</asrwt>
<pdfrwt beam="1">  1        2 0.34864998E+00 0.47373097E+04</pdfrwt>
<pdfrwt beam="2">  1       -2 0.38087916E+00 0.47373097E+04</pdfrwt>
<totfact> 0.34811941E-02</totfact>
</mgrwt>
</event>
<event>
 6    1  0.9562506E-007  0.2961177E+04  0.7818608E-02  0.8254905E-01
         -2   -1    0    0    0  501 -0.00000000000E+00  0.00000000000E+00  0.74913989547E+03  0.74913989547E+03  0.00000000000E+00 0.  1.
          2   -1    0    0  501    0  0.00000000000E+00 -0.00000000000E+00 -0.29262115562E+04  0.29262115562E+04  0.00000000000E+00 0. -1.
         23    2    1    2    0    0 -0.53924107813E+03 -0.12416698972E+03 -0.27921342828E+04  0.28480060518E+04  0.94478761238E+02 0.  0.
         13    1    3    3    0    0 -0.84989537607E+02 -0.45319072389E+02 -0.62444372899E+03  0.63182830777E+03  0.00000000000E+00 0. -1.
        -13    1    3    3    0    0 -0.45425154052E+03 -0.78847917332E+02 -0.21676905538E+04  0.22161777440E+04  0.00000000000E+00 0.  1.
         22    1    1    2    0    0  0.53924107813E+03  0.12416698972E+03  0.61506262204E+03  0.82734539988E+03  0.00000000000E+00 0.  1.
<mgrwt>
<rscale>  0 0.29611767E+04</rscale>
<asrwt>0</asrwt>
<pdfrwt beam="1">  1        2 0.45018639E+00 0.29611767E+04</pdfrwt>
<pdfrwt beam="2">  1       -2 0.11525229E+00 0.29611767E+04</pdfrwt>
<totfact> 0.97434895E-01</totfact>
</mgrwt>
</event>
<event>
 6    1  0.9562506E-007  0.3979689E+04  0.7818608E-02  0.8008657E-01
         -2   -1    0    0    0  501 -0.00000000000E+00  0.00000000000E+00  0.38156125807E+04  0.38156125807E+04  0.00000000000E+00 0.  1.
          2   -1    0    0  501    0  0.00000000000E+00 -0.00000000000E+00 -0.10377050909E+04  0.10377050909E+04  0.00000000000E+00 0. -1.
         23    2    1    2    0    0  0.14761727350E+04 -0.19056770623E+03 -0.21857274861E+03  0.15075298998E+04  0.97315765521E+02 0.  0.
         11    1    3    3    0    0  0.62870594758E+03 -0.48426795683E+02 -0.56704079001E+02  0.63311268795E+03  0.00000000000E+00 0. -1.
        -11    1    3    3    0    0  0.84746678740E+03 -0.14214091055E+03 -0.16186866961E+03  0.87441721186E+03  0.00000000000E+00 0.  1.
         22    1    1    2    0    0 -0.14761727350E+04  0.19056770623E+03  0.29964802384E+04  0.33457877717E+04  0.00000000000E+00 0.  1.
<mgrwt>
<rscale>  0 0.39796887E+04</rscale>
<asrwt>0</asrwt>
<pdfrwt beam="1">  1        2 0.15964694E+00 0.39796887E+04</pdfrwt>
<pdfrwt beam="2">  1       -2 0.58701731E+00 0.39796887E+04</pdfrwt>
<totfact> 0.10786097E-02</totfact>
</mgrwt>
</event>
<event>
 6    1  0.9647659E-007  0.3674128E+04  0.7818608E-02  0.8073720E-01
         -2   -1    0    0    0  501 -0.00000000000E+00  0.00000000000E+00  0.13973896825E+04  0.13973896825E+04  0.00000000000E+00 0.  1.
          2   -1    0    0  501    0  0.00000000000E+00 -0.00000000000E+00 -0.24150777449E+04  0.24150777449E+04  0.00000000000E+00 0. -1.
         23    2    1    2    0    0 -0.36494565948E+03  0.91143576213E+02 -0.23738387557E+04  0.24051163024E+04  0.89339264525E+02 0.  0.
         11    1    3    3    0    0 -0.12068363102E+03 -0.12628665200E+01 -0.93648874868E+03  0.94423371579E+03  0.00000000000E+00 0.  1.
        -11    1    3    3    0    0 -0.24426202846E+03  0.92406442733E+02 -0.14373500070E+04  0.14608825866E+04  0.00000000000E+00 0. -1.
         22    1    1    2    0    0  0.36494565948E+03 -0.91143576213E+02  0.13561506933E+04  0.14073511249E+04  0.00000000000E+00 0.  1.
<mgrwt>
<rscale>  0 0.36741283E+04</rscale>
<asrwt>0</asrwt>
<pdfrwt beam="1">  1        2 0.37155042E+00 0.36741283E+04</pdfrwt>
<pdfrwt beam="2">  1       -2 0.21498303E+00 0.36741283E+04</pdfrwt>
<totfact> 0.33583294E-01</totfact>
</mgrwt>
</event>
<event>
 6    1  0.9562506E-007  0.5395787E+04  0.7818608E-02  0.7770194E-01
         -2   -1    0    0    0  501 -0.00000000000E+00  0.00000000000E+00  0.18190743703E+04  0.18190743703E+04  0.00000000000E+00 0.  1.
          2   -1    0    0  501    0  0.00000000000E+00 -0.00000000000E+00 -0.40012818184E+04  0.40012818184E+04  0.00000000000E+00 0. -1.
         23    2    1    2    0    0 -0.64527079638E+03 -0.19993682524E+04  0.73305687081E+03  0.22269436242E+04  0.89764805113E+02 0.  0.
         11    1    3    3    0    0 -0.17306170030E+03 -0.66646349842E+03  0.22610026834E+03  0.72473807557E+03  0.00000000000E+00 0. -1.
        -11    1    3    3    0    0 -0.47220909607E+03 -0.13329047540E+04  0.50695660247E+03  0.15022055486E+04  0.00000000000E+00 0.  1.
         22    1    1    2    0    0  0.64527079638E+03  0.19993682524E+04 -0.29152643189E+04  0.35934125644E+04  0.00000000000E+00 0. -1.
<mgrwt>
<rscale>  0 0.53957870E+04</rscale>
<asrwt>0</asrwt>
<pdfrwt beam="1">  1        2 0.61558181E+00 0.53957870E+04</pdfrwt>
<pdfrwt beam="2">  1       -2 0.27985760E+00 0.53957870E+04</pdfrwt>
<totfact> 0.10111002E-02</totfact>
</mgrwt>
</event>
<event>
 6    1  0.9562506E-007  0.2402995E+04  0.7818608E-02  0.8438383E-01
         -1   -1    0    0    0  501 -0.00000000000E+00  0.00000000000E+00  0.98415311348E+03  0.98415311348E+03  0.00000000000E+00 0.  1.
          1   -1    0    0  501    0  0.00000000000E+00 -0.00000000000E+00 -0.14668412034E+04  0.14668412034E+04  0.00000000000E+00 0. -1.
         23    2    1    2    0    0  0.55055582697E+03  0.10364210087E+04 -0.49589572970E+03  0.12773441699E+04  0.91735095521E+02 0.  0.
         11    1    3    3    0    0  0.42207171848E+03  0.82103765098E+03 -0.35063220895E+03  0.98751724331E+03  0.00000000000E+00 0.  1.
        -11    1    3    3    0    0  0.12848410849E+03  0.21538335768E+03 -0.14526352074E+03  0.28982692655E+03  0.00000000000E+00 0. -1.
         22    1    1    2    0    0 -0.55055582697E+03 -0.10364210087E+04  0.13207639806E+02  0.11736501470E+04  0.00000000000E+00 0.  1.
<mgrwt>
<rscale>  0 0.24029951E+04</rscale>
<asrwt>0</asrwt>
<pdfrwt beam="1">  1        1 0.22566787E+00 0.24029951E+04</pdfrwt>
<pdfrwt beam="2">  1       -1 0.15140817E+00 0.24029951E+04</pdfrwt>
<totfact> 0.21025218E+00</totfact>
</mgrwt>
</event>
<event>
 6    1  0.9562506E-007  0.1659797E+04  0.7818608E-02  0.8784632E-01
          2   -1    0    0  501    0  0.00000000000E+00  0.00000000000E+00  0.88144883898E+03  0.88144883898E+03  0.00000000000E+00 0. -1.
         -2   -1    0    0    0  501 -0.00000000000E+00 -0.00000000000E+00 -0.78136302306E+03  0.78136302306E+03  0.00000000000E+00 0.  1.
         23    2    1    2    0    0  0.47503122884E+03 -0.65118459043E+03 -0.14348018545E+03  0.82077834952E+03  0.58262305436E+02 0.  0.
         11    1    3    3    0    0  0.46586472257E+02 -0.96850283535E+02 -0.22488299134E+02  0.10979981974E+03  0.00000000000E+00 0. -1.
        -11    1    3    3    0    0  0.42844475658E+03 -0.55433430689E+03 -0.12099188632E+03  0.71097852977E+03  0.00000000000E+00 0.  1.
         22    1    1    2    0    0 -0.47503122884E+03  0.65118459043E+03  0.24356600137E+03  0.84203351252E+03  0.00000000000E+00 0. -1.
<mgrwt>
<rscale>  0 0.16597970E+04</rscale>
<asrwt>0</asrwt>
<pdfrwt beam="1">  1        2 0.13560751E+00 0.16597970E+04</pdfrwt>
<pdfrwt beam="2">  1       -2 0.12020970E+00 0.16597970E+04</pdfrwt>
<totfact> 0.15234328E+01</totfact>
</mgrwt>
</event>
<event>
 6    1  0.9562506E-007  0.3846246E+04  0.7818608E-02  0.8036303E-01
         -1   -1    0    0    0  501 -0.00000000000E+00  0.00000000000E+00  0.25874315534E+04  0.25874315534E+04  0.00000000000E+00 0.  1.
          1   -1    0    0  501    0  0.00000000000E+00 -0.00000000000E+00 -0.14293720752E+04  0.14293720752E+04  0.00000000000E+00 0. -1.
         23    2    1    2    0    0  0.77755558304E+03  0.36100867486E+03  0.23762151517E+04  0.25272321491E+04  0.74725766886E+02 0.  0.
         11    1    3    3    0    0  0.28887524014E+03  0.14205489399E+03  0.99847052859E+03  0.10490814524E+04  0.00000000000E+00 0.  1.
        -11    1    3    3    0    0  0.48868034290E+03  0.21895378087E+03  0.13777446231E+04  0.14781506967E+04  0.00000000000E+00 0. -1.
         22    1    1    2    0    0 -0.77755558304E+03 -0.36100867486E+03 -0.12181556735E+04  0.14895714796E+04  0.00000000000E+00 0. -1.
<mgrwt>
<rscale>  0 0.38462462E+04</rscale>
<asrwt>0</asrwt>
<pdfrwt beam="1">  1        1 0.21990340E+00 0.38462462E+04</pdfrwt>
<pdfrwt beam="2">  1       -1 0.39806639E+00 0.38462462E+04</pdfrwt>
<totfact> 0.42794609E-02</totfact>
</mgrwt>
</event>
<event>
 6    1  0.9562506E-007  0.7693962E+03  0.7818608E-02  0.9605403E-01
         -2   -1    0    0    0  501 -0.00000000000E+00  0.00000000000E+00  0.32125881964E+03  0.32125881964E+03  0.00000000000E+00 0.  1.
          2   -1    0    0  501    0  0.00000000000E+00 -0.00000000000E+00 -0.46066475181E+03  0.46066475181E+03  0.00000000000E+00 0. -1.
         23    2    1    2    0    0  0.35728131482E+03  0.12071528112E+03 -0.11001019074E+03  0.40365617049E+03  0.92811340300E+02 0.  0.
         11    1    3    3    0    0  0.21953737698E+03  0.12032850591E+03 -0.63598892245E+02  0.25830297776E+03  0.00000000000E+00 0.  1.
        -11    1    3    3    0    0  0.13774393784E+03  0.38677521037E+00 -0.46411298490E+02  0.14535319272E+03  0.00000000000E+00 0. -1.
         22    1    1    2    0    0 -0.35728131482E+03 -0.12071528112E+03 -0.29395741427E+02  0.37826740096E+03  0.00000000000E+00 0. -1.
<mgrwt>
<rscale>  0 0.76939616E+03</rscale>
<asrwt>0</asrwt>
<pdfrwt beam="1">  1        2 0.70871500E-01 0.76939616E+03</pdfrwt>
<pdfrwt beam="2">  1       -2 0.49424434E-01 0.76939616E+03</pdfrwt>
<totfact> 0.26440175E+02</totfact>
</mgrwt>
</event>
<event>
 6    1  0.9562506E-007  0.4853215E+04  0.7818608E-02  0.7851558E-01
         -2   -1    0    0    0  501 -0.00000000000E+00  0.00000000000E+00  0.30074584209E+04  0.30074584209E+04  0.00000000000E+00 0.  1.
          2   -1    0    0  501    0  0.00000000000E+00 -0.00000000000E+00 -0.19579402451E+04  0.19579402451E+04  0.00000000000E+00 0. -1.
         23    2    1    2    0    0 -0.20858428103E+02  0.20114544878E+04 -0.86207743817E+03  0.21904064098E+04  0.91205810732E+02 0.  0.
         13    1    3    3    0    0 -0.36558274939E+02  0.49473943456E+03 -0.18695426186E+03  0.53014668876E+03  0.00000000000E+00 0.  1.
        -13    1    3    3    0    0  0.15699846836E+02  0.15167150533E+04 -0.67512317632E+03  0.16602597210E+04  0.00000000000E+00 0. -1.
         22    1    1    2    0    0  0.20858428103E+02 -0.20114544878E+04  0.19115956140E+04  0.27749922562E+04  0.00000000000E+00 0.  1.
<mgrwt>
<rscale>  0 0.48532150E+04</rscale>
<asrwt>0</asrwt>
<pdfrwt beam="1">  1        2 0.30122158E+00 0.48532150E+04</pdfrwt>
<pdfrwt beam="2">  1       -2 0.46268591E+00 0.48532150E+04</pdfrwt>
<totfact> 0.14914359E-02</totfact>
</mgrwt>
</event>
<event>
 6    1  0.9562506E-007  0.4182381E+03  0.7818608E-02  0.1037641E+00
         -1   -1    0    0    0  501 -0.00000000000E+00  0.00000000000E+00  0.47841725036E+03  0.47841725036E+03  0.00000000000E+00 0.  1.
          1   -1    0    0  501    0  0.00000000000E+00 -0.00000000000E+00 -0.91407179412E+02  0.91407179412E+02  0.00000000000E+00 0. -1.
         23    2    1    2    0    0  0.18836629553E+03  0.59907534850E+02  0.23679800412E+03  0.32156158712E+03  0.90872358463E+02 0.  0.
         11    1    3    3    0    0  0.83807607780E+02  0.74279782161E+02  0.12418857978E+03  0.16722441361E+03  0.00000000000E+00 0. -1.
        -11    1    3    3    0    0  0.10455868775E+03 -0.14372247311E+02  0.11260942434E+03  0.15433717351E+03  0.00000000000E+00 0.  1.
         22    1    1    2    0    0 -0.18836629553E+03 -0.59907534850E+02  0.15021206683E+03  0.24826284266E+03  0.00000000000E+00 0. -1.
<mgrwt>
<rscale>  0 0.41823807E+03</rscale>
<asrwt>0</asrwt>
<pdfrwt beam="1">  1        1 0.14062643E-01 0.41823807E+03</pdfrwt>
<pdfrwt beam="2">  1       -1 0.73602652E-01 0.41823807E+03</pdfrwt>
<totfact> 0.78847021E+02</totfact>
</mgrwt>
</event>
<event>
 6    1  0.9562506E-007  0.2878070E+04  0.7818608E-02  0.8279432E-01
          1   -1    0    0  501    0  0.00000000000E+00  0.00000000000E+00  0.16921560616E+04  0.16921560616E+04  0.00000000000E+00 0. -1.
         -1   -1    0    0    0  501 -0.00000000000E+00 -0.00000000000E+00 -0.12237768919E+04  0.12237768919E+04  0.00000000000E+00 0.  1.
         23    2    1    2    0    0 -0.29884753102E+03  0.86161685566E+03  0.13603689556E+04  0.16402608833E+04  0.90325063704E+02 0.  0.
         11    1    3    3    0    0 -0.13988230066E+02  0.44306877088E+02  0.39034179422E+02  0.60683087436E+02  0.00000000000E+00 0. -1.
        -11    1    3    3    0    0 -0.28485930096E+03  0.81730997857E+03  0.13213347761E+04  0.15795777958E+04  0.00000000000E+00 0.  1.
         22    1    1    2    0    0  0.29884753102E+03 -0.86161685566E+03 -0.89198978582E+03  0.12756720702E+04  0.00000000000E+00 0.  1.
<mgrwt>
<rscale>  0 0.28780698E+04</rscale>
<asrwt>0</asrwt>
<pdfrwt beam="1">  1        1 0.26033170E+00 0.28780698E+04</pdfrwt>
<pdfrwt beam="2">  1       -1 0.18827337E+00 0.28780698E+04</pdfrwt>
<totfact> 0.75405530E-01</totfact>
</mgrwt>
</event>
<event>
 6    1  0.1282791E-006  0.3296997E+04  0.7818608E-02  0.8163660E-01
          1   -1    0    0  501    0  0.00000000000E+00  0.00000000000E+00  0.14407278231E+04  0.14407278231E+04  0.00000000000E+00 0. -1.
         -1   -1    0    0    0  501 -0.00000000000E+00 -0.00000000000E+00 -0.18862322254E+04  0.18862322254E+04  0.00000000000E+00 0.  1.
         23    2    1    2    0    0 -0.62133015035E+01 -0.14641649260E+04  0.53883759621E+03  0.15626622546E+04  0.88033124601E+02 0.  0.
         13    1    3    3    0    0 -0.25967663682E+02 -0.43968335358E+03  0.12773448837E+03  0.45859772186E+03  0.00000000000E+00 0.  1.
        -13    1    3    3    0    0  0.19754362178E+02 -0.10244815725E+04  0.41110310784E+03  0.11040645327E+04  0.00000000000E+00 0. -1.
         22    1    1    2    0    0  0.62133015035E+01  0.14641649260E+04 -0.98434199854E+03  0.17642977940E+04  0.00000000000E+00 0.  1.
<mgrwt>
<rscale>  0 0.32969970E+04</rscale>
<asrwt>0</asrwt>
<pdfrwt beam="1">  1        1 0.22165044E+00 0.32969970E+04</pdfrwt>
<pdfrwt beam="2">  1       -1 0.29018957E+00 0.32969970E+04</pdfrwt>
<totfact> 0.22821160E-01</totfact>
</mgrwt>
</event>
<event>
 6    1  0.9562506E-007  0.2004405E+04  0.7818608E-02  0.8604564E-01
          2   -1    0    0  501    0  0.00000000000E+00  0.00000000000E+00  0.24447047453E+04  0.24447047453E+04  0.00000000000E+00 0. -1.
         -2   -1    0    0    0  501 -0.00000000000E+00 -0.00000000000E+00 -0.41085100191E+03  0.41085100191E+03  0.00000000000E+00 0.  1.
         23    2    1    2    0    0  0.55733458516E+03 -0.78377417915E+03  0.14098090785E+04  0.17091022822E+04  0.92440085647E+02 0.  0.
         13    1    3    3    0    0  0.32891974026E+03 -0.43276739192E+03  0.87069949461E+03  0.10264469889E+04  0.00000000000E+00 0.  1.
        -13    1    3    3    0    0  0.22841484491E+03 -0.35100678723E+03  0.53910958387E+03  0.68265529330E+03  0.00000000000E+00 0. -1.
         22    1    1    2    0    0 -0.55733458516E+03  0.78377417915E+03  0.62404466491E+03  0.11464534650E+04  0.00000000000E+00 0. -1.
<mgrwt>
<rscale>  0 0.20044045E+04</rscale>
<asrwt>0</asrwt>
<pdfrwt beam="1">  1        2 0.37610841E+00 0.20044045E+04</pdfrwt>
<pdfrwt beam="2">  1       -2 0.63207848E-01 0.20044045E+04</pdfrwt>
<totfact> 0.80705370E+00</totfact>
</mgrwt>
</event>
<event>
 6    1  0.9562506E-007  0.3077373E+04  0.7818608E-02  0.8221975E-01
         -2   -1    0    0    0  501 -0.00000000000E+00  0.00000000000E+00  0.14372930408E+04  0.14372930408E+04  0.00000000000E+00 0.  1.
          2   -1    0    0  501    0  0.00000000000E+00 -0.00000000000E+00 -0.16472332312E+04  0.16472332312E+04  0.00000000000E+00 0. -1.
         23    2    1    2    0    0  0.34018937826E+03  0.76251480343E+03  0.11882022304E+04  0.14560423552E+04  0.10524809455E+03 0.  0.
         11    1    3    3    0    0  0.14017881206E+03  0.20077886920E+03  0.36688323965E+03  0.44109586850E+03  0.00000000000E+00 0. -1.
        -11    1    3    3    0    0  0.20001056620E+03  0.56173593423E+03  0.82131899075E+03  0.10149464867E+04  0.00000000000E+00 0.  1.
         22    1    1    2    0    0 -0.34018937826E+03 -0.76251480343E+03 -0.13981424207E+04  0.16284839168E+04  0.00000000000E+00 0. -1.
<mgrwt>
<rscale>  0 0.30773735E+04</rscale>
<asrwt>0</asrwt>
<pdfrwt beam="1">  1        2 0.25342050E+00 0.30773735E+04</pdfrwt>
<pdfrwt beam="2">  1       -2 0.22112201E+00 0.30773735E+04</pdfrwt>
<totfact> 0.86797805E-01</totfact>
</mgrwt>
</event>
<event>
 6    1  0.9562506E-007  0.1005243E+04  0.7818608E-02  0.9302813E-01
          2   -1    0    0  501    0  0.00000000000E+00  0.00000000000E+00  0.52729361614E+03  0.52729361614E+03  0.00000000000E+00 0. -1.
         -2   -1    0    0    0  501 -0.00000000000E+00 -0.00000000000E+00 -0.47910397205E+03  0.47910397205E+03  0.00000000000E+00 0.  1.
         23    2    1    2    0    0 -0.20565342185E+03 -0.44384900264E+02  0.47669603547E+03  0.52902867766E+03  0.91481595259E+02 0.  0.
         13    1    3    3    0    0  0.73438073404E+01 -0.26657608522E+01  0.46815471324E+02  0.47462892268E+02  0.00000000000E+00 0.  1.
        -13    1    3    3    0    0 -0.21299722919E+03 -0.41719139412E+02  0.42988056414E+03  0.48156578540E+03  0.00000000000E+00 0. -1.
         22    1    1    2    0    0  0.20565342185E+03  0.44384900264E+02 -0.42850639137E+03  0.47736891053E+03  0.00000000000E+00 0.  1.
<mgrwt>
<rscale>  0 0.10052432E+04</rscale>
<asrwt>0</asrwt>
<pdfrwt beam="1">  1        2 0.81122095E-01 0.10052432E+04</pdfrwt>
<pdfrwt beam="2">  1       -2 0.73708303E-01 0.10052432E+04</pdfrwt>
<totfact> 0.95917973E+01</totfact>
</mgrwt>
</event>
<event>
 6    1  0.9562506E-007  0.3325389E+04  0.7818608E-02  0.8156465E-01
          2   -1    0    0  501    0  0.00000000000E+00  0.00000000000E+00  0.32452201631E+04  0.32452201631E+04  0.00000000000E+00 0. -1.
         -2   -1    0    0    0  501 -0.00000000000E+00 -0.00000000000E+00 -0.85188461270E+03  0.85188461270E+03  0.00000000000E+00 0.  1.
         23    2    1    2    0    0 -0.15235220178E+04 -0.16591471201E+03  0.40694846665E+03  0.15882443419E+04  0.90917571706E+02 0.  0.
         11    1    3    3    0    0 -0.31189159893E+03 -0.71034943118E+02  0.83014109762E+02  0.33047492347E+03  0.00000000000E+00 0. -1.
        -11    1    3    3    0    0 -0.12116304188E+04 -0.94879768889E+02  0.32393435689E+03  0.12577694184E+04  0.00000000000E+00 0.  1.
         22    1    1    2    0    0  0.15235220178E+04  0.16591471201E+03  0.19863870838E+04  0.25088604339E+04  0.00000000000E+00 0. -1.
<mgrwt>
<rscale>  0 0.33253891E+04</rscale>
<asrwt>0</asrwt>
<pdfrwt beam="1">  1        2 0.49926463E+00 0.33253891E+04</pdfrwt>
<pdfrwt beam="2">  1       -2 0.13105917E+00 0.33253891E+04</pdfrwt>
<totfact> 0.42900523E-01</totfact>
</mgrwt>
</event>
<event>
 6    1  0.9562506E-007  0.7996329E+03  0.7818608E-02  0.9560549E-01
         -1   -1    0    0    0  501 -0.00000000000E+00  0.00000000000E+00  0.23935693182E+03  0.23935693182E+03  0.00000000000E+00 0.  1.
          1   -1    0    0  501    0  0.00000000000E+00 -0.00000000000E+00 -0.66784440762E+03  0.66784440762E+03  0.00000000000E+00 0. -1.
         23    2    1    2    0    0  0.18506387448E+03 -0.19055733474E+03 -0.54843557148E+03  0.61574245534E+03  0.88297563875E+02 0.  0.
         11    1    3    3    0    0  0.11965493925E+02 -0.64655630648E+02 -0.12114247917E+03  0.13783694671E+03  0.00000000000E+00 0.  1.
        -11    1    3    3    0    0  0.17309838055E+03 -0.12590170409E+03 -0.42729309231E+03  0.47790550863E+03  0.00000000000E+00 0. -1.
         22    1    1    2    0    0 -0.18506387448E+03  0.19055733474E+03  0.11994809569E+03  0.29145888410E+03  0.00000000000E+00 0.  1.
<mgrwt>
<rscale>  0 0.79963289E+03</rscale>
<asrwt>0</asrwt>
<pdfrwt beam="1">  1        1 0.10274529E+00 0.79963289E+03</pdfrwt>
<pdfrwt beam="2">  1       -1 0.36824144E-01 0.79963289E+03</pdfrwt>
<totfact> 0.20925183E+02</totfact>
</mgrwt>
</event>
<event>
 6    1  0.9562506E-007  0.3802842E+04  0.7818608E-02  0.8045545E-01
          1   -1    0    0  501    0  0.00000000000E+00  0.00000000000E+00  0.26552885293E+04  0.26552885293E+04  0.00000000000E+00 0. -1.
         -1   -1    0    0    0  501 -0.00000000000E+00 -0.00000000000E+00 -0.13615850478E+04  0.13615850478E+04  0.00000000000E+00 0.  1.
         23    2    1    2    0    0  0.97645004736E+01  0.15664210694E+04 -0.48919541633E+03  0.16435849743E+04  0.91044494666E+02 0.  0.
         11    1    3    3    0    0  0.62733353757E+01  0.90323450346E+03 -0.23483924905E+03  0.93328527036E+03  0.00000000000E+00 0. -1.
        -11    1    3    3    0    0  0.34911650978E+01  0.66318656599E+03 -0.25435616728E+03  0.71029970391E+03  0.00000000000E+00 0.  1.
         22    1    1    2    0    0 -0.97645004736E+01 -0.15664210694E+04  0.17828988978E+04  0.23732886028E+04  0.00000000000E+00 0. -1.
<mgrwt>
<rscale>  0 0.38028417E+04</rscale>
<asrwt>0</asrwt>
<pdfrwt beam="1">  1        1 0.40850593E+00 0.38028417E+04</pdfrwt>
<pdfrwt beam="2">  1       -1 0.20947462E+00 0.38028417E+04</pdfrwt>
<totfact> 0.10878901E-01</totfact>
</mgrwt>
</event>
<event>
 6    1  0.9562506E-007  0.4291251E+04  0.7818608E-02  0.7948238E-01
          2   -1    0    0  501    0  0.00000000000E+00  0.00000000000E+00  0.17031666635E+04  0.17031666635E+04  0.00000000000E+00 0. -1.
         -2   -1    0    0    0  501 -0.00000000000E+00 -0.00000000000E+00 -0.27030286455E+04  0.27030286455E+04  0.00000000000E+00 0.  1.
         23    2    1    2    0    0 -0.86532036227E+03  0.19586469338E+04 -0.37651059460E+03  0.21760284782E+04  0.90898677583E+02 0.  0.
         11    1    3    3    0    0 -0.17198620478E+03  0.45643849466E+03 -0.11299659467E+03  0.50068311780E+03  0.00000000000E+00 0. -1.
        -11    1    3    3    0    0 -0.69333415749E+03  0.15022084391E+04 -0.26351399993E+03  0.16753453604E+04  0.00000000000E+00 0.  1.
         22    1    1    2    0    0  0.86532036227E+03 -0.19586469338E+04 -0.62335138742E+03  0.22301668307E+04  0.00000000000E+00 0. -1.
<mgrwt>
<rscale>  0 0.42912508E+04</rscale>
<asrwt>0</asrwt>
<pdfrwt beam="1">  1        2 0.26202564E+00 0.42912508E+04</pdfrwt>
<pdfrwt beam="2">  1       -2 0.41585056E+00 0.42912508E+04</pdfrwt>
<totfact> 0.43953511E-02</totfact>
</mgrwt>
</event>
<event>
 6    1  0.9562506E-007  0.8610495E+03  0.7818608E-02  0.9475626E-01
         -1   -1    0    0    0  501 -0.00000000000E+00  0.00000000000E+00  0.41460953524E+03  0.41460953524E+03  0.00000000000E+00 0.  1.
          1   -1    0    0  501    0  0.00000000000E+00 -0.00000000000E+00 -0.44705083676E+03  0.44705083676E+03  0.00000000000E+00 0. -1.
         23    2    1    2    0    0 -0.40844496428E+02 -0.21629897079E+03 -0.38138946843E+03  0.44908511725E+03  0.88124901420E+02 0.  0.
         11    1    3    3    0    0 -0.48647800973E+02 -0.21634406605E+03 -0.33303204365E+03  0.40010211891E+03  0.00000000000E+00 0. -1.
        -11    1    3    3    0    0  0.78033045453E+01  0.45095258398E-01 -0.48357424772E+02  0.48982998336E+02  0.00000000000E+00 0.  1.
         22    1    1    2    0    0  0.40844496428E+02  0.21629897079E+03  0.34894816691E+03  0.41257525476E+03  0.00000000000E+00 0.  1.
<mgrwt>
<rscale>  0 0.86104945E+03</rscale>
<asrwt>0</asrwt>
<pdfrwt beam="1">  1        1 0.68777052E-01 0.86104945E+03</pdfrwt>
<pdfrwt beam="2">  1       -1 0.63786082E-01 0.86104945E+03</pdfrwt>
<totfact> 0.13005889E+02</totfact>
</mgrwt>
</event>
<event>
 6    1  0.9562506E-007  0.1256532E+04  0.7818608E-02  0.9064764E-01
         -1   -1    0    0    0  501 -0.00000000000E+00  0.00000000000E+00  0.64925437303E+03  0.64925437303E+03  0.00000000000E+00 0.  1.
          1   -1    0    0  501    0  0.00000000000E+00 -0.00000000000E+00 -0.60795610472E+03  0.60795610472E+03  0.00000000000E+00 0. -1.
         23    2    1    2    0    0 -0.48597572670E+03  0.39107065324E+03 -0.19088063422E+02  0.63050865723E+03  0.89822880772E+02 0.  0.
         13    1    3    3    0    0 -0.10780125361E+03  0.87705280936E+02 -0.41914654722E+02  0.14515565736E+03  0.00000000000E+00 0. -1.
        -13    1    3    3    0    0 -0.37817447309E+03  0.30336537231E+03  0.22826591300E+02  0.48535299987E+03  0.00000000000E+00 0.  1.
         22    1    1    2    0    0  0.48597572670E+03 -0.39107065324E+03  0.60386331733E+02  0.62670182051E+03  0.00000000000E+00 0. -1.
<mgrwt>
<rscale>  0 0.12565320E+04</rscale>
<asrwt>0</asrwt>
<pdfrwt beam="1">  1        1 0.93531708E-01 0.12565320E+04</pdfrwt>
<pdfrwt beam="2">  1       -1 0.99885288E-01 0.12565320E+04</pdfrwt>
<totfact> 0.31666595E+01</totfact>
</mgrwt>
</event>
<event>
 6    1  0.9562506E-007  0.2480398E+04  0.7818608E-02  0.8410002E-01
          2   -1    0    0  501    0  0.00000000000E+00  0.00000000000E+00  0.17033912060E+04  0.17033912060E+04  0.00000000000E+00 0. -1.
         -2   -1    0    0    0  501 -0.00000000000E+00 -0.00000000000E+00 -0.90295938553E+03  0.90295938553E+03  0.00000000000E+00 0.  1.
         23    2    1    2    0    0  0.22984882359E+03  0.50707485781E+03 -0.76206930232E+03  0.94762663866E+03  0.85388709014E+02 0.  0.
         13    1    3    3    0    0  0.96710970008E+02  0.13955444193E+03 -0.27367811099E+03  0.32206856788E+03  0.00000000000E+00 0.  1.
        -13    1    3    3    0    0  0.13313785358E+03  0.36752041588E+03 -0.48839119133E+03  0.62555807078E+03  0.00000000000E+00 0. -1.
         22    1    1    2    0    0 -0.22984882359E+03 -0.50707485781E+03  0.15625011228E+04  0.16587239529E+04  0.00000000000E+00 0. -1.
<mgrwt>
<rscale>  0 0.24803976E+04</rscale>
<asrwt>0</asrwt>
<pdfrwt beam="1">  1        2 0.26206019E+00 0.24803976E+04</pdfrwt>
<pdfrwt beam="2">  1       -2 0.13891683E+00 0.24803976E+04</pdfrwt>
<totfact> 0.31971860E+00</totfact>
</mgrwt>
</event>
<event>
 6    1  0.9562506E-007  0.1882949E+04  0.7818608E-02  0.8663390E-01
          1   -1    0    0  501    0  0.00000000000E+00  0.00000000000E+00  0.60251472107E+03  0.60251472107E+03  0.00000000000E+00 0. -1.
         -1   -1    0    0    0  501 -0.00000000000E+00 -0.00000000000E+00 -0.14711253264E+04  0.14711253264E+04  0.00000000000E+00 0.  1.
         23    2    1    2    0    0  0.57988991171E+03  0.18464069900E+03 -0.12232037685E+04  0.13692958072E+04  0.91537155050E+02 0.  0.
         11    1    3    3    0    0  0.11728383671E+03  0.62715045816E+02 -0.33523370320E+03  0.36065261830E+03  0.00000000000E+00 0. -1.
        -11    1    3    3    0    0  0.46260607500E+03  0.12192565319E+03 -0.88797006534E+03  0.10086431889E+04  0.00000000000E+00 0.  1.
         22    1    1    2    0    0 -0.57988991171E+03 -0.18464069900E+03  0.35459316322E+03  0.70434424029E+03  0.00000000000E+00 0. -1.
<mgrwt>
<rscale>  0 0.18829495E+04</rscale>
<asrwt>0</asrwt>
<pdfrwt beam="1">  1        1 0.92694574E-01 0.18829495E+04</pdfrwt>
<pdfrwt beam="2">  1       -1 0.22632697E+00 0.18829495E+04</pdfrwt>
<totfact> 0.31843166E+00</totfact>
</mgrwt>
</event>
<event>
 6    1  0.9562506E-007  0.1537007E+04  0.7818608E-02  0.8860210E-01
         -2   -1    0    0    0  501 -0.00000000000E+00  0.00000000000E+00  0.30948631324E+03  0.30948631324E+03  0.00000000000E+00 0.  1.
          2   -1    0    0  501    0  0.00000000000E+00 -0.00000000000E+00 -0.19083157344E+04  0.19083157344E+04  0.00000000000E+00 0. -1.
         23    2    1    2    0    0  0.13710712964E+03 -0.68567231167E+03 -0.35151889538E+03  0.78786203780E+03  0.90643106835E+02 0.  0.
         11    1    3    3    0    0  0.11920743017E+03 -0.57153499094E+03 -0.25407728754E+03  0.63672437155E+03  0.00000000000E+00 0.  1.
        -11    1    3    3    0    0  0.17899699476E+02 -0.11413732073E+03 -0.97441607834E+02  0.15113766626E+03  0.00000000000E+00 0. -1.
         22    1    1    2    0    0 -0.13710712964E+03  0.68567231167E+03 -0.12473105258E+04  0.14299400098E+04  0.00000000000E+00 0.  1.
<mgrwt>
<rscale>  0 0.15370070E+04</rscale>
<asrwt>0</asrwt>
<pdfrwt beam="1">  1        2 0.29358703E+00 0.15370070E+04</pdfrwt>
<pdfrwt beam="2">  1       -2 0.47613280E-01 0.15370070E+04</pdfrwt>
<totfact> 0.30262702E+01</totfact>
</mgrwt>
</event>
<event>
 6    1  0.9562506E-007  0.1882979E+04  0.7818608E-02  0.8663376E-01
          2   -1    0    0  501    0  0.00000000000E+00  0.00000000000E+00  0.26118980618E+04  0.26118980618E+04  0.00000000000E+00 0. -1.
         -2   -1    0    0    0  501 -0.00000000000E+00 -0.00000000000E+00 -0.33937090929E+03  0.33937090929E+03  0.00000000000E+00 0.  1.
         23    2    1    2    0    0 -0.54188492021E+02 -0.81144399691E+03  0.40266702276E+03  0.91221167479E+03  0.92799006511E+02 0.  0.
         11    1    3    3    0    0 -0.69506457683E+02 -0.40494865895E+03  0.22341482772E+03  0.46768445483E+03  0.00000000000E+00 0. -1.
        -11    1    3    3    0    0  0.15317965662E+02 -0.40649533796E+03  0.17925219504E+03  0.44452721996E+03  0.00000000000E+00 0.  1.
         22    1    1    2    0    0  0.54188492021E+02  0.81144399691E+03  0.18698601297E+04  0.20390572963E+04  0.00000000000E+00 0. -1.
<mgrwt>
<rscale>  0 0.18829787E+04</rscale>
<asrwt>0</asrwt>
<pdfrwt beam="1">  1        2 0.40183046E+00 0.18829787E+04</pdfrwt>
<pdfrwt beam="2">  1       -2 0.52210911E-01 0.18829787E+04</pdfrwt>
<totfact> 0.97374046E+00</totfact>
</mgrwt>
</event>
<event>
 6    1  0.9562506E-007  0.9799635E+03  0.7818608E-02  0.9330798E-01
          1   -1    0    0  501    0  0.00000000000E+00  0.00000000000E+00  0.22260898417E+04  0.22260898417E+04  0.00000000000E+00 0. -1.
         -1   -1    0    0    0  501 -0.00000000000E+00 -0.00000000000E+00 -0.10784925219E+03  0.10784925219E+03  0.00000000000E+00 0.  1.
         23    2    1    2    0    0  0.38790277128E+03  0.56021114593E+02  0.38726108014E+03  0.55914417979E+03  0.95205800032E+02 0.  0.
         13    1    3    3    0    0  0.20315050572E+03  0.70996483676E+02  0.24046520426E+03  0.32269822300E+03  0.00000000000E+00 0.  1.
        -13    1    3    3    0    0  0.18475226555E+03 -0.14975369083E+02  0.14679587588E+03  0.23644595679E+03  0.00000000000E+00 0. -1.
         22    1    1    2    0    0 -0.38790277128E+03 -0.56021114593E+02  0.17309795094E+04  0.17747949141E+04  0.00000000000E+00 0.  1.
<mgrwt>
<rscale>  0 0.97996352E+03</rscale>
<asrwt>0</asrwt>
<pdfrwt beam="1">  1        1 0.34247533E+00 0.97996352E+03</pdfrwt>
<pdfrwt beam="2">  1       -1 0.16592194E-01 0.97996352E+03</pdfrwt>
<totfact> 0.59057053E+01</totfact>
</mgrwt>
</event>
<event>
 6    1  0.9562506E-007  0.4439321E+04  0.7818608E-02  0.7921347E-01
          1   -1    0    0  501    0  0.00000000000E+00  0.00000000000E+00  0.43193065971E+04  0.43193065971E+04  0.00000000000E+00 0. -1.
         -1   -1    0    0    0  501 -0.00000000000E+00 -0.00000000000E+00 -0.11406673015E+04  0.11406673015E+04  0.00000000000E+00 0.  1.
         23    2    1    2    0    0  0.41054616497E+03 -0.60427597229E+03 -0.98666055067E+03  0.12310945656E+04  0.91636143935E+02 0.  0.
         11    1    3    3    0    0  0.14721956299E+03 -0.18205789666E+03 -0.38157099185E+03  0.44767745005E+03  0.00000000000E+00 0. -1.
        -11    1    3    3    0    0  0.26332660198E+03 -0.42221807563E+03 -0.60508955882E+03  0.78341711552E+03  0.00000000000E+00 0.  1.
         22    1    1    2    0    0 -0.41054616497E+03  0.60427597229E+03  0.41652998462E+04  0.42288793330E+04  0.00000000000E+00 0. -1.
<mgrwt>
<rscale>  0 0.44393206E+04</rscale>
<asrwt>0</asrwt>
<pdfrwt beam="1">  1        1 0.66450870E+00 0.44393206E+04</pdfrwt>
<pdfrwt beam="2">  1       -1 0.17548728E+00 0.44393206E+04</pdfrwt>
<totfact> 0.82136657E-03</totfact>
</mgrwt>
</event>
<event>
 6    1  0.9562506E-007  0.9706706E+03  0.7818608E-02  0.9341311E-01
          2   -1    0    0  501    0  0.00000000000E+00  0.00000000000E+00  0.39992219707E+03  0.39992219707E+03  0.00000000000E+00 0. -1.
         -2   -1    0    0    0  501 -0.00000000000E+00 -0.00000000000E+00 -0.58899050081E+03  0.58899050081E+03  0.00000000000E+00 0.  1.
         23    2    1    2    0    0 -0.41580897411E+02 -0.23097017184E+03 -0.52318377733E+03  0.58061214558E+03  0.91175695378E+02 0.  0.
         13    1    3    3    0    0 -0.26852830985E+02 -0.11883128551E+03 -0.37438493087E+03  0.39370804591E+03  0.00000000000E+00 0.  1.
        -13    1    3    3    0    0 -0.14728066426E+02 -0.11213888633E+03 -0.14879884646E+03  0.18690409968E+03  0.00000000000E+00 0. -1.
         22    1    1    2    0    0  0.41580897411E+02  0.23097017184E+03  0.33411547359E+03  0.40830055229E+03  0.00000000000E+00 0. -1.
<mgrwt>
<rscale>  0 0.97067064E+03</rscale>
<asrwt>0</asrwt>
<pdfrwt beam="1">  1        2 0.61526493E-01 0.97067064E+03</pdfrwt>
<pdfrwt beam="2">  1       -2 0.90613922E-01 0.97067064E+03</pdfrwt>
<totfact> 0.82778367E+01</totfact>
</mgrwt>
</event>
<event>
 6    1  0.9562506E-007  0.2209795E+04  0.7818608E-02  0.8514362E-01
         -1   -1    0    0    0  501 -0.00000000000E+00  0.00000000000E+00  0.14401600714E+04  0.14401600714E+04  0.00000000000E+00 0.  1.
          1   -1    0    0  501    0  0.00000000000E+00 -0.00000000000E+00 -0.84768262083E+03  0.84768262083E+03  0.00000000000E+00 0. -1.
         23    2    1    2    0    0 -0.77788774035E+03  0.61499314934E+03 -0.20348629653E+03  0.10162750782E+04  0.89902454716E+02 0.  0.
         13    1    3    3    0    0 -0.62170174271E+03  0.53494478705E+03 -0.16513757753E+03  0.83662978765E+03  0.00000000000E+00 0.  1.
        -13    1    3    3    0    0 -0.15618599765E+03  0.80048362294E+02 -0.38348718998E+02  0.17964529055E+03  0.00000000000E+00 0. -1.
         22    1    1    2    0    0  0.77788774035E+03 -0.61499314934E+03  0.79596374709E+03  0.12715676140E+04  0.00000000000E+00 0.  1.
<mgrwt>
<rscale>  0 0.22097952E+04</rscale>
<asrwt>0</asrwt>
<pdfrwt beam="1">  1        1 0.13041271E+00 0.22097952E+04</pdfrwt>
<pdfrwt beam="2">  1       -1 0.22156309E+00 0.22097952E+04</pdfrwt>
<totfact> 0.19686507E+00</totfact>
</mgrwt>
</event>
<event>
 6    1  0.9562506E-007  0.2571277E+04  0.7818608E-02  0.8378024E-01
          3   -1    0    0  501    0  0.00000000000E+00  0.00000000000E+00  0.73781278023E+03  0.73781278023E+03  0.00000000000E+00 0. -1.
         -3   -1    0    0    0  501 -0.00000000000E+00 -0.00000000000E+00 -0.22402251564E+04  0.22402251564E+04  0.00000000000E+00 0.  1.
         23    2    1    2    0    0 -0.18973757323E+03 -0.13010616240E+02 -0.22229078388E+04  0.22328645780E+04  0.90528123928E+02 0.  0.
         11    1    3    3    0    0 -0.11871586079E+03 -0.51639868570E+02 -0.14275914272E+04  0.14334494810E+04  0.00000000000E+00 0. -1.
        -11    1    3    3    0    0 -0.71021712441E+02  0.38629252331E+02 -0.79531641157E+03  0.79941509699E+03  0.00000000000E+00 0.  1.
         22    1    1    2    0    0  0.18973757323E+03  0.13010616240E+02  0.72049546258E+03  0.74517335864E+03  0.00000000000E+00 0. -1.
<mgrwt>
<rscale>  0 0.25712773E+04</rscale>
<asrwt>0</asrwt>
<pdfrwt beam="1">  1        3 0.11350966E+00 0.25712773E+04</pdfrwt>
<pdfrwt beam="2">  1       -3 0.34465002E+00 0.25712773E+04</pdfrwt>
<totfact> 0.32047319E-02</totfact>
</mgrwt>
</event>
<event>
 6    1  0.9562506E-007  0.3401785E+04  0.7818608E-02  0.8137468E-01
         -2   -1    0    0    0  501 -0.00000000000E+00  0.00000000000E+00  0.18624784207E+04  0.18624784207E+04  0.00000000000E+00 0.  1.
          2   -1    0    0  501    0  0.00000000000E+00 -0.00000000000E+00 -0.15533253804E+04  0.15533253804E+04  0.00000000000E+00 0. -1.
         23    2    1    2    0    0 -0.95706531361E+03 -0.98905736096E+03  0.11561733767E+04  0.17997431810E+04  0.90167415988E+02 0.  0.
         13    1    3    3    0    0 -0.75571399276E+03 -0.74963811249E+03  0.85237805615E+03  0.13636749206E+04  0.00000000000E+00 0. -1.
        -13    1    3    3    0    0 -0.20135132085E+03 -0.23941924847E+03  0.30379532050E+03  0.43606826037E+03  0.00000000000E+00 0.  1.
         22    1    1    2    0    0  0.95706531361E+03  0.98905736096E+03 -0.84702033632E+03  0.16160606201E+04  0.00000000000E+00 0. -1.
<mgrwt>
<rscale>  0 0.34017848E+04</rscale>
<asrwt>0</asrwt>
<pdfrwt beam="1">  1        2 0.23897313E+00 0.34017848E+04</pdfrwt>
<pdfrwt beam="2">  1       -2 0.28653514E+00 0.34017848E+04</pdfrwt>
<totfact> 0.37690776E-01</totfact>
</mgrwt>
</event>
<event>
 6    1  0.9562506E-007  0.5320970E+04  0.7818608E-02  0.7780816E-01
          2   -1    0    0  501    0  0.00000000000E+00  0.00000000000E+00  0.47550628323E+04  0.47550628323E+04  0.00000000000E+00 0. -1.
         -2   -1    0    0    0  501 -0.00000000000E+00 -0.00000000000E+00 -0.14885566201E+04  0.14885566201E+04  0.00000000000E+00 0.  1.
         23    2    1    2    0    0  0.15620938090E+04 -0.13828679056E+04 -0.30200923176E+03  0.21100056356E+04  0.91942883315E+02 0.  0.
         13    1    3    3    0    0  0.14024254007E+04 -0.12732989353E+04 -0.28605329225E+03  0.19157018738E+04  0.00000000000E+00 0. -1.
        -13    1    3    3    0    0  0.15966840825E+03 -0.10956897031E+03 -0.15955939511E+02  0.19430376181E+03  0.00000000000E+00 0.  1.
         22    1    1    2    0    0 -0.15620938090E+04  0.13828679056E+04  0.35685154440E+04  0.41336138168E+04  0.00000000000E+00 0. -1.
<mgrwt>
<rscale>  0 0.53209699E+04</rscale>
<asrwt>0</asrwt>
<pdfrwt beam="1">  1        2 0.73154812E+00 0.53209699E+04</pdfrwt>
<pdfrwt beam="2">  1       -2 0.22900871E+00 0.53209699E+04</pdfrwt>
<totfact> 0.40556501E-03</totfact>
</mgrwt>
</event>
<event>
 6    1  0.9562506E-007  0.2655819E+04  0.7818608E-02  0.8349484E-01
          2   -1    0    0  501    0  0.00000000000E+00  0.00000000000E+00  0.11883097065E+04  0.11883097065E+04  0.00000000000E+00 0. -1.
         -2   -1    0    0    0  501 -0.00000000000E+00 -0.00000000000E+00 -0.14839090087E+04  0.14839090087E+04  0.00000000000E+00 0.  1.
         23    2    1    2    0    0 -0.21693769954E+03 -0.13072168296E+04 -0.91149467737E+02  0.13314437378E+04  0.92500792384E+02 0.  0.
         13    1    3    3    0    0 -0.10912986149E+03 -0.91702702249E+03 -0.66089827120E+02  0.92585946660E+03  0.00000000000E+00 0. -1.
        -13    1    3    3    0    0 -0.10780783806E+03 -0.39018980708E+03 -0.25059640617E+02  0.40558427125E+03  0.00000000000E+00 0.  1.
         22    1    1    2    0    0  0.21693769954E+03  0.13072168296E+04 -0.20444983441E+03  0.13407749773E+04  0.00000000000E+00 0.  1.
<mgrwt>
<rscale>  0 0.26558189E+04</rscale>
<asrwt>0</asrwt>
<pdfrwt beam="1">  1        2 0.18281688E+00 0.26558189E+04</pdfrwt>
<pdfrwt beam="2">  1       -2 0.22829369E+00 0.26558189E+04</pdfrwt>
<totfact> 0.14851640E+00</totfact>
</mgrwt>
</event>
<event>
 6    1  0.9562506E-007  0.2584345E+04  0.7818608E-02  0.8373538E-01
         -2   -1    0    0    0  501 -0.00000000000E+00  0.00000000000E+00  0.57561172962E+03  0.57561172962E+03  0.00000000000E+00 0.  1.
          2   -1    0    0  501    0  0.00000000000E+00 -0.00000000000E+00 -0.29007576908E+04  0.29007576908E+04  0.00000000000E+00 0. -1.
         23    2    1    2    0    0  0.13429454832E+03  0.12748689845E+04 -0.96496544380E+03  0.16073009377E+04  0.94509487396E+02 0.  0.
         11    1    3    3    0    0  0.42534932691E+01  0.38297031551E+03 -0.31821212575E+03  0.49793906429E+03  0.00000000000E+00 0. -1.
        -11    1    3    3    0    0  0.13004105505E+03  0.89189866898E+03 -0.64675331804E+03  0.11093618734E+04  0.00000000000E+00 0.  1.
         22    1    1    2    0    0 -0.13429454832E+03 -0.12748689845E+04 -0.13601805173E+04  0.18690684827E+04  0.00000000000E+00 0. -1.
<mgrwt>
<rscale>  0 0.25843453E+04</rscale>
<asrwt>0</asrwt>
<pdfrwt beam="1">  1        2 0.44627041E+00 0.25843453E+04</pdfrwt>
<pdfrwt beam="2">  1       -2 0.88555652E-01 0.25843453E+04</pdfrwt>
<totfact> 0.19496462E+00</totfact>
</mgrwt>
</event>
<event>
 6    1  0.9562506E-007  0.3012411E+04  0.7818608E-02  0.8240196E-01
         -1   -1    0    0    0  501 -0.00000000000E+00  0.00000000000E+00  0.19103754693E+04  0.19103754693E+04  0.00000000000E+00 0.  1.
          1   -1    0    0  501    0  0.00000000000E+00 -0.00000000000E+00 -0.11875443987E+04  0.11875443987E+04  0.00000000000E+00 0. -1.
         23    2    1    2    0    0  0.88069198505E+03  0.90468931722E+03  0.12038084291E+04  0.17468386888E+04  0.90606497605E+02 0.  0.
         13    1    3    3    0    0  0.64519037842E+03  0.60679685363E+03  0.82297884943E+03  0.12090356623E+04  0.00000000000E+00 0. -1.
        -13    1    3    3    0    0  0.23550160663E+03  0.29789246359E+03  0.38082957969E+03  0.53780302654E+03  0.00000000000E+00 0.  1.
         22    1    1    2    0    0 -0.88069198505E+03 -0.90468931722E+03 -0.48097735857E+03  0.13510811792E+04  0.00000000000E+00 0. -1.
<mgrwt>
<rscale>  0 0.30124115E+04</rscale>
<asrwt>0</asrwt>
<pdfrwt beam="1">  1        1 0.18269914E+00 0.30124115E+04</pdfrwt>
<pdfrwt beam="2">  1       -1 0.29390392E+00 0.30124115E+04</pdfrwt>
<totfact> 0.33554391E-01</totfact>
</mgrwt>
</event>
<event>
 6    1  0.9562506E-007  0.2481375E+04  0.7818608E-02  0.8409651E-01
          1   -1    0    0  501    0  0.00000000000E+00  0.00000000000E+00  0.22340306667E+04  0.22340306667E+04  0.00000000000E+00 0. -1.
         -1   -1    0    0    0  501 -0.00000000000E+00 -0.00000000000E+00 -0.68902604997E+03  0.68902604997E+03  0.00000000000E+00 0.  1.
         23    2    1    2    0    0  0.12074161215E+04 -0.16908523529E+03  0.10321211304E+04  0.16003727114E+04  0.97341052769E+02 0.  0.
         11    1    3    3    0    0  0.62361876259E+03 -0.75428023003E+02  0.59334263420E+03  0.86408635522E+03  0.00000000000E+00 0. -1.
        -11    1    3    3    0    0  0.58379735886E+03 -0.93657212286E+02  0.43877849617E+03  0.73628635620E+03  0.00000000000E+00 0.  1.
         22    1    1    2    0    0 -0.12074161215E+04  0.16908523529E+03  0.51288348634E+03  0.13226840052E+04  0.00000000000E+00 0.  1.
<mgrwt>
<rscale>  0 0.24813749E+04</rscale>
<asrwt>0</asrwt>
<pdfrwt beam="1">  1        1 0.34369702E+00 0.24813749E+04</pdfrwt>
<pdfrwt beam="2">  1       -1 0.10600401E+00 0.24813749E+04</pdfrwt>
<totfact> 0.15295920E+00</totfact>
</mgrwt>
</event>
<event>
 6    1  0.9562506E-007  0.1797836E+04  0.7818608E-02  0.8707451E-01
          2   -1    0    0  501    0  0.00000000000E+00  0.00000000000E+00  0.30124122947E+04  0.30124122947E+04  0.00000000000E+00 0. -1.
         -2   -1    0    0    0  501 -0.00000000000E+00 -0.00000000000E+00 -0.26824141835E+03  0.26824141835E+03  0.00000000000E+00 0.  1.
         23    2    1    2    0    0  0.89277115250E+03  0.84430918492E+02  0.13707407599E+04  0.16403856875E+04  0.88125264748E+02 0.  0.
         11    1    3    3    0    0  0.37059606771E+03  0.43248412816E+02  0.64896274756E+03  0.74857499179E+03  0.00000000000E+00 0. -1.
        -11    1    3    3    0    0  0.52217508479E+03  0.41182505677E+02  0.72177801235E+03  0.89181069575E+03  0.00000000000E+00 0.  1.
         22    1    1    2    0    0 -0.89277115250E+03 -0.84430918492E+02  0.13734301164E+04  0.16402680255E+04  0.00000000000E+00 0.  1.
<mgrwt>
<rscale>  0 0.17978362E+04</rscale>
<asrwt>0</asrwt>
<pdfrwt beam="1">  1        2 0.46344802E+00 0.17978362E+04</pdfrwt>
<pdfrwt beam="2">  1       -2 0.41267913E-01 0.17978362E+04</pdfrwt>
<totfact> 0.90177736E+00</totfact>
</mgrwt>
</event>
<event>
 6    1  0.9562506E-007  0.1770215E+04  0.7818608E-02  0.8722301E-01
          2   -1    0    0  501    0  0.00000000000E+00  0.00000000000E+00  0.45357340076E+04  0.45357340076E+04  0.00000000000E+00 0. -1.
         -2   -1    0    0    0  501 -0.00000000000E+00 -0.00000000000E+00 -0.17272071398E+03  0.17272071398E+03  0.00000000000E+00 0.  1.
         23    2    1    2    0    0 -0.76970170363E+02  0.71126735426E+03  0.35631415018E+04  0.36353188775E+04  0.87979107368E+02 0.  0.
         11    1    3    3    0    0 -0.65501161968E+02  0.32691458136E+03  0.14940153184E+04  0.15307662517E+04  0.00000000000E+00 0. -1.
        -11    1    3    3    0    0 -0.11469008395E+02  0.38435277290E+03  0.20691261834E+04  0.21045526259E+04  0.00000000000E+00 0.  1.
         22    1    1    2    0    0  0.76970170363E+02 -0.71126735426E+03  0.79987179181E+03  0.10731358440E+04  0.00000000000E+00 0.  1.
<mgrwt>
<rscale>  0 0.17702149E+04</rscale>
<asrwt>0</asrwt>
<pdfrwt beam="1">  1        2 0.69780514E+00 0.17702149E+04</pdfrwt>
<pdfrwt beam="2">  1       -2 0.26572421E-01 0.17702149E+04</pdfrwt>
<totfact> 0.14123803E+00</totfact>
</mgrwt>
</event>
<event>
 6    1  0.9562506E-007  0.2310649E+04  0.7818608E-02  0.8473734E-01
         -2   -1    0    0    0  501 -0.00000000000E+00  0.00000000000E+00  0.10664676462E+04  0.10664676462E+04  0.00000000000E+00 0.  1.
          2   -1    0    0  501    0  0.00000000000E+00 -0.00000000000E+00 -0.12515846855E+04  0.12515846855E+04  0.00000000000E+00 0. -1.
         23    2    1    2    0    0  0.98631933798E+03  0.49165745572E+03  0.24892933449E+03  0.11335907895E+04  0.92246269296E+02 0.  0.
         13    1    3    3    0    0  0.39916462628E+03  0.20161569853E+03  0.54798730615E+02  0.45053766728E+03  0.00000000000E+00 0. -1.
        -13    1    3    3    0    0  0.58715471170E+03  0.29004175719E+03  0.19413060387E+03  0.68305312220E+03  0.00000000000E+00 0.  1.
         22    1    1    2    0    0 -0.98631933798E+03 -0.49165745572E+03 -0.43404637380E+03  0.11844615422E+04  0.00000000000E+00 0. -1.
<mgrwt>
<rscale>  0 0.23106489E+04</rscale>
<asrwt>0</asrwt>
<pdfrwt beam="1">  1        2 0.19255149E+00 0.23106489E+04</pdfrwt>
<pdfrwt beam="2">  1       -2 0.16407195E+00 0.23106489E+04</pdfrwt>
<totfact> 0.37596039E+00</totfact>
</mgrwt>
</event>
<event>
 6    1  0.9562506E-007  0.4779226E+04  0.7818608E-02  0.7863496E-01
          2   -1    0    0  501    0  0.00000000000E+00  0.00000000000E+00  0.22597141995E+04  0.22597141995E+04  0.00000000000E+00 0. -1.
         -2   -1    0    0    0  501 -0.00000000000E+00 -0.00000000000E+00 -0.25269794768E+04  0.25269794768E+04  0.00000000000E+00 0.  1.
         23    2    1    2    0    0  0.52771732200E+03 -0.13565948605E+04 -0.20309469929E+04  0.24999037031E+04  0.77056143238E+02 0.  0.
         11    1    3    3    0    0  0.17943861913E+03 -0.39230506696E+03 -0.64448740297E+03  0.77554206603E+03  0.00000000000E+00 0.  1.
        -11    1    3    3    0    0  0.34827870286E+03 -0.96428979356E+03 -0.13864595899E+04  0.17243616370E+04  0.00000000000E+00 0. -1.
         22    1    1    2    0    0 -0.52771732200E+03  0.13565948605E+04  0.17636817156E+04  0.22867899732E+04  0.00000000000E+00 0. -1.
<mgrwt>
<rscale>  0 0.47792265E+04</rscale>
<asrwt>0</asrwt>
<pdfrwt beam="1">  1        2 0.34764834E+00 0.47792265E+04</pdfrwt>
<pdfrwt beam="2">  1       -2 0.38876607E+00 0.47792265E+04</pdfrwt>
<totfact> 0.31112593E-02</totfact>
</mgrwt>
</event>
<event>
 6    1  0.9562506E-007  0.1964852E+04  0.7818608E-02  0.8623232E-01
          1   -1    0    0  501    0  0.00000000000E+00  0.00000000000E+00  0.87708846999E+03  0.87708846999E+03  0.00000000000E+00 0. -1.
         -1   -1    0    0    0  501 -0.00000000000E+00 -0.00000000000E+00 -0.11004141154E+04  0.11004141154E+04  0.00000000000E+00 0.  1.
         23    2    1    2    0    0  0.94161629675E+02  0.81119892069E+03  0.43382121630E+03  0.92928881937E+03  0.92015002422E+02 0.  0.
         11    1    3    3    0    0 -0.17843991376E+02  0.10607522380E+03  0.65148370439E+02  0.12575639667E+03  0.00000000000E+00 0. -1.
        -11    1    3    3    0    0  0.11200562105E+03  0.70512369689E+03  0.36867284586E+03  0.80353242270E+03  0.00000000000E+00 0.  1.
         22    1    1    2    0    0 -0.94161629675E+02 -0.81119892069E+03 -0.65714686171E+03  0.10482137660E+04  0.00000000000E+00 0.  1.
<mgrwt>
<rscale>  0 0.19648517E+04</rscale>
<asrwt>0</asrwt>
<pdfrwt beam="1">  1        1 0.13493669E+00 0.19648517E+04</pdfrwt>
<pdfrwt beam="2">  1       -1 0.16929448E+00 0.19648517E+04</pdfrwt>
<totfact> 0.44041783E+00</totfact>
</mgrwt>
</event>
<event>
 6    1  0.9562506E-007  0.1190388E+04  0.7818608E-02  0.9121312E-01
          2   -1    0    0  501    0  0.00000000000E+00  0.00000000000E+00  0.11841305915E+04  0.11841305915E+04  0.00000000000E+00 0. -1.
         -2   -1    0    0    0  501 -0.00000000000E+00 -0.00000000000E+00 -0.29916967060E+03  0.29916967060E+03  0.00000000000E+00 0.  1.
         23    2    1    2    0    0  0.38165668235E+02 -0.56191070004E+03  0.21876493594E+03  0.61093718205E+03  0.90475909256E+02 0.  0.
         13    1    3    3    0    0  0.17983030054E+02 -0.37332563101E+03  0.18942448651E+03  0.41901915497E+03  0.00000000000E+00 0.  1.
        -13    1    3    3    0    0  0.20182638181E+02 -0.18858506903E+03  0.29340449433E+02  0.19191802708E+03  0.00000000000E+00 0. -1.
         22    1    1    2    0    0 -0.38165668235E+02  0.56191070004E+03  0.66619598492E+03  0.87236308002E+03  0.00000000000E+00 0. -1.
<mgrwt>
<rscale>  0 0.11903881E+04</rscale>
<asrwt>0</asrwt>
<pdfrwt beam="1">  1        2 0.18217393E+00 0.11903881E+04</pdfrwt>
<pdfrwt beam="2">  1       -2 0.46026104E-01 0.11903881E+04</pdfrwt>
<totfact> 0.85525270E+01</totfact>
</mgrwt>
</event>
<event>
 6    1  0.9562506E-007  0.1063800E+04  0.7818608E-02  0.9241211E-01
         -2   -1    0    0    0  501 -0.00000000000E+00  0.00000000000E+00  0.74066329049E+03  0.74066329049E+03  0.00000000000E+00 0.  1.
          2   -1    0    0  501    0  0.00000000000E+00 -0.00000000000E+00 -0.38197881996E+03  0.38197881996E+03  0.00000000000E+00 0. -1.
         23    2    1    2    0    0 -0.22786316383E+03 -0.10050640618E+03  0.67202386107E+03  0.72238627629E+03  0.90568776089E+02 0.  0.
         13    1    3    3    0    0 -0.20698164927E+03 -0.57163211225E+02  0.58134757672E+03  0.61973707394E+03  0.00000000000E+00 0. -1.
        -13    1    3    3    0    0 -0.20881514561E+02 -0.43343194955E+02  0.90676284349E+02  0.10264920235E+03  0.00000000000E+00 0.  1.
         22    1    1    2    0    0  0.22786316383E+03  0.10050640618E+03 -0.31333939055E+03  0.40025583417E+03  0.00000000000E+00 0. -1.
<mgrwt>
<rscale>  0 0.10638001E+04</rscale>
<asrwt>0</asrwt>
<pdfrwt beam="1">  1        2 0.58765973E-01 0.10638001E+04</pdfrwt>
<pdfrwt beam="2">  1       -2 0.11394820E+00 0.10638001E+04</pdfrwt>
<totfact> 0.50246268E+01</totfact>
</mgrwt>
</event>
<event>
 6    1  0.9562506E-007  0.1609289E+04  0.7818608E-02  0.8814862E-01
          2   -1    0    0  501    0  0.00000000000E+00  0.00000000000E+00  0.21086123472E+04  0.21086123472E+04  0.00000000000E+00 0. -1.
         -2   -1    0    0    0  501 -0.00000000000E+00 -0.00000000000E+00 -0.30705148455E+03  0.30705148455E+03  0.00000000000E+00 0.  1.
         23    2    1    2    0    0 -0.57955108796E+03 -0.25387662876E+03  0.16398937742E+03  0.66010888376E+03  0.92295267079E+02 0.  0.
         11    1    3    3    0    0 -0.26540212864E+03 -0.67163096448E+02  0.62087476475E+02  0.28072054813E+03  0.00000000000E+00 0. -1.
        -11    1    3    3    0    0 -0.31414895932E+03 -0.18671353232E+03  0.10190190094E+03  0.37938833563E+03  0.00000000000E+00 0.  1.
         22    1    1    2    0    0  0.57955108796E+03  0.25387662876E+03  0.16375714852E+04  0.17555549480E+04  0.00000000000E+00 0. -1.
<mgrwt>
<rscale>  0 0.16092887E+04</rscale>
<asrwt>0</asrwt>
<pdfrwt beam="1">  1        2 0.32440189E+00 0.16092887E+04</pdfrwt>
<pdfrwt beam="2">  1       -2 0.47238691E-01 0.16092887E+04</pdfrwt>
<totfact> 0.23662157E+01</totfact>
</mgrwt>
</event>
<event>
 6    1  0.9562506E-007  0.3178838E+04  0.7818608E-02  0.8194429E-01
         -2   -1    0    0    0  501 -0.00000000000E+00  0.00000000000E+00  0.95348545614E+03  0.95348545614E+03  0.00000000000E+00 0.  1.
          2   -1    0    0  501    0  0.00000000000E+00 -0.00000000000E+00 -0.26494920222E+04  0.26494920222E+04  0.00000000000E+00 0. -1.
         23    2    1    2    0    0  0.13215646895E+04  0.80042540725E+03 -0.12637751677E+04  0.19985965875E+04  0.10023264952E+03 0.  0.
         13    1    3    3    0    0  0.11217669995E+04  0.63631168064E+03 -0.10451658334E+04  0.16600076432E+04  0.00000000000E+00 0. -1.
        -13    1    3    3    0    0  0.19979769005E+03  0.16411372661E+03 -0.21860933428E+03  0.33858894436E+03  0.00000000000E+00 0.  1.
         22    1    1    2    0    0 -0.13215646895E+04 -0.80042540725E+03 -0.43223139836E+03  0.16043808908E+04  0.00000000000E+00 0.  1.
<mgrwt>
<rscale>  0 0.31788376E+04</rscale>
<asrwt>0</asrwt>
<pdfrwt beam="1">  1        2 0.40761415E+00 0.31788376E+04</pdfrwt>
<pdfrwt beam="2">  1       -2 0.14669007E+00 0.31788376E+04</pdfrwt>
<totfact> 0.76261522E-01</totfact>
</mgrwt>
</event>
<event>
 6    1  0.9562506E-007  0.2474843E+04  0.7818608E-02  0.8412003E-01
         -2   -1    0    0    0  501 -0.00000000000E+00  0.00000000000E+00  0.60494079275E+03  0.60494079275E+03  0.00000000000E+00 0.  1.
          2   -1    0    0  501    0  0.00000000000E+00 -0.00000000000E+00 -0.25311757941E+04  0.25311757941E+04  0.00000000000E+00 0. -1.
         23    2    1    2    0    0 -0.11571896032E+04  0.30089076011E+03 -0.56830048905E+03  0.13268047931E+04  0.88444818594E+02 0.  0.
         13    1    3    3    0    0 -0.79501742860E+03  0.18541539041E+03 -0.34786598813E+03  0.88737947040E+03  0.00000000000E+00 0. -1.
        -13    1    3    3    0    0 -0.36217217457E+03  0.11547536970E+03 -0.22043450092E+03  0.43942532271E+03  0.00000000000E+00 0.  1.
         22    1    1    2    0    0  0.11571896032E+04 -0.30089076011E+03 -0.13579345123E+04  0.18093117937E+04  0.00000000000E+00 0. -1.
<mgrwt>
<rscale>  0 0.24748426E+04</rscale>
<asrwt>0</asrwt>
<pdfrwt beam="1">  1        2 0.38941166E+00 0.24748426E+04</pdfrwt>
<pdfrwt beam="2">  1       -2 0.93067815E-01 0.24748426E+04</pdfrwt>
<totfact> 0.29172871E+00</totfact>
</mgrwt>
</event>
<event>
 6    1  0.9562506E-007  0.1180664E+04  0.7818608E-02  0.9129952E-01
          2   -1    0    0  501    0  0.00000000000E+00  0.00000000000E+00  0.82492219266E+03  0.82492219266E+03  0.00000000000E+00 0. -1.
         -2   -1    0    0    0  501 -0.00000000000E+00 -0.00000000000E+00 -0.42245427193E+03  0.42245427193E+03  0.00000000000E+00 0.  1.
         23    2    1    2    0    0 -0.46313275337E+03 -0.15047942065E+03 -0.14357553516E+03  0.51573484535E+03  0.90733087298E+02 0.  0.
         13    1    3    3    0    0 -0.13366036407E+03 -0.40337378983E+02  0.58513307859E+00  0.13961568482E+03  0.00000000000E+00 0.  1.
        -13    1    3    3    0    0 -0.32947238929E+03 -0.11014204166E+03 -0.14416066824E+03  0.37611916052E+03  0.00000000000E+00 0. -1.
         22    1    1    2    0    0  0.46313275337E+03  0.15047942065E+03  0.54604345589E+03  0.73164161924E+03  0.00000000000E+00 0. -1.
<mgrwt>
<rscale>  0 0.11806641E+04</rscale>
<asrwt>0</asrwt>
<pdfrwt beam="1">  1        2 0.12691111E+00 0.11806641E+04</pdfrwt>
<pdfrwt beam="2">  1       -2 0.64992965E-01 0.11806641E+04</pdfrwt>
<totfact> 0.71343915E+01</totfact>
</mgrwt>
</event>
<event>
 6    1  0.9562506E-007  0.1585743E+04  0.7818608E-02  0.8829355E-01
          1   -1    0    0  501    0  0.00000000000E+00  0.00000000000E+00  0.26171534965E+03  0.26171534965E+03  0.00000000000E+00 0. -1.
         -1   -1    0    0    0  501 -0.00000000000E+00 -0.00000000000E+00 -0.24020202856E+04  0.24020202856E+04  0.00000000000E+00 0.  1.
         23    2    1    2    0    0  0.77486038139E+03  0.13674444178E+02 -0.13331773919E+04  0.15447850227E+04  0.91669006881E+02 0.  0.
         11    1    3    3    0    0  0.50154358729E+03 -0.96987038572E+01 -0.78102358379E+03  0.92824451157E+03  0.00000000000E+00 0.  1.
        -11    1    3    3    0    0  0.27331679410E+03  0.23373148035E+02 -0.55215380815E+03  0.61654051111E+03  0.00000000000E+00 0. -1.
         22    1    1    2    0    0 -0.77486038139E+03 -0.13674444178E+02 -0.80712754398E+03  0.11189506125E+04  0.00000000000E+00 0. -1.
<mgrwt>
<rscale>  0 0.15857435E+04</rscale>
<asrwt>0</asrwt>
<pdfrwt beam="1">  1        1 0.40263901E-01 0.15857435E+04</pdfrwt>
<pdfrwt beam="2">  1       -1 0.36954157E+00 0.15857435E+04</pdfrwt>
<totfact> 0.11637636E+00</totfact>
</mgrwt>
</event>
<event>
 6    1  0.9562506E-007  0.1764209E+04  0.7818608E-02  0.8725568E-01
          2   -1    0    0  501    0  0.00000000000E+00  0.00000000000E+00  0.87209053742E+03  0.87209053742E+03  0.00000000000E+00 0. -1.
         -2   -1    0    0    0  501 -0.00000000000E+00 -0.00000000000E+00 -0.89223296786E+03  0.89223296786E+03  0.00000000000E+00 0.  1.
         23    2    1    2    0    0 -0.67484908233E+01  0.83030528044E+03 -0.30093700118E+03  0.88779741222E+03  0.90381223826E+02 0.  0.
         13    1    3    3    0    0  0.39927700112E+02  0.49551995375E+03 -0.18544312654E+03  0.53058778631E+03  0.00000000000E+00 0. -1.
        -13    1    3    3    0    0 -0.46676190936E+02  0.33478532668E+03 -0.11549387464E+03  0.35720962591E+03  0.00000000000E+00 0.  1.
         22    1    1    2    0    0  0.67484908233E+01 -0.83030528044E+03  0.28079457074E+03  0.87652609306E+03  0.00000000000E+00 0. -1.
<mgrwt>
<rscale>  0 0.17642085E+04</rscale>
<asrwt>0</asrwt>
<pdfrwt beam="1">  1        2 0.13416778E+00 0.17642085E+04</pdfrwt>
<pdfrwt beam="2">  1       -2 0.13726661E+00 0.17642085E+04</pdfrwt>
<totfact> 0.10962640E+01</totfact>
</mgrwt>
</event>
<event>
 6    1  0.9562506E-007  0.1734186E+04  0.7818608E-02  0.8742104E-01
          1   -1    0    0  501    0  0.00000000000E+00  0.00000000000E+00  0.22064054272E+04  0.22064054272E+04  0.00000000000E+00 0. -1.
         -1   -1    0    0    0  501 -0.00000000000E+00 -0.00000000000E+00 -0.34075787149E+03  0.34075787149E+03  0.00000000000E+00 0.  1.
         23    2    1    2    0    0 -0.59616395208E+03 -0.82821157980E+02  0.18475939122E+04  0.19450032403E+04  0.84637687282E+02 0.  0.
         11    1    3    3    0    0 -0.27571137530E+02  0.11953954182E+02  0.12325478616E+03  0.12686531030E+03  0.00000000000E+00 0. -1.
        -11    1    3    3    0    0 -0.56859281455E+03 -0.94775112162E+02  0.17243391261E+04  0.18181379300E+04  0.00000000000E+00 0.  1.
         22    1    1    2    0    0  0.59616395208E+03  0.82821157980E+02  0.18053643511E+02  0.60216005846E+03  0.00000000000E+00 0.  1.
<mgrwt>
<rscale>  0 0.17341857E+04</rscale>
<asrwt>0</asrwt>
<pdfrwt beam="1">  1        1 0.33944698E+00 0.17341857E+04</pdfrwt>
<pdfrwt beam="2">  1       -1 0.52424289E-01 0.17341857E+04</pdfrwt>
<totfact> 0.75063474E+00</totfact>
</mgrwt>
</event>
<event>
 6    1  0.1187996E-006  0.2583014E+04  0.7818608E-02  0.8373994E-01
         -1   -1    0    0    0  501 -0.00000000000E+00  0.00000000000E+00  0.11762971593E+04  0.11762971593E+04  0.00000000000E+00 0.  1.
          1   -1    0    0  501    0  0.00000000000E+00 -0.00000000000E+00 -0.14180004117E+04  0.14180004117E+04  0.00000000000E+00 0. -1.
         23    2    1    2    0    0  0.63341219507E+03  0.69580991975E+03  0.76519603233E+03  0.12161797883E+04  0.90586181385E+02 0.  0.
         11    1    3    3    0    0  0.25737803918E+03  0.25646434795E+03  0.34791644119E+03  0.50305394032E+03  0.00000000000E+00 0.  1.
        -11    1    3    3    0    0  0.37603415589E+03  0.43934557180E+03  0.41727959114E+03  0.71312584796E+03  0.00000000000E+00 0. -1.
         22    1    1    2    0    0 -0.63341219507E+03 -0.69580991975E+03 -0.10068992847E+04  0.13781177827E+04  0.00000000000E+00 0. -1.
<mgrwt>
<rscale>  0 0.25830136E+04</rscale>
<asrwt>0</asrwt>
<pdfrwt beam="1">  1        1 0.21815391E+00 0.25830136E+04</pdfrwt>
<pdfrwt beam="2">  1       -1 0.18096879E+00 0.25830136E+04</pdfrwt>
<totfact> 0.13481283E+00</totfact>
</mgrwt>
</event>
<event>
 6    1  0.1146926E-006  0.2502378E+04  0.7818608E-02  0.8402139E-01
          2   -1    0    0  501    0  0.00000000000E+00  0.00000000000E+00  0.20521430864E+04  0.20521430864E+04  0.00000000000E+00 0. -1.
         -2   -1    0    0    0  501 -0.00000000000E+00 -0.00000000000E+00 -0.76284862218E+03  0.76284862218E+03  0.00000000000E+00 0.  1.
         23    2    1    2    0    0  0.25119987022E+03  0.58470294335E+01  0.20224634782E+04  0.20399611507E+04  0.89148266019E+02 0.  0.
         13    1    3    3    0    0  0.65008735315E+02  0.40992024760E+02  0.54205729947E+03  0.54747839927E+03  0.00000000000E+00 0.  1.
        -13    1    3    3    0    0  0.18619113491E+03 -0.35144995327E+02  0.14804061787E+04  0.14924827514E+04  0.00000000000E+00 0. -1.
         22    1    1    2    0    0 -0.25119987022E+03 -0.58470294335E+01 -0.73316901397E+03  0.77503055785E+03  0.00000000000E+00 0.  1.
<mgrwt>
<rscale>  0 0.25023785E+04</rscale>
<asrwt>0</asrwt>
<pdfrwt beam="1">  1        2 0.31571432E+00 0.25023785E+04</pdfrwt>
<pdfrwt beam="2">  1       -2 0.11736133E+00 0.25023785E+04</pdfrwt>
<totfact> 0.31259871E+00</totfact>
</mgrwt>
</event>
<event>
 6    1  0.9562506E-007  0.2571678E+04  0.7818608E-02  0.8377886E-01
          1   -1    0    0  501    0  0.00000000000E+00  0.00000000000E+00  0.14693124436E+04  0.14693124436E+04  0.00000000000E+00 0. -1.
         -1   -1    0    0    0  501 -0.00000000000E+00 -0.00000000000E+00 -0.11252757981E+04  0.11252757981E+04  0.00000000000E+00 0.  1.
         23    2    1    2    0    0 -0.10011640497E+04  0.69199428331E+03  0.58574572822E+03  0.13537784967E+04  0.91829283821E+02 0.  0.
         11    1    3    3    0    0 -0.34985205839E+03  0.18993383421E+03  0.18493538684E+03  0.43894466786E+03  0.00000000000E+00 0. -1.
        -11    1    3    3    0    0 -0.65131199135E+03  0.50206044911E+03  0.40081034138E+03  0.91483382884E+03  0.00000000000E+00 0.  1.
         22    1    1    2    0    0  0.10011640497E+04 -0.69199428331E+03 -0.24170908274E+03  0.12408097450E+04  0.00000000000E+00 0.  1.
<mgrwt>
<rscale>  0 0.25716778E+04</rscale>
<asrwt>0</asrwt>
<pdfrwt beam="1">  1        1 0.22604807E+00 0.25716778E+04</pdfrwt>
<pdfrwt beam="2">  1       -1 0.17311935E+00 0.25716778E+04</pdfrwt>
<totfact> 0.14162848E+00</totfact>
</mgrwt>
</event>
<event>
 6    1  0.9562506E-007  0.1768807E+04  0.7818608E-02  0.8723065E-01
          2   -1    0    0  501    0  0.00000000000E+00  0.00000000000E+00  0.59424960963E+03  0.59424960963E+03  0.00000000000E+00 0. -1.
         -2   -1    0    0    0  501 -0.00000000000E+00 -0.00000000000E+00 -0.13162311765E+04  0.13162311765E+04  0.00000000000E+00 0.  1.
         23    2    1    2    0    0 -0.35474239534E+03 -0.72792597516E+02 -0.12310025307E+04  0.12857862440E+04  0.82085963480E+02 0.  0.
         11    1    3    3    0    0 -0.14733229612E+03  0.75681795420E+01 -0.54563858528E+03  0.56523052692E+03  0.00000000000E+00 0.  1.
        -11    1    3    3    0    0 -0.20741009922E+03 -0.80360777058E+02 -0.68536394545E+03  0.72055571712E+03  0.00000000000E+00 0. -1.
         22    1    1    2    0    0  0.35474239534E+03  0.72792597516E+02  0.50902096385E+03  0.62469454211E+03  0.00000000000E+00 0. -1.
<mgrwt>
<rscale>  0 0.17688074E+04</rscale>
<asrwt>0</asrwt>
<pdfrwt beam="1">  1        2 0.91423019E-01 0.17688074E+04</pdfrwt>
<pdfrwt beam="2">  1       -2 0.20249710E+00 0.17688074E+04</pdfrwt>
<totfact> 0.60773390E+00</totfact>
</mgrwt>
</event>
<event>
 6    1  0.9562506E-007  0.2960251E+04  0.7818608E-02  0.8255173E-01
          2   -1    0    0  501    0  0.00000000000E+00  0.00000000000E+00  0.99849534965E+03  0.99849534965E+03  0.00000000000E+00 0. -1.
         -2   -1    0    0    0  501 -0.00000000000E+00 -0.00000000000E+00 -0.21940734270E+04  0.21940734270E+04  0.00000000000E+00 0.  1.
         23    2    1    2    0    0  0.37151944393E+03 -0.11994968568E+04 -0.14405312438E+04  0.19131855423E+04  0.91264715006E+02 0.  0.
         11    1    3    3    0    0  0.39241758555E+02 -0.14073722253E+03 -0.12626713363E+03  0.19310688868E+03  0.00000000000E+00 0. -1.
        -11    1    3    3    0    0  0.33227768537E+03 -0.10587596342E+04 -0.13142641102E+04  0.17200786536E+04  0.00000000000E+00 0.  1.
         22    1    1    2    0    0 -0.37151944393E+03  0.11994968568E+04  0.24495316644E+03  0.12793832344E+04  0.00000000000E+00 0.  1.
<mgrwt>
<rscale>  0 0.29602514E+04</rscale>
<asrwt>0</asrwt>
<pdfrwt beam="1">  1        2 0.15361467E+00 0.29602514E+04</pdfrwt>
<pdfrwt beam="2">  1       -2 0.33754976E+00 0.29602514E+04</pdfrwt>
<totfact> 0.40377170E-01</totfact>
</mgrwt>
</event>
<event>
 6    1  0.9562506E-007  0.2001528E+04  0.7818608E-02  0.8605906E-01
          2   -1    0    0  501    0  0.00000000000E+00  0.00000000000E+00  0.17598161294E+04  0.17598161294E+04  0.00000000000E+00 0. -1.
         -2   -1    0    0    0  501 -0.00000000000E+00 -0.00000000000E+00 -0.56910998306E+03  0.56910998306E+03  0.00000000000E+00 0.  1.
         23    2    1    2    0    0  0.49647671098E+03  0.78143924610E+03  0.10323871651E+04  0.13896703860E+04  0.90686841598E+02 0.  0.
         13    1    3    3    0    0  0.25144797862E+03  0.46200572525E+03  0.54342213689E+03  0.75629557382E+03  0.00000000000E+00 0.  1.
        -13    1    3    3    0    0  0.24502873236E+03  0.31943352085E+03  0.48896502818E+03  0.63337481218E+03  0.00000000000E+00 0. -1.
         22    1    1    2    0    0 -0.49647671098E+03 -0.78143924610E+03  0.15831898130E+03  0.93925572648E+03  0.00000000000E+00 0. -1.
<mgrwt>
<rscale>  0 0.20015283E+04</rscale>
<asrwt>0</asrwt>
<pdfrwt beam="1">  1        2 0.27074094E+00 0.20015283E+04</pdfrwt>
<pdfrwt beam="2">  1       -2 0.87555383E-01 0.20015283E+04</pdfrwt>
<totfact> 0.95011045E+00</totfact>
</mgrwt>
</event>
<event>
 6    1  0.9562506E-007  0.3623135E+04  0.7818608E-02  0.8085213E-01
         -2   -1    0    0    0  501 -0.00000000000E+00  0.00000000000E+00  0.98701013082E+03  0.98701013082E+03  0.00000000000E+00 0.  1.
          2   -1    0    0  501    0  0.00000000000E+00 -0.00000000000E+00 -0.33249676319E+04  0.33249676319E+04  0.00000000000E+00 0. -1.
         23    2    1    2    0    0  0.12340670081E+04 -0.76431694740E+03 -0.24572528469E+04  0.28554980492E+04  0.93143861999E+02 0.  0.
         11    1    3    3    0    0  0.18476950049E+03 -0.15021248952E+03 -0.37148866645E+03  0.44125660292E+03  0.00000000000E+00 0. -1.
        -11    1    3    3    0    0  0.10492975076E+04 -0.61410445787E+03 -0.20857641804E+04  0.24142414463E+04  0.00000000000E+00 0.  1.
         22    1    1    2    0    0 -0.12340670081E+04  0.76431694740E+03  0.11929534577E+03  0.14564797135E+04  0.00000000000E+00 0.  1.
<mgrwt>
<rscale>  0 0.36231350E+04</rscale>
<asrwt>0</asrwt>
<pdfrwt beam="1">  1        2 0.51153349E+00 0.36231350E+04</pdfrwt>
<pdfrwt beam="2">  1       -2 0.15184771E+00 0.36231350E+04</pdfrwt>
<totfact> 0.25253899E-01</totfact>
</mgrwt>
</event>
<event>
 6    1  0.9562506E-007  0.1070685E+04  0.7818608E-02  0.9234244E-01
          1   -1    0    0  501    0  0.00000000000E+00  0.00000000000E+00  0.10744625661E+04  0.10744625661E+04  0.00000000000E+00 0. -1.
         -1   -1    0    0    0  501 -0.00000000000E+00 -0.00000000000E+00 -0.26673041236E+03  0.26673041236E+03  0.00000000000E+00 0.  1.
         23    2    1    2    0    0  0.36408718697E+03 -0.38972674798E+02 -0.75602188039E+02  0.38497234050E+03  0.91704214844E+02 0.  0.
         13    1    3    3    0    0  0.10612940046E+03  0.29494953552E+02 -0.30523145921E+02  0.11430251250E+03  0.00000000000E+00 0. -1.
        -13    1    3    3    0    0  0.25795778651E+03 -0.68467628350E+02 -0.45079042118E+02  0.27066982800E+03  0.00000000000E+00 0.  1.
         22    1    1    2    0    0 -0.36408718697E+03  0.38972674798E+02  0.88333434182E+03  0.95622063800E+03  0.00000000000E+00 0. -1.
<mgrwt>
<rscale>  0 0.10706855E+04</rscale>
<asrwt>0</asrwt>
<pdfrwt beam="1">  1        1 0.16530193E+00 0.10706855E+04</pdfrwt>
<pdfrwt beam="2">  1       -1 0.41035448E-01 0.10706855E+04</pdfrwt>
<totfact> 0.76852914E+01</totfact>
</mgrwt>
</event>
<event>
 6    1  0.9562506E-007  0.1934257E+04  0.7818608E-02  0.8637990E-01
          1   -1    0    0  501    0  0.00000000000E+00  0.00000000000E+00  0.35729347971E+04  0.35729347971E+04  0.00000000000E+00 0. -1.
         -1   -1    0    0    0  501 -0.00000000000E+00 -0.00000000000E+00 -0.26178421858E+03  0.26178421858E+03  0.00000000000E+00 0.  1.
         23    2    1    2    0    0  0.10782161406E+03  0.91483967958E+03  0.10886968438E+04  0.14289223196E+04  0.89448521671E+02 0.  0.
         13    1    3    3    0    0  0.60338634375E+01  0.42357007525E+03  0.48409562440E+03  0.64327023071E+03  0.00000000000E+00 0. -1.
        -13    1    3    3    0    0  0.10178775062E+03  0.49126960433E+03  0.60460121939E+03  0.78565208890E+03  0.00000000000E+00 0.  1.
         22    1    1    2    0    0 -0.10782161406E+03 -0.91483967958E+03  0.22224537347E+04  0.24057966960E+04  0.00000000000E+00 0. -1.
<mgrwt>
<rscale>  0 0.19342574E+04</rscale>
<asrwt>0</asrwt>
<pdfrwt beam="1">  1        1 0.54968224E+00 0.19342574E+04</pdfrwt>
<pdfrwt beam="2">  1       -1 0.40274498E-01 0.19342574E+04</pdfrwt>
<totfact> 0.12339587E+00</totfact>
</mgrwt>
</event>
<event>
 6    1  0.9562506E-007  0.1808022E+04  0.7818608E-02  0.8702045E-01
         -2   -1    0    0    0  501 -0.00000000000E+00  0.00000000000E+00  0.63543251958E+03  0.63543251958E+03  0.00000000000E+00 0.  1.
          2   -1    0    0  501    0  0.00000000000E+00 -0.00000000000E+00 -0.12861090142E+04  0.12861090142E+04  0.00000000000E+00 0. -1.
         23    2    1    2    0    0  0.48626452270E+03 -0.61480674240E+03  0.14704920688E+03  0.80314678622E+03  0.94766947994E+02 0.  0.
         11    1    3    3    0    0  0.17375705342E+03 -0.28374570521E+03  0.87290487394E+02  0.34398076694E+03  0.00000000000E+00 0.  1.
        -11    1    3    3    0    0  0.31250746928E+03 -0.33106103719E+03  0.59758719482E+02  0.45916601928E+03  0.00000000000E+00 0. -1.
         22    1    1    2    0    0 -0.48626452270E+03  0.61480674240E+03 -0.79772570152E+03  0.11183947476E+04  0.00000000000E+00 0. -1.
<mgrwt>
<rscale>  0 0.18080216E+04</rscale>
<asrwt>0</asrwt>
<pdfrwt beam="1">  1        2 0.19786293E+00 0.18080216E+04</pdfrwt>
<pdfrwt beam="2">  1       -2 0.97758849E-01 0.18080216E+04</pdfrwt>
<totfact> 0.13850485E+01</totfact>
</mgrwt>
</event>
<event>
 6    1  0.9562506E-007  0.2004437E+04  0.7818608E-02  0.8604549E-01
         -1   -1    0    0    0  501 -0.00000000000E+00  0.00000000000E+00  0.68877568184E+03  0.68877568184E+03  0.00000000000E+00 0.  1.
          1   -1    0    0  501    0  0.00000000000E+00 -0.00000000000E+00 -0.14583002829E+04  0.14583002829E+04  0.00000000000E+00 0. -1.
         23    2    1    2    0    0 -0.10723708242E+03 -0.99184247289E+03 -0.46072026558E+03  0.11027525472E+04  0.92459365873E+02 0.  0.
         13    1    3    3    0    0 -0.79728559560E+02 -0.43365052317E+03 -0.16778086398E+03  0.47176248026E+03  0.00000000000E+00 0.  1.
        -13    1    3    3    0    0 -0.27508522860E+02 -0.55819194972E+03 -0.29293940160E+03  0.63099006693E+03  0.00000000000E+00 0. -1.
         22    1    1    2    0    0  0.10723708242E+03  0.99184247289E+03 -0.30880433551E+03  0.10443234176E+04  0.00000000000E+00 0. -1.
<mgrwt>
<rscale>  0 0.20044369E+04</rscale>
<asrwt>0</asrwt>
<pdfrwt beam="1">  1        1 0.22435389E+00 0.20044369E+04</pdfrwt>
<pdfrwt beam="2">  1       -1 0.10596549E+00 0.20044369E+04</pdfrwt>
<totfact> 0.54042586E+00</totfact>
</mgrwt>
</event>
<event>
 6    1  0.9562506E-007  0.1465092E+04  0.7818608E-02  0.8908004E-01
          2   -1    0    0  501    0  0.00000000000E+00  0.00000000000E+00  0.45861178889E+03  0.45861178889E+03  0.00000000000E+00 0. -1.
         -2   -1    0    0    0  501 -0.00000000000E+00 -0.00000000000E+00 -0.11701038740E+04  0.11701038740E+04  0.00000000000E+00 0.  1.
         23    2    1    2    0    0 -0.65428076267E+03  0.24713575136E+03 -0.12552398316E+03  0.71629141262E+03  0.90320105397E+02 0.  0.
         13    1    3    3    0    0 -0.41152049201E+03  0.13549805915E+03 -0.37092653358E+02  0.43483871069E+03  0.00000000000E+00 0. -1.
        -13    1    3    3    0    0 -0.24276027066E+03  0.11163769221E+03 -0.88431329807E+02  0.28145270193E+03  0.00000000000E+00 0.  1.
         22    1    1    2    0    0  0.65428076267E+03 -0.24713575136E+03 -0.58596810194E+03  0.91242425028E+03  0.00000000000E+00 0.  1.
<mgrwt>
<rscale>  0 0.14650917E+04</rscale>
<asrwt>0</asrwt>
<pdfrwt beam="1">  1        2 0.70555661E-01 0.14650917E+04</pdfrwt>
<pdfrwt beam="2">  1       -2 0.18001598E+00 0.14650917E+04</pdfrwt>
<totfact> 0.11936847E+01</totfact>
</mgrwt>
</event>
<event>
 6    1  0.9562506E-007  0.1014712E+04  0.7818608E-02  0.9292555E-01
          1   -1    0    0  501    0  0.00000000000E+00  0.00000000000E+00  0.37126194465E+03  0.37126194465E+03  0.00000000000E+00 0. -1.
         -1   -1    0    0    0  501 -0.00000000000E+00 -0.00000000000E+00 -0.69333771965E+03  0.69333771965E+03  0.00000000000E+00 0.  1.
         23    2    1    2    0    0 -0.34351679553E+02  0.45791918108E+03  0.53720933586E+02  0.47122526271E+03  0.91089490188E+02 0.  0.
         11    1    3    3    0    0  0.26260859141E+02  0.67649239227E+02  0.17296742195E+02  0.74600466362E+02  0.00000000000E+00 0.  1.
        -11    1    3    3    0    0 -0.60612538694E+02  0.39026994185E+03  0.36424191392E+02  0.39662479634E+03  0.00000000000E+00 0. -1.
         22    1    1    2    0    0  0.34351679553E+02 -0.45791918108E+03 -0.37579670858E+03  0.59337440159E+03  0.00000000000E+00 0.  1.
<mgrwt>
<rscale>  0 0.10147116E+04</rscale>
<asrwt>0</asrwt>
<pdfrwt beam="1">  1        1 0.57117223E-01 0.10147116E+04</pdfrwt>
<pdfrwt beam="2">  1       -1 0.10666734E+00 0.10147116E+04</pdfrwt>
<totfact> 0.54486046E+01</totfact>
</mgrwt>
</event>
<event>
 6    1  0.9562506E-007  0.1964818E+04  0.7818608E-02  0.8623248E-01
          2   -1    0    0  501    0  0.00000000000E+00  0.00000000000E+00  0.14781866638E+04  0.14781866638E+04  0.00000000000E+00 0. -1.
         -2   -1    0    0    0  501 -0.00000000000E+00 -0.00000000000E+00 -0.65291318115E+03  0.65291318115E+03  0.00000000000E+00 0.  1.
         23    2    1    2    0    0 -0.83083129075E+03 -0.41638985215E+03  0.75201191800E+03  0.11988829177E+04  0.90206334638E+02 0.  0.
         13    1    3    3    0    0 -0.56342375702E+03 -0.25014336996E+03  0.45672647860E+03  0.76721386313E+03  0.00000000000E+00 0.  1.
        -13    1    3    3    0    0 -0.26740753372E+03 -0.16624648218E+03  0.29528543939E+03  0.43166905454E+03  0.00000000000E+00 0. -1.
         22    1    1    2    0    0  0.83083129075E+03  0.41638985215E+03  0.73261564653E+02  0.93221692728E+03  0.00000000000E+00 0.  1.
<mgrwt>
<rscale>  0 0.19648181E+04</rscale>
<asrwt>0</asrwt>
<pdfrwt beam="1">  1        2 0.22741333E+00 0.19648181E+04</pdfrwt>
<pdfrwt beam="2">  1       -2 0.10044818E+00 0.19648181E+04</pdfrwt>
<totfact> 0.99457087E+00</totfact>
</mgrwt>
</event>
<event>
 6    1  0.9562506E-007  0.1424230E+04  0.7818608E-02  0.8936464E-01
         -1   -1    0    0    0  501 -0.00000000000E+00  0.00000000000E+00  0.25375360613E+03  0.25375360613E+03  0.00000000000E+00 0.  1.
          1   -1    0    0  501    0  0.00000000000E+00 -0.00000000000E+00 -0.19984245906E+04  0.19984245906E+04  0.00000000000E+00 0. -1.
         23    2    1    2    0    0 -0.28797576056E+03  0.52121461839E+03 -0.14851410135E+04  0.16026010089E+04  0.89952469828E+02 0.  0.
         11    1    3    3    0    0 -0.11396745480E+03  0.29243390796E+03 -0.73035650336E+03  0.79493823237E+03  0.00000000000E+00 0.  1.
        -11    1    3    3    0    0 -0.17400830575E+03  0.22878071043E+03 -0.75478451009E+03  0.80766277654E+03  0.00000000000E+00 0. -1.
         22    1    1    2    0    0  0.28797576056E+03 -0.52121461839E+03 -0.25952997104E+03  0.64957718784E+03  0.00000000000E+00 0.  1.
<mgrwt>
<rscale>  0 0.14242295E+04</rscale>
<asrwt>0</asrwt>
<pdfrwt beam="1">  1        1 0.30744994E+00 0.14242295E+04</pdfrwt>
<pdfrwt beam="2">  1       -1 0.39039016E-01 0.14242295E+04</pdfrwt>
<totfact> 0.18529406E+01</totfact>
</mgrwt>
</event>
<event>
 6    1  0.9562506E-007  0.3326105E+04  0.7818608E-02  0.8156285E-01
         -2   -1    0    0    0  501 -0.00000000000E+00  0.00000000000E+00  0.10779307654E+04  0.10779307654E+04  0.00000000000E+00 0.  1.
          2   -1    0    0  501    0  0.00000000000E+00 -0.00000000000E+00 -0.25657896234E+04  0.25657896234E+04  0.00000000000E+00 0. -1.
         23    2    1    2    0    0 -0.63881859015E+03  0.13834250357E+04 -0.18136965749E+02  0.15266383259E+04  0.91332404266E+02 0.  0.
         11    1    3    3    0    0 -0.19029015601E+03  0.48767148359E+03 -0.35834800162E+02  0.52470749212E+03  0.00000000000E+00 0. -1.
        -11    1    3    3    0    0 -0.44852843414E+03  0.89575355210E+03  0.17697834414E+02  0.10019308338E+04  0.00000000000E+00 0.  1.
         22    1    1    2    0    0  0.63881859015E+03 -0.13834250357E+04 -0.14697218923E+04  0.21170820629E+04  0.00000000000E+00 0. -1.
<mgrwt>
<rscale>  0 0.33261050E+04</rscale>
<asrwt>0</asrwt>
<pdfrwt beam="1">  1        2 0.39473687E+00 0.33261050E+04</pdfrwt>
<pdfrwt beam="2">  1       -2 0.16583550E+00 0.33261050E+04</pdfrwt>
<totfact> 0.60632226E-01</totfact>
</mgrwt>
</event>
<event>
 6    1  0.9562506E-007  0.1992677E+04  0.7818608E-02  0.8610052E-01
         -2   -1    0    0    0  501 -0.00000000000E+00  0.00000000000E+00  0.81082492186E+03  0.81082492186E+03  0.00000000000E+00 0.  1.
          2   -1    0    0  501    0  0.00000000000E+00 -0.00000000000E+00 -0.12242971551E+04  0.12242971551E+04  0.00000000000E+00 0. -1.
         23    2    1    2    0    0 -0.85680640795E+03  0.62875112769E+02  0.30412573249E+03  0.91573950566E+03  0.89531450035E+02 0.  0.
         13    1    3    3    0    0 -0.42730354424E+03 -0.12723081584E+02  0.15948865548E+03  0.45627494666E+03  0.00000000000E+00 0.  1.
        -13    1    3    3    0    0 -0.42950286371E+03  0.75598194353E+02  0.14463707701E+03  0.45946455899E+03  0.00000000000E+00 0. -1.
         22    1    1    2    0    0  0.85680640795E+03 -0.62875112769E+02 -0.71759796571E+03  0.11193825713E+04  0.00000000000E+00 0. -1.
<mgrwt>
<rscale>  0 0.19926772E+04</rscale>
<asrwt>0</asrwt>
<pdfrwt beam="1">  1        2 0.18835341E+00 0.19926772E+04</pdfrwt>
<pdfrwt beam="2">  1       -2 0.12474230E+00 0.19926772E+04</pdfrwt>
<totfact> 0.82091229E+00</totfact>
</mgrwt>
</event>
<event>
 6    1  0.9562506E-007  0.3448019E+04  0.7818608E-02  0.8126220E-01
          1   -1    0    0  501    0  0.00000000000E+00  0.00000000000E+00  0.22030659035E+04  0.22030659035E+04  0.00000000000E+00 0. -1.
         -1   -1    0    0    0  501 -0.00000000000E+00 -0.00000000000E+00 -0.13491240303E+04  0.13491240303E+04  0.00000000000E+00 0.  1.
         23    2    1    2    0    0 -0.53550828967E+03 -0.11711546945E+04 -0.75168999904E+03  0.14939318946E+04  0.91772567495E+02 0.  0.
         11    1    3    3    0    0 -0.32894629187E+03 -0.61566673749E+03 -0.42408569411E+03  0.81676181995E+03  0.00000000000E+00 0. -1.
        -11    1    3    3    0    0 -0.20656199780E+03 -0.55548795704E+03 -0.32760430493E+03  0.67717007462E+03  0.00000000000E+00 0.  1.
         22    1    1    2    0    0  0.53550828967E+03  0.11711546945E+04  0.16056318722E+04  0.20582580392E+04  0.00000000000E+00 0. -1.
<mgrwt>
<rscale>  0 0.34480192E+04</rscale>
<asrwt>0</asrwt>
<pdfrwt beam="1">  1        1 0.33893322E+00 0.34480192E+04</pdfrwt>
<pdfrwt beam="2">  1       -1 0.20755754E+00 0.34480192E+04</pdfrwt>
<totfact> 0.23729783E-01</totfact>
</mgrwt>
</event>
<event>
 6    1  0.9562506E-007  0.2025262E+04  0.7818608E-02  0.8594900E-01
          1   -1    0    0  501    0  0.00000000000E+00  0.00000000000E+00  0.13212987426E+04  0.13212987426E+04  0.00000000000E+00 0. -1.
         -1   -1    0    0    0  501 -0.00000000000E+00 -0.00000000000E+00 -0.77607104836E+03  0.77607104836E+03  0.00000000000E+00 0.  1.
         23    2    1    2    0    0 -0.66916242798E+03 -0.64779668095E+03 -0.13315391473E+03  0.94514563643E+03  0.90285182529E+02 0.  0.
         11    1    3    3    0    0 -0.18981567049E+03 -0.18146552898E+03  0.32309936926E+01  0.26262171710E+03  0.00000000000E+00 0.  1.
        -11    1    3    3    0    0 -0.47934675749E+03 -0.46633115198E+03 -0.13638490842E+03  0.68252391933E+03  0.00000000000E+00 0. -1.
         22    1    1    2    0    0  0.66916242798E+03  0.64779668095E+03  0.67838160893E+03  0.11522241545E+04  0.00000000000E+00 0. -1.
<mgrwt>
<rscale>  0 0.20252622E+04</rscale>
<asrwt>0</asrwt>
<pdfrwt beam="1">  1        1 0.20327673E+00 0.20252622E+04</pdfrwt>
<pdfrwt beam="2">  1       -1 0.11939555E+00 0.20252622E+04</pdfrwt>
<totfact> 0.50677643E+00</totfact>
</mgrwt>
</event>
<event>
 6    1  0.9562506E-007  0.1489695E+04  0.7818608E-02  0.8891335E-01
          1   -1    0    0  501    0  0.00000000000E+00  0.00000000000E+00  0.81532959285E+03  0.81532959285E+03  0.00000000000E+00 0. -1.
         -1   -1    0    0    0  501 -0.00000000000E+00 -0.00000000000E+00 -0.68045829384E+03  0.68045829384E+03  0.00000000000E+00 0.  1.
         23    2    1    2    0    0  0.60859200462E+03  0.17633889646E+03  0.45574070333E+03  0.78555073677E+03  0.88942323330E+02 0.  0.
         13    1    3    3    0    0  0.35893603115E+03  0.89062267087E+02  0.21417481187E+03  0.42736168747E+03  0.00000000000E+00 0.  1.
        -13    1    3    3    0    0  0.24965597347E+03  0.87276629378E+02  0.24156589146E+03  0.35818904930E+03  0.00000000000E+00 0. -1.
         22    1    1    2    0    0 -0.60859200462E+03 -0.17633889646E+03 -0.32086940432E+03  0.71023714992E+03  0.00000000000E+00 0.  1.
<mgrwt>
<rscale>  0 0.14896950E+04</rscale>
<asrwt>0</asrwt>
<pdfrwt beam="1">  1        1 0.12543532E+00 0.14896950E+04</pdfrwt>
<pdfrwt beam="2">  1       -1 0.10468589E+00 0.14896950E+04</pdfrwt>
<totfact> 0.17803641E+01</totfact>
</mgrwt>
</event>
<event>
 6    1  0.9562506E-007  0.2540579E+04  0.7818608E-02  0.8388670E-01
          1   -1    0    0  501    0  0.00000000000E+00  0.00000000000E+00  0.69681310081E+03  0.69681310081E+03  0.00000000000E+00 0. -1.
         -1   -1    0    0    0  501 -0.00000000000E+00 -0.00000000000E+00 -0.23157355772E+04  0.23157355772E+04  0.00000000000E+00 0.  1.
         23    2    1    2    0    0 -0.82933854021E+03  0.95845335903E+03 -0.74713968947E+03  0.14742247579E+04  0.93196917478E+02 0.  0.
         11    1    3    3    0    0 -0.74995096175E+03  0.88551913417E+03 -0.70900352904E+03  0.13598737391E+04  0.00000000000E+00 0.  1.
        -11    1    3    3    0    0 -0.79387578459E+02  0.72934224856E+02 -0.38136160433E+02  0.11435101880E+03  0.00000000000E+00 0. -1.
         22    1    1    2    0    0  0.82933854021E+03 -0.95845335903E+03 -0.87178278692E+03  0.15383239201E+04  0.00000000000E+00 0.  1.
<mgrwt>
<rscale>  0 0.25405786E+04</rscale>
<asrwt>0</asrwt>
<pdfrwt beam="1">  1        1 0.10720202E+00 0.25405786E+04</pdfrwt>
<pdfrwt beam="2">  1       -1 0.35626701E+00 0.25405786E+04</pdfrwt>
<totfact> 0.34293692E-01</totfact>
</mgrwt>
</event>
<event>
 6    1  0.9562506E-007  0.1844904E+04  0.7818608E-02  0.8682778E-01
         -2   -1    0    0    0  501 -0.00000000000E+00  0.00000000000E+00  0.33380818051E+03  0.33380818051E+03  0.00000000000E+00 0.  1.
          2   -1    0    0  501    0  0.00000000000E+00 -0.00000000000E+00 -0.25491207264E+04  0.25491207264E+04  0.00000000000E+00 0. -1.
         23    2    1    2    0    0 -0.37593676622E+03  0.44063732721E+03  0.68906262390E+01  0.58648020413E+03  0.91770598650E+02 0.  0.
         13    1    3    3    0    0 -0.19393364715E+03  0.28033263801E+03  0.33366390060E+02  0.34250542100E+03  0.00000000000E+00 0.  1.
        -13    1    3    3    0    0 -0.18200311907E+03  0.16030468920E+03 -0.26475763821E+02  0.24397478312E+03  0.00000000000E+00 0. -1.
         22    1    1    2    0    0  0.37593676622E+03 -0.44063732721E+03 -0.22222031722E+04  0.22964487028E+04  0.00000000000E+00 0. -1.
<mgrwt>
<rscale>  0 0.18449036E+04</rscale>
<asrwt>0</asrwt>
<pdfrwt beam="1">  1        2 0.39217242E+00 0.18449036E+04</pdfrwt>
<pdfrwt beam="2">  1       -2 0.51355105E-01 0.18449036E+04</pdfrwt>
<totfact> 0.10997143E+01</totfact>
</mgrwt>
</event>
<event>
 6    1  0.9562506E-007  0.2306470E+04  0.7818608E-02  0.8475374E-01
         -2   -1    0    0    0  501 -0.00000000000E+00  0.00000000000E+00  0.59597274786E+03  0.59597274786E+03  0.00000000000E+00 0.  1.
          2   -1    0    0  501    0  0.00000000000E+00 -0.00000000000E+00 -0.22315642663E+04  0.22315642663E+04  0.00000000000E+00 0. -1.
         23    2    1    2    0    0 -0.11095813450E+04  0.16271833952E+03 -0.11382954499E+04  0.16007724080E+04  0.95434541793E+02 0.  0.
         11    1    3    3    0    0 -0.40710079578E+03  0.97967217922E+02 -0.38682699905E+03  0.57005592787E+03  0.00000000000E+00 0. -1.
        -11    1    3    3    0    0 -0.70248054921E+03  0.64751121598E+02 -0.75146845083E+03  0.10307164801E+04  0.00000000000E+00 0.  1.
         22    1    1    2    0    0  0.11095813450E+04 -0.16271833952E+03 -0.49729606856E+03  0.12267646062E+04  0.00000000000E+00 0.  1.
<mgrwt>
<rscale>  0 0.23064705E+04</rscale>
<asrwt>0</asrwt>
<pdfrwt beam="1">  1        2 0.34331757E+00 0.23064705E+04</pdfrwt>
<pdfrwt beam="2">  1       -2 0.91688116E-01 0.23064705E+04</pdfrwt>
<totfact> 0.45460182E+00</totfact>
</mgrwt>
</event>
<event>
 6    1  0.9562506E-007  0.1652728E+04  0.7818608E-02  0.8788794E-01
          1   -1    0    0  501    0  0.00000000000E+00  0.00000000000E+00  0.27781760770E+04  0.27781760770E+04  0.00000000000E+00 0. -1.
         -1   -1    0    0    0  501 -0.00000000000E+00 -0.00000000000E+00 -0.24580052996E+03  0.24580052996E+03  0.00000000000E+00 0.  1.
         23    2    1    2    0    0 -0.48245998399E+03 -0.63248392797E+03  0.16620527514E+04  0.18448814777E+04  0.91459078061E+02 0.  0.
         11    1    3    3    0    0 -0.30167240114E+03 -0.34287834974E+03  0.10242263476E+04  0.11214327494E+04  0.00000000000E+00 0. -1.
        -11    1    3    3    0    0 -0.18078758285E+03 -0.28960557822E+03  0.63782640385E+03  0.72344872831E+03  0.00000000000E+00 0.  1.
         22    1    1    2    0    0  0.48245998399E+03  0.63248392797E+03  0.87032279567E+03  0.11790951293E+04  0.00000000000E+00 0. -1.
<mgrwt>
<rscale>  0 0.16527276E+04</rscale>
<asrwt>0</asrwt>
<pdfrwt beam="1">  1        1 0.42741168E+00 0.16527276E+04</pdfrwt>
<pdfrwt beam="2">  1       -1 0.37815468E-01 0.16527276E+04</pdfrwt>
<totfact> 0.55859268E+00</totfact>
</mgrwt>
</event>
<event>
 6    1  0.9562506E-007  0.2466753E+04  0.7818608E-02  0.8414927E-01
         -1   -1    0    0    0  501 -0.00000000000E+00  0.00000000000E+00  0.84452968313E+03  0.84452968313E+03  0.00000000000E+00 0.  1.
          1   -1    0    0  501    0  0.00000000000E+00 -0.00000000000E+00 -0.18012600480E+04  0.18012600480E+04  0.00000000000E+00 0. -1.
         23    2    1    2    0    0 -0.45357896016E+03 -0.11014370950E+04 -0.14286258381E+03  0.12031261140E+04  0.90582454151E+02 0.  0.
         13    1    3    3    0    0 -0.33632518855E+02 -0.14426440958E+03  0.23062822286E+00  0.14813311374E+03  0.00000000000E+00 0. -1.
        -13    1    3    3    0    0 -0.41994644130E+03 -0.95717268538E+03 -0.14309321204E+03  0.10549930002E+04  0.00000000000E+00 0.  1.
         22    1    1    2    0    0  0.45357896016E+03  0.11014370950E+04 -0.81386778105E+03  0.14426636172E+04  0.00000000000E+00 0. -1.
<mgrwt>
<rscale>  0 0.24667530E+04</rscale>
<asrwt>0</asrwt>
<pdfrwt beam="1">  1        1 0.27711693E+00 0.24667530E+04</pdfrwt>
<pdfrwt beam="2">  1       -1 0.12992764E+00 0.24667530E+04</pdfrwt>
<totfact> 0.18396443E+00</totfact>
</mgrwt>
</event>
<event>
 6    1  0.9562506E-007  0.1582090E+04  0.7818608E-02  0.8831627E-01
          2   -1    0    0  501    0  0.00000000000E+00  0.00000000000E+00  0.42001531777E+03  0.42001531777E+03  0.00000000000E+00 0. -1.
         -2   -1    0    0    0  501 -0.00000000000E+00 -0.00000000000E+00 -0.14898311419E+04  0.14898311419E+04  0.00000000000E+00 0.  1.
         23    2    1    2    0    0  0.38100446905E+03 -0.48728555605E+03 -0.11272941559E+04  0.12886255833E+04  0.84570452280E+02 0.  0.
         11    1    3    3    0    0  0.34150276006E+03 -0.46007149803E+03 -0.99885570035E+03  0.11515218750E+04  0.00000000000E+00 0. -1.
        -11    1    3    3    0    0  0.39501708981E+02 -0.27214058022E+02 -0.12843845560E+03  0.13710370835E+03  0.00000000000E+00 0.  1.
         22    1    1    2    0    0 -0.38100446905E+03  0.48728555605E+03  0.57478331819E+02  0.62122087634E+03  0.00000000000E+00 0. -1.
<mgrwt>
<rscale>  0 0.15820896E+04</rscale>
<asrwt>0</asrwt>
<pdfrwt beam="1">  1        2 0.64617740E-01 0.15820896E+04</pdfrwt>
<pdfrwt beam="2">  1       -2 0.22920479E+00 0.15820896E+04</pdfrwt>
<totfact> 0.62457558E+00</totfact>
</mgrwt>
</event>
<event>
 6    1  0.9562506E-007  0.1367276E+04  0.7818608E-02  0.8977853E-01
         -2   -1    0    0    0  501 -0.00000000000E+00  0.00000000000E+00  0.35435589348E+03  0.35435589348E+03  0.00000000000E+00 0.  1.
          2   -1    0    0  501    0  0.00000000000E+00 -0.00000000000E+00 -0.13189020189E+04  0.13189020189E+04  0.00000000000E+00 0. -1.
         23    2    1    2    0    0 -0.16532338686E+03  0.31796766322E+03 -0.11925064770E+04  0.12485213129E+04  0.91096178931E+02 0.  0.
         13    1    3    3    0    0 -0.40401883450E+02  0.24734084221E+02 -0.22262526385E+03  0.22760952356E+03  0.00000000000E+00 0.  1.
        -13    1    3    3    0    0 -0.12492150341E+03  0.29323357900E+03 -0.96988121318E+03  0.10209117893E+04  0.00000000000E+00 0. -1.
         22    1    1    2    0    0  0.16532338686E+03 -0.31796766322E+03  0.22796035159E+03  0.42473659955E+03  0.00000000000E+00 0.  1.
<mgrwt>
<rscale>  0 0.13672757E+04</rscale>
<asrwt>0</asrwt>
<pdfrwt beam="1">  1        2 0.20290800E+00 0.13672757E+04</pdfrwt>
<pdfrwt beam="2">  1       -2 0.54516292E-01 0.13672757E+04</pdfrwt>
<totfact> 0.49783711E+01</totfact>
</mgrwt>
</event>
<event>
 6    1  0.9562506E-007  0.2383131E+04  0.7818608E-02  0.8445846E-01
         -1   -1    0    0    0  501 -0.00000000000E+00  0.00000000000E+00  0.10989934218E+04  0.10989934218E+04  0.00000000000E+00 0.  1.
          1   -1    0    0  501    0  0.00000000000E+00 -0.00000000000E+00 -0.12919354999E+04  0.12919354999E+04  0.00000000000E+00 0. -1.
         23    2    1    2    0    0  0.12303209278E+03  0.85872961690E+03  0.72096000845E+03  0.11308612749E+04  0.80687288182E+02 0.  0.
         13    1    3    3    0    0  0.63553825092E+02  0.57203842068E+03  0.43357033514E+03  0.72059022955E+03  0.00000000000E+00 0.  1.
        -13    1    3    3    0    0  0.59478267688E+02  0.28669119622E+03  0.28738967331E+03  0.41027104534E+03  0.00000000000E+00 0. -1.
         22    1    1    2    0    0 -0.12303209278E+03 -0.85872961690E+03 -0.91390208655E+03  0.12600676468E+04  0.00000000000E+00 0. -1.
<mgrwt>
<rscale>  0 0.23831312E+04</rscale>
<asrwt>0</asrwt>
<pdfrwt beam="1">  1        1 0.19875931E+00 0.23831312E+04</pdfrwt>
<pdfrwt beam="2">  1       -1 0.16907591E+00 0.23831312E+04</pdfrwt>
<totfact> 0.20563658E+00</totfact>
</mgrwt>
</event>
<event>
 6    1  0.9562506E-007  0.1401794E+04  0.7818608E-02  0.8952521E-01
          1   -1    0    0  501    0  0.00000000000E+00  0.00000000000E+00  0.72325652194E+03  0.72325652194E+03  0.00000000000E+00 0. -1.
         -1   -1    0    0    0  501 -0.00000000000E+00 -0.00000000000E+00 -0.67922907804E+03  0.67922907804E+03  0.00000000000E+00 0.  1.
         23    2    1    2    0    0 -0.45976127496E+03  0.81473293933E+02  0.54105950917E+03  0.72053310787E+03  0.91674639327E+02 0.  0.
         13    1    3    3    0    0 -0.40622491430E+03  0.78575706554E+02  0.42740818830E+03  0.59487022289E+03  0.00000000000E+00 0. -1.
        -13    1    3    3    0    0 -0.53536360662E+02  0.28975873795E+01  0.11365132087E+03  0.12566288498E+03  0.00000000000E+00 0.  1.
         22    1    1    2    0    0  0.45976127496E+03 -0.81473293933E+02 -0.49703206528E+03  0.68195249211E+03  0.00000000000E+00 0.  1.
<mgrwt>
<rscale>  0 0.14017944E+04</rscale>
<asrwt>0</asrwt>
<pdfrwt beam="1">  1        1 0.11127023E+00 0.14017944E+04</pdfrwt>
<pdfrwt beam="2">  1       -1 0.10449678E+00 0.14017944E+04</pdfrwt>
<totfact> 0.21759765E+01</totfact>
</mgrwt>
</event>
<event>
 6    1  0.9562506E-007  0.4532526E+04  0.7818608E-02  0.7904967E-01
          2   -1    0    0  501    0  0.00000000000E+00  0.00000000000E+00  0.28030914797E+04  0.28030914797E+04  0.00000000000E+00 0. -1.
         -2   -1    0    0    0  501 -0.00000000000E+00 -0.00000000000E+00 -0.18322440504E+04  0.18322440504E+04  0.00000000000E+00 0.  1.
         23    2    1    2    0    0  0.57429382178E+03 -0.16143543368E+03  0.27205603462E+04  0.27867225136E+04  0.92189898238E+02 0.  0.
         13    1    3    3    0    0  0.25668699985E+03 -0.35512219250E+02  0.10413758297E+04  0.10731323089E+04  0.00000000000E+00 0. -1.
        -13    1    3    3    0    0  0.31760682193E+03 -0.12592321443E+03  0.16791845165E+04  0.17135902047E+04  0.00000000000E+00 0.  1.
         22    1    1    2    0    0 -0.57429382178E+03  0.16143543368E+03 -0.17497129169E+04  0.18486130165E+04  0.00000000000E+00 0.  1.
<mgrwt>
<rscale>  0 0.45325259E+04</rscale>
<asrwt>0</asrwt>
<pdfrwt beam="1">  1        2 0.43124484E+00 0.45325259E+04</pdfrwt>
<pdfrwt beam="2">  1       -2 0.28188370E+00 0.45325259E+04</pdfrwt>
<totfact> 0.71347575E-02</totfact>
</mgrwt>
</event>
<event>
 6    1  0.9562506E-007  0.3352135E+04  0.7818608E-02  0.8149755E-01
         -1   -1    0    0    0  501 -0.00000000000E+00  0.00000000000E+00  0.12753794026E+04  0.12753794026E+04  0.00000000000E+00 0.  1.
          1   -1    0    0  501    0  0.00000000000E+00 -0.00000000000E+00 -0.22026409309E+04  0.22026409309E+04  0.00000000000E+00 0. -1.
         23    2    1    2    0    0  0.73967264784E+03 -0.14241142859E+04 -0.96133733759E+03  0.18729102793E+04  0.91685945834E+02 0.  0.
         11    1    3    3    0    0  0.33733909312E+03 -0.74031277712E+03 -0.50845663073E+03  0.95936896815E+03  0.00000000000E+00 0. -1.
        -11    1    3    3    0    0  0.40233355471E+03 -0.68380150874E+03 -0.45288070686E+03  0.91354131119E+03  0.00000000000E+00 0.  1.
         22    1    1    2    0    0 -0.73967264784E+03  0.14241142859E+04  0.34075809305E+02  0.16051100542E+04  0.00000000000E+00 0. -1.
<mgrwt>
<rscale>  0 0.33521354E+04</rscale>
<asrwt>0</asrwt>
<pdfrwt beam="1">  1        1 0.33886783E+00 0.33521354E+04</pdfrwt>
<pdfrwt beam="2">  1       -1 0.19621222E+00 0.33521354E+04</pdfrwt>
<totfact> 0.28650721E-01</totfact>
</mgrwt>
</event>
<event>
 6    1  0.9562506E-007  0.3342677E+04  0.7818608E-02  0.8152120E-01
         -1   -1    0    0    0  501 -0.00000000000E+00  0.00000000000E+00  0.95485933603E+03  0.95485933603E+03  0.00000000000E+00 0.  1.
          1   -1    0    0  501    0  0.00000000000E+00 -0.00000000000E+00 -0.29254277437E+04  0.29254277437E+04  0.00000000000E+00 0. -1.
         23    2    1    2    0    0 -0.10335401438E+04  0.83006820071E+02 -0.25058698549E+04  0.27133924829E+04  0.89552641071E+02 0.  0.
         11    1    3    3    0    0 -0.50856235228E+03  0.41532666350E+01 -0.12934401330E+04  0.13898346281E+04  0.00000000000E+00 0. -1.
        -11    1    3    3    0    0 -0.52497779148E+03  0.78853553436E+02 -0.12124297219E+04  0.13235578547E+04  0.00000000000E+00 0.  1.
         22    1    1    2    0    0  0.10335401438E+04 -0.83006820071E+02  0.53530144717E+03  0.11668945969E+04  0.00000000000E+00 0.  1.
<mgrwt>
<rscale>  0 0.33426768E+04</rscale>
<asrwt>0</asrwt>
<pdfrwt beam="1">  1        1 0.45006581E+00 0.33426768E+04</pdfrwt>
<pdfrwt beam="2">  1       -1 0.14690144E+00 0.33426768E+04</pdfrwt>
<totfact> 0.20644372E-01</totfact>
</mgrwt>
</event>
<event>
 6    1  0.9562506E-007  0.1329996E+04  0.7818608E-02  0.9006111E-01
         -1   -1    0    0    0  501 -0.00000000000E+00  0.00000000000E+00  0.18805723002E+03  0.18805723002E+03  0.00000000000E+00 0.  1.
          1   -1    0    0  501    0  0.00000000000E+00 -0.00000000000E+00 -0.23515305887E+04  0.23515305887E+04  0.00000000000E+00 0. -1.
         23    2    1    2    0    0 -0.15710050359E+03 -0.28632651690E+02 -0.23133135615E+04  0.23206072640E+04  0.91093595869E+02 0.  0.
         13    1    3    3    0    0  0.65242521195E+01 -0.18820577657E+02 -0.25628321217E+03  0.25705615116E+03  0.00000000000E+00 0.  1.
        -13    1    3    3    0    0 -0.16362475571E+03 -0.98120740329E+01 -0.20570303493E+04  0.20635511129E+04  0.00000000000E+00 0. -1.
         22    1    1    2    0    0  0.15710050359E+03  0.28632651690E+02  0.14984020277E+03  0.21898055470E+03  0.00000000000E+00 0.  1.
<mgrwt>
<rscale>  0 0.13299960E+04</rscale>
<asrwt>0</asrwt>
<pdfrwt beam="1">  1        1 0.36177392E+00 0.13299960E+04</pdfrwt>
<pdfrwt beam="2">  1       -1 0.28931883E-01 0.13299960E+04</pdfrwt>
<totfact> 0.18345337E+01</totfact>
</mgrwt>
</event>
<event>
 6    1  0.9562506E-007  0.2896958E+04  0.7818608E-02  0.8273783E-01
         -1   -1    0    0    0  501 -0.00000000000E+00  0.00000000000E+00  0.13075794163E+04  0.13075794163E+04  0.00000000000E+00 0.  1.
          1   -1    0    0  501    0  0.00000000000E+00 -0.00000000000E+00 -0.16045614847E+04  0.16045614847E+04  0.00000000000E+00 0. -1.
         23    2    1    2    0    0 -0.72997373935E+03 -0.12414951151E+04 -0.67066488407E+01  0.14429807327E+04  0.89312007452E+02 0.  0.
         13    1    3    3    0    0 -0.60058451594E+03 -0.10818963482E+04 -0.11353588815E+02  0.12374693422E+04  0.00000000000E+00 0. -1.
        -13    1    3    3    0    0 -0.12938922341E+03 -0.15959876697E+03  0.46469399741E+01  0.20551139045E+03  0.00000000000E+00 0.  1.
         22    1    1    2    0    0  0.72997373935E+03  0.12414951151E+04 -0.29027541951E+03  0.14691601683E+04  0.00000000000E+00 0. -1.
<mgrwt>
<rscale>  0 0.28969581E+04</rscale>
<asrwt>0</asrwt>
<pdfrwt beam="1">  1        1 0.24685561E+00 0.28969581E+04</pdfrwt>
<pdfrwt beam="2">  1       -1 0.20116606E+00 0.28969581E+04</pdfrwt>
<totfact> 0.70278064E-01</totfact>
</mgrwt>
</event>
<event>
 6    1  0.9562506E-007  0.3810878E+04  0.7818608E-02  0.8043824E-01
          2   -1    0    0  501    0  0.00000000000E+00  0.00000000000E+00  0.22330368858E+04  0.22330368858E+04  0.00000000000E+00 0. -1.
         -2   -1    0    0    0  501 -0.00000000000E+00 -0.00000000000E+00 -0.16259016457E+04  0.16259016457E+04  0.00000000000E+00 0.  1.
         23    2    1    2    0    0 -0.71880140559E+03  0.17563558211E+04  0.14425987581E+03  0.19055530514E+04  0.94129107527E+02 0.  0.
         11    1    3    3    0    0 -0.40177031857E+03  0.93025113763E+03  0.11984563112E+03  0.10203673570E+04  0.00000000000E+00 0. -1.
        -11    1    3    3    0    0 -0.31703108701E+03  0.82610468347E+03  0.24414244687E+02  0.88518569437E+03  0.00000000000E+00 0.  1.
         22    1    1    2    0    0  0.71880140559E+03 -0.17563558211E+04  0.46287536435E+03  0.19533854801E+04  0.00000000000E+00 0. -1.
<mgrwt>
<rscale>  0 0.38108783E+04</rscale>
<asrwt>0</asrwt>
<pdfrwt beam="1">  1        2 0.34354414E+00 0.38108783E+04</pdfrwt>
<pdfrwt beam="2">  1       -2 0.25013871E+00 0.38108783E+04</pdfrwt>
<totfact> 0.25419210E-01</totfact>
</mgrwt>
</event>
<event>
 6    1  0.9562506E-007  0.2629449E+04  0.7818608E-02  0.8358266E-01
          1   -1    0    0  501    0  0.00000000000E+00  0.00000000000E+00  0.29855012576E+04  0.29855012576E+04  0.00000000000E+00 0. -1.
         -1   -1    0    0    0  501 -0.00000000000E+00 -0.00000000000E+00 -0.57896503584E+03  0.57896503584E+03  0.00000000000E+00 0.  1.
         23    2    1    2    0    0 -0.38974917401E+03  0.90849345278E+03  0.33077496546E+02  0.99336320475E+03  0.91714575628E+02 0.  0.
         11    1    3    3    0    0 -0.37955231320E+03  0.81834394338E+03  0.31262331307E+02  0.90262068527E+03  0.00000000000E+00 0.  1.
        -11    1    3    3    0    0 -0.10196860802E+02  0.90149509403E+02  0.18151652393E+01  0.90742519474E+02  0.00000000000E+00 0. -1.
         22    1    1    2    0    0  0.38974917401E+03 -0.90849345278E+03  0.23734587253E+04  0.25711030887E+04  0.00000000000E+00 0. -1.
<mgrwt>
<rscale>  0 0.26294493E+04</rscale>
<asrwt>0</asrwt>
<pdfrwt beam="1">  1        1 0.45930788E+00 0.26294493E+04</pdfrwt>
<pdfrwt beam="2">  1       -1 0.89071546E-01 0.26294493E+04</pdfrwt>
<totfact> 0.66477056E-01</totfact>
</mgrwt>
</event>
<event>
 6    1  0.9562506E-007  0.2319033E+04  0.7818608E-02  0.8470454E-01
          1   -1    0    0  501    0  0.00000000000E+00  0.00000000000E+00  0.12894839999E+04  0.12894839999E+04  0.00000000000E+00 0. -1.
         -1   -1    0    0    0  501 -0.00000000000E+00 -0.00000000000E+00 -0.10426482761E+04  0.10426482761E+04  0.00000000000E+00 0.  1.
         23    2    1    2    0    0 -0.10563652634E+04 -0.32981615585E+03 -0.21828852336E+03  0.11317045057E+04  0.91754795954E+02 0.  0.
         11    1    3    3    0    0 -0.12624381966E+03 -0.50445965219E+02 -0.56162984519E+02  0.14709377362E+03  0.00000000000E+00 0.  1.
        -11    1    3    3    0    0 -0.93012144371E+03 -0.27937019063E+03 -0.16212553884E+03  0.98461073212E+03  0.00000000000E+00 0. -1.
         22    1    1    2    0    0  0.10563652634E+04  0.32981615585E+03  0.46512424718E+03  0.12004277703E+04  0.00000000000E+00 0. -1.
<mgrwt>
<rscale>  0 0.23190328E+04</rscale>
<asrwt>0</asrwt>
<pdfrwt beam="1">  1        1 0.19838215E+00 0.23190328E+04</pdfrwt>
<pdfrwt beam="2">  1       -1 0.16040743E+00 0.23190328E+04</pdfrwt>
<totfact> 0.24102255E+00</totfact>
</mgrwt>
</event>
<event>
 6    1  0.9562506E-007  0.1798493E+04  0.7818608E-02  0.8707101E-01
          1   -1    0    0  501    0  0.00000000000E+00  0.00000000000E+00  0.20135925893E+04  0.20135925893E+04  0.00000000000E+00 0. -1.
         -1   -1    0    0    0  501 -0.00000000000E+00 -0.00000000000E+00 -0.40159294513E+03  0.40159294513E+03  0.00000000000E+00 0.  1.
         23    2    1    2    0    0  0.16952068447E+03  0.77867046194E+03  0.25558903990E+03  0.84199937947E+03  0.92586429653E+02 0.  0.
         11    1    3    3    0    0  0.63644921367E+02  0.14373895505E+03  0.30859246871E+02  0.16019942675E+03  0.00000000000E+00 0. -1.
        -11    1    3    3    0    0  0.10587576310E+03  0.63493150689E+03  0.22472979303E+03  0.68179995272E+03  0.00000000000E+00 0.  1.
         22    1    1    2    0    0 -0.16952068447E+03 -0.77867046194E+03  0.13564106042E+04  0.15731861549E+04  0.00000000000E+00 0.  1.
<mgrwt>
<rscale>  0 0.17984933E+04</rscale>
<asrwt>0</asrwt>
<pdfrwt beam="1">  1        1 0.30978347E+00 0.17984933E+04</pdfrwt>
<pdfrwt beam="2">  1       -1 0.61783531E-01 0.17984933E+04</pdfrwt>
<totfact> 0.73164509E+00</totfact>
</mgrwt>
</event>
<event>
 6    1  0.9562506E-007  0.4470494E+04  0.7818608E-02  0.7915823E-01
         -2   -1    0    0    0  501 -0.00000000000E+00  0.00000000000E+00  0.21518208147E+04  0.21518208147E+04  0.00000000000E+00 0.  1.
          2   -1    0    0  501    0  0.00000000000E+00 -0.00000000000E+00 -0.23219081106E+04  0.23219081106E+04  0.00000000000E+00 0. -1.
         23    2    1    2    0    0 -0.19490220583E+04  0.10729251427E+04 -0.29106154758E+03  0.22456153475E+04  0.90642808944E+02 0.  0.
         11    1    3    3    0    0 -0.36651176134E+03  0.21718743767E+03 -0.89155563741E+02  0.43525850805E+03  0.00000000000E+00 0. -1.
        -11    1    3    3    0    0 -0.15825102970E+04  0.85573770506E+03 -0.20190598383E+03  0.18103568395E+04  0.00000000000E+00 0.  1.
         22    1    1    2    0    0  0.19490220583E+04 -0.10729251427E+04  0.12097425170E+03  0.22281135778E+04  0.00000000000E+00 0. -1.
<mgrwt>
<rscale>  0 0.44704945E+04</rscale>
<asrwt>0</asrwt>
<pdfrwt beam="1">  1        2 0.35721663E+00 0.44704945E+04</pdfrwt>
<pdfrwt beam="2">  1       -2 0.33104936E+00 0.44704945E+04</pdfrwt>
<totfact> 0.68422599E-02</totfact>
</mgrwt>
</event>
<event>
 6    1  0.9562506E-007  0.7233309E+03  0.7818608E-02  0.9678145E-01
          1   -1    0    0  501    0  0.00000000000E+00  0.00000000000E+00  0.62282557997E+03  0.62282557997E+03  0.00000000000E+00 0. -1.
         -1   -1    0    0    0  501 -0.00000000000E+00 -0.00000000000E+00 -0.21001368998E+03  0.21001368998E+03  0.00000000000E+00 0.  1.
         23    2    1    2    0    0  0.12471373004E+02  0.60633046918E+02  0.61330223192E+03  0.62301010436E+03  0.90388389421E+02 0.  0.
         11    1    3    3    0    0  0.10290571850E+02 -0.20229831715E+02  0.23851929271E+03  0.23959673403E+03  0.00000000000E+00 0. -1.
        -11    1    3    3    0    0  0.21808011539E+01  0.80862878634E+02  0.37478293921E+03  0.38341337034E+03  0.00000000000E+00 0.  1.
         22    1    1    2    0    0 -0.12471373004E+02 -0.60633046918E+02 -0.20049034193E+03  0.20982916559E+03  0.00000000000E+00 0.  1.
<mgrwt>
<rscale>  0 0.72333090E+03</rscale>
<asrwt>0</asrwt>
<pdfrwt beam="1">  1        1 0.95819319E-01 0.72333090E+03</pdfrwt>
<pdfrwt beam="2">  1       -1 0.32309799E-01 0.72333090E+03</pdfrwt>
<totfact> 0.29364743E+02</totfact>
</mgrwt>
</event>
<event>
 6    1  0.9562506E-007  0.6093110E+04  0.7818608E-02  0.7678963E-01
          2   -1    0    0  501    0  0.00000000000E+00  0.00000000000E+00  0.28853786050E+04  0.28853786050E+04  0.00000000000E+00 0. -1.
         -2   -1    0    0    0  501 -0.00000000000E+00 -0.00000000000E+00 -0.32167343290E+04  0.32167343290E+04  0.00000000000E+00 0.  1.
         23    2    1    2    0    0 -0.15528260400E+04 -0.21625372202E+04  0.13161552986E+04  0.29712778204E+04  0.91603365707E+02 0.  0.
         11    1    3    3    0    0 -0.59903506507E+03 -0.90551318850E+03  0.55575669262E+03  0.12196977679E+04  0.00000000000E+00 0. -1.
        -11    1    3    3    0    0 -0.95379097494E+03 -0.12570240317E+04  0.76039860600E+03  0.17515800524E+04  0.00000000000E+00 0.  1.
         22    1    1    2    0    0  0.15528260400E+04  0.21625372202E+04 -0.16475110226E+04  0.31308351136E+04  0.00000000000E+00 0.  1.
<mgrwt>
<rscale>  0 0.60931097E+04</rscale>
<asrwt>0</asrwt>
<pdfrwt beam="1">  1        2 0.44390440E+00 0.60931097E+04</pdfrwt>
<pdfrwt beam="2">  1       -2 0.49488221E+00 0.60931097E+04</pdfrwt>
<totfact> 0.24599831E-03</totfact>
</mgrwt>
</event>
<event>
 6    1  0.9562506E-007  0.3146477E+04  0.7818608E-02  0.8203097E-01
         -2   -1    0    0    0  501 -0.00000000000E+00  0.00000000000E+00  0.91698518588E+03  0.91698518588E+03  0.00000000000E+00 0.  1.
          2   -1    0    0  501    0  0.00000000000E+00 -0.00000000000E+00 -0.26991489920E+04  0.26991489920E+04  0.00000000000E+00 0. -1.
         23    2    1    2    0    0 -0.68025122870E+03  0.58893802153E+02  0.73583241464E+03  0.10072042858E+04  0.82467671352E+02 0.  0.
         13    1    3    3    0    0 -0.33166979571E+03 -0.10575721055E+02  0.33643632714E+03  0.47255274994E+03  0.00000000000E+00 0. -1.
        -13    1    3    3    0    0 -0.34858143299E+03  0.69469523207E+02  0.39939608750E+03  0.53465153585E+03  0.00000000000E+00 0.  1.
         22    1    1    2    0    0  0.68025122870E+03 -0.58893802153E+02 -0.25179962208E+04  0.26089298921E+04  0.00000000000E+00 0. -1.
<mgrwt>
<rscale>  0 0.31464772E+04</rscale>
<asrwt>0</asrwt>
<pdfrwt beam="1">  1        2 0.41525370E+00 0.31464772E+04</pdfrwt>
<pdfrwt beam="2">  1       -2 0.14107464E+00 0.31464772E+04</pdfrwt>
<totfact> 0.79138790E-01</totfact>
</mgrwt>
</event>
<event>
 6    1  0.9562506E-007  0.2171722E+04  0.7818608E-02  0.8530291E-01
         -1   -1    0    0    0  501 -0.00000000000E+00  0.00000000000E+00  0.63749600210E+03  0.63749600210E+03  0.00000000000E+00 0.  1.
          1   -1    0    0  501    0  0.00000000000E+00 -0.00000000000E+00 -0.18495705153E+04  0.18495705153E+04  0.00000000000E+00 0. -1.
         23    2    1    2    0    0  0.77853673487E+03 -0.31731600386E+03  0.17433666582E+03  0.86566439234E+03  0.11032983856E+03 0.  0.
         13    1    3    3    0    0  0.36340718342E+03 -0.12906210214E+03  0.26853694271E+02  0.38657848889E+03  0.00000000000E+00 0. -1.
        -13    1    3    3    0    0  0.41512955144E+03 -0.18825390172E+03  0.14748297155E+03  0.47908590346E+03  0.00000000000E+00 0.  1.
         22    1    1    2    0    0 -0.77853673487E+03  0.31731600386E+03 -0.13864111790E+04  0.16214021251E+04  0.00000000000E+00 0. -1.
<mgrwt>
<rscale>  0 0.21717217E+04</rscale>
<asrwt>0</asrwt>
<pdfrwt beam="1">  1        1 0.28454931E+00 0.21717217E+04</pdfrwt>
<pdfrwt beam="2">  1       -1 0.98076309E-01 0.21717217E+04</pdfrwt>
<totfact> 0.34323974E+00</totfact>
</mgrwt>
</event>
<event>
 6    1  0.9562506E-007  0.3218130E+04  0.7818608E-02  0.8184045E-01
         -1   -1    0    0    0  501 -0.00000000000E+00  0.00000000000E+00  0.11477325837E+04  0.11477325837E+04  0.00000000000E+00 0.  1.
          1   -1    0    0  501    0  0.00000000000E+00 -0.00000000000E+00 -0.22558304765E+04  0.22558304765E+04  0.00000000000E+00 0. -1.
         23    2    1    2    0    0  0.12557309554E+04 -0.94903346739E+03 -0.20753195843E+03  0.15901288163E+04  0.88968444733E+02 0.  0.
         11    1    3    3    0    0  0.64486561813E+03 -0.43943510294E+03 -0.12569204130E+03  0.79041341359E+03  0.00000000000E+00 0. -1.
        -11    1    3    3    0    0  0.61086533724E+03 -0.50959836445E+03 -0.81839917134E+02  0.79971540270E+03  0.00000000000E+00 0.  1.
         22    1    1    2    0    0 -0.12557309554E+04  0.94903346739E+03 -0.90056593437E+03  0.18134342438E+04  0.00000000000E+00 0. -1.
<mgrwt>
<rscale>  0 0.32181300E+04</rscale>
<asrwt>0</asrwt>
<pdfrwt beam="1">  1        1 0.34705084E+00 0.32181300E+04</pdfrwt>
<pdfrwt beam="2">  1       -1 0.17657425E+00 0.32181300E+04</pdfrwt>
<totfact> 0.36718674E-01</totfact>
</mgrwt>
</event>
<event>
 6    1  0.9562506E-007  0.2595522E+04  0.7818608E-02  0.8369724E-01
         -1   -1    0    0    0  501 -0.00000000000E+00  0.00000000000E+00  0.11514399495E+04  0.11514399495E+04  0.00000000000E+00 0.  1.
          1   -1    0    0  501    0  0.00000000000E+00 -0.00000000000E+00 -0.14626761371E+04  0.14626761371E+04  0.00000000000E+00 0. -1.
         23    2    1    2    0    0 -0.68100236057E+03  0.10427042294E+03  0.94995945091E+03  0.11770179776E+04  0.91169210262E+02 0.  0.
         13    1    3    3    0    0 -0.29136397133E+03  0.12255965226E+02  0.34732093221E+03  0.45351405979E+03  0.00000000000E+00 0.  1.
        -13    1    3    3    0    0 -0.38963838924E+03  0.92014457717E+02  0.60263851870E+03  0.72350391777E+03  0.00000000000E+00 0. -1.
         22    1    1    2    0    0  0.68100236057E+03 -0.10427042294E+03 -0.12611956386E+04  0.14370981090E+04  0.00000000000E+00 0. -1.
<mgrwt>
<rscale>  0 0.25955221E+04</rscale>
<asrwt>0</asrwt>
<pdfrwt beam="1">  1        1 0.22502710E+00 0.25955221E+04</pdfrwt>
<pdfrwt beam="2">  1       -1 0.17714461E+00 0.25955221E+04</pdfrwt>
<totfact> 0.13353229E+00</totfact>
</mgrwt>
</event>
<event>
 6    1  0.9562506E-007  0.1196311E+04  0.7818608E-02  0.9116092E-01
          2   -1    0    0  501    0  0.00000000000E+00  0.00000000000E+00  0.11564150983E+04  0.11564150983E+04  0.00000000000E+00 0. -1.
         -2   -1    0    0    0  501 -0.00000000000E+00 -0.00000000000E+00 -0.30939569162E+03  0.30939569162E+03  0.00000000000E+00 0.  1.
         23    2    1    2    0    0  0.54113570403E+03  0.24039895792E+03  0.48997624361E+03  0.77436351830E+03  0.94565480102E+02 0.  0.
         11    1    3    3    0    0  0.39980105519E+03  0.14213212519E+03  0.38361060967E+03  0.57201357029E+03  0.00000000000E+00 0.  1.
        -11    1    3    3    0    0  0.14133464883E+03  0.98266832727E+02  0.10636563394E+03  0.20234994801E+03  0.00000000000E+00 0. -1.
         22    1    1    2    0    0 -0.54113570403E+03 -0.24039895792E+03  0.35704316309E+03  0.69144727164E+03  0.00000000000E+00 0.  1.
<mgrwt>
<rscale>  0 0.11963107E+04</rscale>
<asrwt>0</asrwt>
<pdfrwt beam="1">  1        2 0.17791001E+00 0.11963107E+04</pdfrwt>
<pdfrwt beam="2">  1       -2 0.47599338E-01 0.11963107E+04</pdfrwt>
<totfact> 0.83031633E+01</totfact>
</mgrwt>
</event>
<event>
 6    1  0.9562506E-007  0.1160435E+04  0.7818608E-02  0.9148211E-01
          2   -1    0    0  501    0  0.00000000000E+00  0.00000000000E+00  0.30045149137E+04  0.30045149137E+04  0.00000000000E+00 0. -1.
         -2   -1    0    0    0  501 -0.00000000000E+00 -0.00000000000E+00 -0.11204873863E+03  0.11204873863E+03  0.00000000000E+00 0.  1.
         23    2    1    2    0    0 -0.45976799941E+03  0.30341582741E+03  0.19274040559E+04  0.20053513992E+04  0.55678200896E+02 0.  0.
         13    1    3    3    0    0 -0.10761542977E+03  0.44303882180E+02  0.41939915838E+03  0.43524656087E+03  0.00000000000E+00 0. -1.
        -13    1    3    3    0    0 -0.35215256964E+03  0.25911194523E+03  0.15080048975E+04  0.15701048383E+04  0.00000000000E+00 0.  1.
         22    1    1    2    0    0  0.45976799941E+03 -0.30341582741E+03  0.96506211915E+03  0.11112122531E+04  0.00000000000E+00 0.  1.
<mgrwt>
<rscale>  0 0.11604346E+04</rscale>
<asrwt>0</asrwt>
<pdfrwt beam="1">  1        2 0.46223300E+00 0.11604346E+04</pdfrwt>
<pdfrwt beam="2">  1       -2 0.17238270E-01 0.11604346E+04</pdfrwt>
<totfact> 0.48149805E+01</totfact>
</mgrwt>
</event>
<event>
 6    1  0.9562506E-007  0.8764061E+03  0.7818608E-02  0.9455565E-01
          2   -1    0    0  501    0  0.00000000000E+00  0.00000000000E+00  0.83301523054E+03  0.83301523054E+03  0.00000000000E+00 0. -1.
         -2   -1    0    0    0  501 -0.00000000000E+00 -0.00000000000E+00 -0.23051429303E+03  0.23051429303E+03  0.00000000000E+00 0.  1.
         23    2    1    2    0    0 -0.13936209710E+03 -0.30593814681E+03  0.63664279060E+03  0.72561591047E+03  0.90468021526E+02 0.  0.
         13    1    3    3    0    0 -0.17033308405E+02 -0.79643229052E+02  0.89453445109E+02  0.12097560238E+03  0.00000000000E+00 0.  1.
        -13    1    3    3    0    0 -0.12232878870E+03 -0.22629491776E+03  0.54718934549E+03  0.60464030809E+03  0.00000000000E+00 0. -1.
         22    1    1    2    0    0  0.13936209710E+03  0.30593814681E+03 -0.34141853091E+02  0.33791361309E+03  0.00000000000E+00 0.  1.
<mgrwt>
<rscale>  0 0.87640611E+03</rscale>
<asrwt>0</asrwt>
<pdfrwt beam="1">  1        2 0.12815619E+00 0.87640611E+03</pdfrwt>
<pdfrwt beam="2">  1       -2 0.35463738E-01 0.87640611E+03</pdfrwt>
<totfact> 0.24433282E+02</totfact>
</mgrwt>
</event>
<event>
 6    1  0.9562506E-007  0.3124926E+04  0.7818608E-02  0.8208930E-01
         -1   -1    0    0    0  501 -0.00000000000E+00  0.00000000000E+00  0.72969809793E+03  0.72969809793E+03  0.00000000000E+00 0.  1.
          1   -1    0    0  501    0  0.00000000000E+00 -0.00000000000E+00 -0.33456175001E+04  0.33456175001E+04  0.00000000000E+00 0. -1.
         23    2    1    2    0    0  0.89064910145E+03 -0.82196630056E+03 -0.25943384348E+02  0.12157946252E+04  0.92731280003E+02 0.  0.
         11    1    3    3    0    0  0.82553378781E+03 -0.73473704625E+03 -0.41002918786E+02  0.11059049694E+04  0.00000000000E+00 0.  1.
        -11    1    3    3    0    0  0.65115313642E+02 -0.87229254309E+02  0.15059534438E+02  0.10988965582E+03  0.00000000000E+00 0. -1.
         22    1    1    2    0    0 -0.89064910145E+03  0.82196630056E+03 -0.25899760178E+04  0.28595209728E+04  0.00000000000E+00 0. -1.
<mgrwt>
<rscale>  0 0.31249261E+04</rscale>
<asrwt>0</asrwt>
<pdfrwt beam="1">  1        1 0.51471039E+00 0.31249261E+04</pdfrwt>
<pdfrwt beam="2">  1       -1 0.11226124E+00 0.31249261E+04</pdfrwt>
<totfact> 0.20156306E-01</totfact>
</mgrwt>
</event>
<event>
 6    1  0.9562506E-007  0.3892949E+04  0.7818608E-02  0.8026497E-01
          2   -1    0    0  501    0  0.00000000000E+00  0.00000000000E+00  0.31644798093E+04  0.31644798093E+04  0.00000000000E+00 0. -1.
         -2   -1    0    0    0  501 -0.00000000000E+00 -0.00000000000E+00 -0.11972784969E+04  0.11972784969E+04  0.00000000000E+00 0.  1.
         23    2    1    2    0    0 -0.30810386433E+03  0.14055880295E+04  0.24510694779E+04  0.28436232326E+04  0.88576540241E+02 0.  0.
         13    1    3    3    0    0 -0.81554893995E+02  0.53273192440E+03  0.96771968115E+03  0.11076713797E+04  0.00000000000E+00 0.  1.
        -13    1    3    3    0    0 -0.22654897034E+03  0.87285610511E+03  0.14833497967E+04  0.17359518529E+04  0.00000000000E+00 0. -1.
         22    1    1    2    0    0  0.30810386433E+03 -0.14055880295E+04 -0.48386816550E+03  0.15181350735E+04  0.00000000000E+00 0.  1.
<mgrwt>
<rscale>  0 0.38929493E+04</rscale>
<asrwt>0</asrwt>
<pdfrwt beam="1">  1        2 0.48684305E+00 0.38929493E+04</pdfrwt>
<pdfrwt beam="2">  1       -2 0.18419669E+00 0.38929493E+04</pdfrwt>
<totfact> 0.18448234E-01</totfact>
</mgrwt>
</event>
<event>
 6    1  0.9562506E-007  0.3474266E+04  0.7818608E-02  0.8119916E-01
         -2   -1    0    0    0  501 -0.00000000000E+00  0.00000000000E+00  0.82968182707E+03  0.82968182707E+03  0.00000000000E+00 0.  1.
          2   -1    0    0  501    0  0.00000000000E+00 -0.00000000000E+00 -0.36370943201E+04  0.36370943201E+04  0.00000000000E+00 0. -1.
         23    2    1    2    0    0 -0.28742607705E+03 -0.66071788884E+03 -0.34351876861E+04  0.35111279005E+04  0.91339018552E+02 0.  0.
         13    1    3    3    0    0 -0.13537571291E+03 -0.41008927926E+03 -0.19422259804E+04  0.19896586541E+04  0.00000000000E+00 0.  1.
        -13    1    3    3    0    0 -0.15205036414E+03 -0.25062860958E+03 -0.14929617057E+04  0.15214692464E+04  0.00000000000E+00 0. -1.
         22    1    1    2    0    0  0.28742607705E+03  0.66071788884E+03  0.62777519307E+03  0.95564824671E+03  0.00000000000E+00 0.  1.
<mgrwt>
<rscale>  0 0.34742660E+04</rscale>
<asrwt>0</asrwt>
<pdfrwt beam="1">  1        2 0.55955297E+00 0.34742660E+04</pdfrwt>
<pdfrwt beam="2">  1       -2 0.12764336E+00 0.34742660E+04</pdfrwt>
<totfact> 0.24266005E-01</totfact>
</mgrwt>
</event>
<event>
 6    1  0.9562506E-007  0.2471659E+04  0.7818608E-02  0.8413152E-01
         -2   -1    0    0    0  501 -0.00000000000E+00  0.00000000000E+00  0.72649564095E+03  0.72649564095E+03  0.00000000000E+00 0.  1.
          2   -1    0    0  501    0  0.00000000000E+00 -0.00000000000E+00 -0.21022481993E+04  0.21022481993E+04  0.00000000000E+00 0. -1.
         23    2    1    2    0    0 -0.11983394356E+04  0.11313690052E+03 -0.37655556251E+03  0.12643871042E+04  0.89795859966E+02 0.  0.
         13    1    3    3    0    0 -0.68789238731E+03  0.26910755057E+02 -0.23926720525E+03  0.72881336484E+03  0.00000000000E+00 0.  1.
        -13    1    3    3    0    0 -0.51044704828E+03  0.86226145464E+02 -0.13728835727E+03  0.53557373937E+03  0.00000000000E+00 0. -1.
         22    1    1    2    0    0  0.11983394356E+04 -0.11313690052E+03 -0.99919699586E+03  0.15643567361E+04  0.00000000000E+00 0. -1.
<mgrwt>
<rscale>  0 0.24716587E+04</rscale>
<asrwt>0</asrwt>
<pdfrwt beam="1">  1        2 0.32342279E+00 0.24716587E+04</pdfrwt>
<pdfrwt beam="2">  1       -2 0.11176856E+00 0.24716587E+04</pdfrwt>
<totfact> 0.33102751E+00</totfact>
</mgrwt>
</event>
<event>
 6    1  0.9562506E-007  0.1543935E+04  0.7818608E-02  0.8855751E-01
         -2   -1    0    0    0  501 -0.00000000000E+00  0.00000000000E+00  0.28723232373E+03  0.28723232373E+03  0.00000000000E+00 0.  1.
          2   -1    0    0  501    0  0.00000000000E+00 -0.00000000000E+00 -0.20747458566E+04  0.20747458566E+04  0.00000000000E+00 0. -1.
         23    2    1    2    0    0  0.49528010769E+03  0.59338454057E+02 -0.17927850243E+04  0.18631282772E+04  0.91353142438E+02 0.  0.
         11    1    3    3    0    0  0.48917978250E+03  0.64839474437E+02 -0.17053523100E+04  0.17753105414E+04  0.00000000000E+00 0. -1.
        -11    1    3    3    0    0  0.61003251972E+01 -0.55010203801E+01 -0.87432714308E+02  0.87817735817E+02  0.00000000000E+00 0.  1.
         22    1    1    2    0    0 -0.49528010769E+03 -0.59338454057E+02  0.52714914869E+01  0.49884990311E+03  0.00000000000E+00 0.  1.
<mgrwt>
<rscale>  0 0.15439353E+04</rscale>
<asrwt>0</asrwt>
<pdfrwt beam="1">  1        2 0.31919167E+00 0.15439353E+04</pdfrwt>
<pdfrwt beam="2">  1       -2 0.44189588E-01 0.15439353E+04</pdfrwt>
<totfact> 0.28402494E+01</totfact>
</mgrwt>
</event>
<event>
 6    1  0.9562506E-007  0.2914789E+04  0.7818608E-02  0.8268491E-01
         -1   -1    0    0    0  501 -0.00000000000E+00  0.00000000000E+00  0.14014301749E+04  0.14014301749E+04  0.00000000000E+00 0.  1.
          1   -1    0    0  501    0  0.00000000000E+00 -0.00000000000E+00 -0.15155939469E+04  0.15155939469E+04  0.00000000000E+00 0. -1.
         23    2    1    2    0    0 -0.94483993964E+03  0.43863049587E+03  0.96083097780E+03  0.14201163305E+04  0.91733313089E+02 0.  0.
         11    1    3    3    0    0 -0.48889391754E+03  0.20232652171E+03  0.43315652661E+03  0.68379665146E+03  0.00000000000E+00 0. -1.
        -11    1    3    3    0    0 -0.45594602210E+03  0.23630397417E+03  0.52767445118E+03  0.73631967901E+03  0.00000000000E+00 0.  1.
         22    1    1    2    0    0  0.94483993964E+03 -0.43863049587E+03 -0.10749947499E+04  0.14969077913E+04  0.00000000000E+00 0. -1.
<mgrwt>
<rscale>  0 0.29147892E+04</rscale>
<asrwt>0</asrwt>
<pdfrwt beam="1">  1        1 0.23316830E+00 0.29147892E+04</pdfrwt>
<pdfrwt beam="2">  1       -1 0.21560464E+00 0.29147892E+04</pdfrwt>
<totfact> 0.64441513E-01</totfact>
</mgrwt>
</event>
<event>
 6    1  0.9562506E-007  0.1776147E+04  0.7818608E-02  0.8719088E-01
          2   -1    0    0  501    0  0.00000000000E+00  0.00000000000E+00  0.16556764229E+04  0.16556764229E+04  0.00000000000E+00 0. -1.
         -2   -1    0    0    0  501 -0.00000000000E+00 -0.00000000000E+00 -0.47634581669E+03  0.47634581669E+03  0.00000000000E+00 0.  1.
         23    2    1    2    0    0  0.13985012150E+03 -0.62913592043E+01  0.16411902773E+04  0.16494126732E+04  0.86365516975E+02 0.  0.
         11    1    3    3    0    0  0.96104325387E+01  0.17303994911E+02  0.52962612470E+03  0.52999586850E+03  0.00000000000E+00 0.  1.
        -11    1    3    3    0    0  0.13023968896E+03 -0.23595354116E+02  0.11115641526E+04  0.11194168048E+04  0.00000000000E+00 0. -1.
         22    1    1    2    0    0 -0.13985012150E+03  0.62913592043E+01 -0.46185967115E+03  0.48260956634E+03  0.00000000000E+00 0.  1.
<mgrwt>
<rscale>  0 0.17761470E+04</rscale>
<asrwt>0</asrwt>
<pdfrwt beam="1">  1        2 0.25471945E+00 0.17761470E+04</pdfrwt>
<pdfrwt beam="2">  1       -2 0.73283973E-01 0.17761470E+04</pdfrwt>
<totfact> 0.16501717E+01</totfact>
</mgrwt>
</event>
<event>
 6    1  0.9562506E-007  0.4426776E+04  0.7818608E-02  0.7923583E-01
          1   -1    0    0  501    0  0.00000000000E+00  0.00000000000E+00  0.23683698159E+04  0.23683698159E+04  0.00000000000E+00 0. -1.
         -1   -1    0    0    0  501 -0.00000000000E+00 -0.00000000000E+00 -0.20685476180E+04  0.20685476180E+04  0.00000000000E+00 0.  1.
         23    2    1    2    0    0  0.73693993985E+03  0.12254951426E+04  0.18421147114E+04  0.23336853932E+04  0.88216125750E+02 0.  0.
         11    1    3    3    0    0  0.92936161550E+02  0.10742755904E+03  0.16663313790E+03  0.21896212735E+03  0.00000000000E+00 0. -1.
        -11    1    3    3    0    0  0.64400377830E+03  0.11180675835E+04  0.16754815735E+04  0.21147232658E+04  0.00000000000E+00 0.  1.
         22    1    1    2    0    0 -0.73693993985E+03 -0.12254951426E+04 -0.15422925136E+04  0.21032320407E+04  0.00000000000E+00 0.  1.
<mgrwt>
<rscale>  0 0.44267757E+04</rscale>
<asrwt>0</asrwt>
<pdfrwt beam="1">  1        1 0.36436459E+00 0.44267757E+04</pdfrwt>
<pdfrwt beam="2">  1       -1 0.31823809E+00 0.44267757E+04</pdfrwt>
<totfact> 0.31734924E-02</totfact>
</mgrwt>
</event>
<event>
 6    1  0.9562506E-007  0.1186274E+04  0.7818608E-02  0.9124957E-01
          2   -1    0    0  501    0  0.00000000000E+00  0.00000000000E+00  0.27971942734E+04  0.27971942734E+04  0.00000000000E+00 0. -1.
         -2   -1    0    0    0  501 -0.00000000000E+00 -0.00000000000E+00 -0.12577295057E+03  0.12577295057E+03  0.00000000000E+00 0.  1.
         23    2    1    2    0    0 -0.38587266230E+03 -0.44531237294E+03  0.13877053965E+04  0.15104774362E+04  0.92817007180E+02 0.  0.
         11    1    3    3    0    0 -0.47802692473E+02 -0.21506957515E+02  0.91185991401E+02  0.10517857033E+03  0.00000000000E+00 0.  1.
        -11    1    3    3    0    0 -0.33806996983E+03 -0.42380541542E+03  0.12965194051E+04  0.14052988659E+04  0.00000000000E+00 0. -1.
         22    1    1    2    0    0  0.38587266230E+03  0.44531237294E+03  0.12837159263E+04  0.14124897878E+04  0.00000000000E+00 0. -1.
<mgrwt>
<rscale>  0 0.11862738E+04</rscale>
<asrwt>0</asrwt>
<pdfrwt beam="1">  1        2 0.43033753E+00 0.11862738E+04</pdfrwt>
<pdfrwt beam="2">  1       -2 0.19349687E-01 0.11862738E+04</pdfrwt>
<totfact> 0.52524281E+01</totfact>
</mgrwt>
</event>
<event>
 6    1  0.9562506E-007  0.1502437E+04  0.7818608E-02  0.8882834E-01
          2   -1    0    0  501    0  0.00000000000E+00  0.00000000000E+00  0.94216037950E+03  0.94216037950E+03  0.00000000000E+00 0. -1.
         -2   -1    0    0    0  501 -0.00000000000E+00 -0.00000000000E+00 -0.59897376587E+03  0.59897376587E+03  0.00000000000E+00 0.  1.
         23    2    1    2    0    0 -0.69817878497E+03  0.52375416353E+02  0.44368241792E+03  0.83381794543E+03  0.90562012608E+02 0.  0.
         11    1    3    3    0    0 -0.56925249333E+03  0.70446117997E+02  0.33519846784E+03  0.66435613156E+03  0.00000000000E+00 0. -1.
        -11    1    3    3    0    0 -0.12892629164E+03 -0.18070701644E+02  0.10848395008E+03  0.16946181387E+03  0.00000000000E+00 0.  1.
         22    1    1    2    0    0  0.69817878497E+03 -0.52375416353E+02 -0.10049580429E+03  0.70731619995E+03  0.00000000000E+00 0.  1.
<mgrwt>
<rscale>  0 0.15024372E+04</rscale>
<asrwt>0</asrwt>
<pdfrwt beam="1">  1        2 0.14494775E+00 0.15024372E+04</pdfrwt>
<pdfrwt beam="2">  1       -2 0.92149810E-01 0.15024372E+04</pdfrwt>
<totfact> 0.26564196E+01</totfact>
</mgrwt>
</event>
<event>
 6    1  0.9562506E-007  0.8462001E+03  0.7818608E-02  0.9495451E-01
         -2   -1    0    0    0  501 -0.00000000000E+00  0.00000000000E+00  0.15359507302E+03  0.15359507302E+03  0.00000000000E+00 0.  1.
          2   -1    0    0  501    0  0.00000000000E+00 -0.00000000000E+00 -0.11654909050E+04  0.11654909050E+04  0.00000000000E+00 0. -1.
         23    2    1    2    0    0 -0.23821081090E+03 -0.18177348724E+03 -0.59890227737E+02  0.32103755153E+03  0.98449372890E+02 0.  0.
         13    1    3    3    0    0 -0.74157053169E+02 -0.89641647550E+02  0.17388332705E+02  0.11763183083E+03  0.00000000000E+00 0. -1.
        -13    1    3    3    0    0 -0.16405375773E+03 -0.92131839691E+02 -0.77278560442E+02  0.20340572070E+03  0.00000000000E+00 0.  1.
         22    1    1    2    0    0  0.23821081090E+03  0.18177348724E+03 -0.95200560422E+03  0.99804842646E+03  0.00000000000E+00 0. -1.
<mgrwt>
<rscale>  0 0.84620012E+03</rscale>
<asrwt>0</asrwt>
<pdfrwt beam="1">  1        2 0.17930630E+00 0.84620012E+03</pdfrwt>
<pdfrwt beam="2">  1       -2 0.23630010E-01 0.84620012E+03</pdfrwt>
<totfact> 0.31650755E+02</totfact>
</mgrwt>
</event>
<event>
 6    1  0.9562506E-007  0.2589574E+04  0.7818608E-02  0.8371751E-01
         -2   -1    0    0    0  501 -0.00000000000E+00  0.00000000000E+00  0.65492078108E+03  0.65492078108E+03  0.00000000000E+00 0.  1.
          2   -1    0    0  501    0  0.00000000000E+00 -0.00000000000E+00 -0.25598116430E+04  0.25598116430E+04  0.00000000000E+00 0. -1.
         23    2    1    2    0    0 -0.12280874637E+04  0.22203548721E+02 -0.14559012733E+04  0.19069543593E+04  0.90191989478E+02 0.  0.
         13    1    3    3    0    0 -0.83562267522E+03 -0.24074620249E+02 -0.96454387272E+03  0.12763971659E+04  0.00000000000E+00 0.  1.
        -13    1    3    3    0    0 -0.39246478845E+03  0.46278168969E+02 -0.49135740059E+03  0.63055719346E+03  0.00000000000E+00 0. -1.
         22    1    1    2    0    0  0.12280874637E+04 -0.22203548721E+02 -0.44898958864E+03  0.13077780648E+04  0.00000000000E+00 0.  1.
<mgrwt>
<rscale>  0 0.25895744E+04</rscale>
<asrwt>0</asrwt>
<pdfrwt beam="1">  1        2 0.39381718E+00 0.25895744E+04</pdfrwt>
<pdfrwt beam="2">  1       -2 0.10075704E+00 0.25895744E+04</pdfrwt>
<totfact> 0.23072307E+00</totfact>
</mgrwt>
</event>
<event>
 6    1  0.9562506E-007  0.3822293E+04  0.7818608E-02  0.8041388E-01
          2   -1    0    0  501    0  0.00000000000E+00  0.00000000000E+00  0.28373414870E+04  0.28373414870E+04  0.00000000000E+00 0. -1.
         -2   -1    0    0    0  501 -0.00000000000E+00 -0.00000000000E+00 -0.12872900426E+04  0.12872900426E+04  0.00000000000E+00 0.  1.
         23    2    1    2    0    0  0.17046065661E+04  0.84786418402E+03  0.93203129908E+03  0.21230056605E+04  0.11795538185E+03 0.  0.
         11    1    3    3    0    0  0.61270980795E+03  0.24234170217E+03  0.32711114596E+03  0.73562525186E+03  0.00000000000E+00 0. -1.
        -11    1    3    3    0    0  0.10918967582E+04  0.60552248184E+03  0.60492015311E+03  0.13873804086E+04  0.00000000000E+00 0.  1.
         22    1    1    2    0    0 -0.17046065661E+04 -0.84786418402E+03  0.61802014528E+03  0.20016258691E+04  0.00000000000E+00 0.  1.
<mgrwt>
<rscale>  0 0.38222933E+04</rscale>
<asrwt>0</asrwt>
<pdfrwt beam="1">  1        2 0.43651407E+00 0.38222933E+04</pdfrwt>
<pdfrwt beam="2">  1       -2 0.19804462E+00 0.38222933E+04</pdfrwt>
<totfact> 0.24056320E-01</totfact>
</mgrwt>
</event>
<event>
 6    1  0.9562506E-007  0.1278819E+04  0.7818608E-02  0.9046532E-01
          1   -1    0    0  501    0  0.00000000000E+00  0.00000000000E+00  0.47633271345E+03  0.47633271345E+03  0.00000000000E+00 0. -1.
         -1   -1    0    0    0  501 -0.00000000000E+00 -0.00000000000E+00 -0.85831755845E+03  0.85831755845E+03  0.00000000000E+00 0.  1.
         23    2    1    2    0    0  0.43364659545E+03 -0.41769429764E+03  0.21899549819E+02  0.60963958205E+03  0.93074882164E+02 0.  0.
         11    1    3    3    0    0  0.36184228570E+03 -0.33270148034E+03 -0.16805404456E+02  0.49183588356E+03  0.00000000000E+00 0. -1.
        -11    1    3    3    0    0  0.71804309757E+02 -0.84992817302E+02  0.38704954276E+02  0.11780369849E+03  0.00000000000E+00 0.  1.
         22    1    1    2    0    0 -0.43364659545E+03  0.41769429764E+03 -0.40388439481E+03  0.72501068985E+03  0.00000000000E+00 0.  1.
<mgrwt>
<rscale>  0 0.12788193E+04</rscale>
<asrwt>0</asrwt>
<pdfrwt beam="1">  1        1 0.73281956E-01 0.12788193E+04</pdfrwt>
<pdfrwt beam="2">  1       -1 0.13204886E+00 0.12788193E+04</pdfrwt>
<totfact> 0.22733286E+01</totfact>
</mgrwt>
</event>
<event>
 6    1  0.9562506E-007  0.3628569E+04  0.7818608E-02  0.8083979E-01
         -2   -1    0    0    0  501 -0.00000000000E+00  0.00000000000E+00  0.16245558700E+04  0.16245558700E+04  0.00000000000E+00 0.  1.
          2   -1    0    0  501    0  0.00000000000E+00 -0.00000000000E+00 -0.20261713232E+04  0.20261713232E+04  0.00000000000E+00 0. -1.
         23    2    1    2    0    0  0.12868959668E+04 -0.11911353677E+04  0.25927771852E+03  0.17767782937E+04  0.12170240737E+03 0.  0.
         11    1    3    3    0    0  0.10692970256E+04 -0.10423452004E+04  0.20025405060E+03  0.15066457216E+04  0.00000000000E+00 0.  1.
        -11    1    3    3    0    0  0.21759894119E+03 -0.14879016734E+03  0.59023667925E+02  0.27013257204E+03  0.00000000000E+00 0. -1.
         22    1    1    2    0    0 -0.12868959668E+04  0.11911353677E+04 -0.66089317178E+03  0.18739488995E+04  0.00000000000E+00 0. -1.
<mgrwt>
<rscale>  0 0.36285691E+04</rscale>
<asrwt>0</asrwt>
<pdfrwt beam="1">  1        2 0.31171866E+00 0.36285691E+04</pdfrwt>
<pdfrwt beam="2">  1       -2 0.24993167E+00 0.36285691E+04</pdfrwt>
<totfact> 0.33794381E-01</totfact>
</mgrwt>
</event>
<event>
 6    1  0.9562506E-007  0.3798169E+04  0.7818608E-02  0.8046548E-01
          2   -1    0    0  501    0  0.00000000000E+00  0.00000000000E+00  0.18580631881E+04  0.18580631881E+04  0.00000000000E+00 0. -1.
         -2   -1    0    0    0  501 -0.00000000000E+00 -0.00000000000E+00 -0.19410115314E+04  0.19410115314E+04  0.00000000000E+00 0.  1.
         23    2    1    2    0    0 -0.73718348448E+03 -0.11917737408E+04 -0.13219561561E+04  0.19285388340E+04  0.89049515499E+02 0.  0.
         13    1    3    3    0    0 -0.55225009999E+03 -0.93069100815E+03 -0.10627135427E+04  0.15167484958E+04  0.00000000000E+00 0. -1.
        -13    1    3    3    0    0 -0.18493338449E+03 -0.26108273267E+03 -0.25924261347E+03  0.41179033820E+03  0.00000000000E+00 0.  1.
         22    1    1    2    0    0  0.73718348448E+03  0.11917737408E+04  0.12390078128E+04  0.18705358856E+04  0.00000000000E+00 0. -1.
<mgrwt>
<rscale>  0 0.37981691E+04</rscale>
<asrwt>0</asrwt>
<pdfrwt beam="1">  1        2 0.28585588E+00 0.37981691E+04</pdfrwt>
<pdfrwt beam="2">  1       -2 0.29861716E+00 0.37981691E+04</pdfrwt>
<totfact> 0.20821896E-01</totfact>
</mgrwt>
</event>
<event>
 6    1  0.9562506E-007  0.2112245E+04  0.7818608E-02  0.8555868E-01
         -1   -1    0    0    0  501 -0.00000000000E+00  0.00000000000E+00  0.91965116971E+03  0.91965116971E+03  0.00000000000E+00 0.  1.
          1   -1    0    0  501    0  0.00000000000E+00 -0.00000000000E+00 -0.12128455850E+04  0.12128455850E+04  0.00000000000E+00 0. -1.
         23    2    1    2    0    0 -0.27969516363E+02 -0.10526507771E+04 -0.79903414697E+02  0.10580904054E+04  0.65687121823E+02 0.  0.
         13    1    3    3    0    0 -0.38479004744E+02 -0.78764781973E+03 -0.37208409647E+02  0.78946449412E+03  0.00000000000E+00 0.  1.
        -13    1    3    3    0    0  0.10509488381E+02 -0.26500295738E+03 -0.42695005050E+02  0.26862591130E+03  0.00000000000E+00 0. -1.
         22    1    1    2    0    0  0.27969516363E+02  0.10526507771E+04 -0.21329100057E+03  0.10744063493E+04  0.00000000000E+00 0.  1.
<mgrwt>
<rscale>  0 0.21122451E+04</rscale>
<asrwt>0</asrwt>
<pdfrwt beam="1">  1        1 0.18659163E+00 0.21122451E+04</pdfrwt>
<pdfrwt beam="2">  1       -1 0.14148480E+00 0.21122451E+04</pdfrwt>
<totfact> 0.39171824E+00</totfact>
</mgrwt>
</event>
<event>
 6    1  0.9562506E-007  0.4314184E+04  0.7818608E-02  0.7944000E-01
          1   -1    0    0  501    0  0.00000000000E+00  0.00000000000E+00  0.17844042364E+04  0.17844042364E+04  0.00000000000E+00 0. -1.
         -1   -1    0    0    0  501 -0.00000000000E+00 -0.00000000000E+00 -0.26076190392E+04  0.26076190392E+04  0.00000000000E+00 0.  1.
         23    2    1    2    0    0  0.89090733261E+03 -0.55257743412E+03  0.15061676585E+04  0.18375995936E+04  0.95778676056E+02 0.  0.
         13    1    3    3    0    0  0.63058037904E+03 -0.37304455868E+03  0.11218377018E+04  0.13398931623E+04  0.00000000000E+00 0. -1.
        -13    1    3    3    0    0  0.26032695357E+03 -0.17953287544E+03  0.38432995677E+03  0.49770643133E+03  0.00000000000E+00 0.  1.
         22    1    1    2    0    0 -0.89090733261E+03  0.55257743412E+03 -0.23293824613E+04  0.25544236820E+04  0.00000000000E+00 0.  1.
<mgrwt>
<rscale>  0 0.43141843E+04</rscale>
<asrwt>0</asrwt>
<pdfrwt beam="1">  1        1 0.27452373E+00 0.43141843E+04</pdfrwt>
<pdfrwt beam="2">  1       -1 0.40117216E+00 0.43141843E+04</pdfrwt>
<totfact> 0.22357769E-02</totfact>
</mgrwt>
</event>
<event>
 6    1  0.9562506E-007  0.4501738E+04  0.7818608E-02  0.7910333E-01
         -2   -1    0    0    0  501 -0.00000000000E+00  0.00000000000E+00  0.24787881679E+04  0.24787881679E+04  0.00000000000E+00 0.  1.
          2   -1    0    0  501    0  0.00000000000E+00 -0.00000000000E+00 -0.20439064799E+04  0.20439064799E+04  0.00000000000E+00 0. -1.
         23    2    1    2    0    0  0.11994522829E+03  0.22014635577E+04  0.66841564515E+03  0.23056320048E+04  0.91273289049E+02 0.  0.
         13    1    3    3    0    0  0.65505370213E+02  0.11894447174E+04  0.31358471265E+03  0.12318299644E+04  0.00000000000E+00 0. -1.
        -13    1    3    3    0    0  0.54439858075E+02  0.10120188403E+04  0.35483093250E+03  0.10738020404E+04  0.00000000000E+00 0.  1.
         22    1    1    2    0    0 -0.11994522829E+03 -0.22014635577E+04 -0.23353395711E+03  0.22170626430E+04  0.00000000000E+00 0. -1.
<mgrwt>
<rscale>  0 0.45017380E+04</rscale>
<asrwt>0</asrwt>
<pdfrwt beam="1">  1        2 0.31444715E+00 0.45017380E+04</pdfrwt>
<pdfrwt beam="2">  1       -2 0.38135203E+00 0.45017380E+04</pdfrwt>
<totfact> 0.46950223E-02</totfact>
</mgrwt>
</event>
<event>
 6    1  0.9562506E-007  0.3903565E+04  0.7818608E-02  0.8024288E-01
          2   -1    0    0  501    0  0.00000000000E+00  0.00000000000E+00  0.32282074319E+04  0.32282074319E+04  0.00000000000E+00 0. -1.
         -2   -1    0    0    0  501 -0.00000000000E+00 -0.00000000000E+00 -0.11800527658E+04  0.11800527658E+04  0.00000000000E+00 0.  1.
         23    2    1    2    0    0  0.88174550268E+03 -0.31007702086E+03 -0.90934286709E+03  0.13065808865E+04  0.81401919849E+02 0.  0.
         11    1    3    3    0    0  0.41561123616E+03 -0.11646076011E+03 -0.46018513530E+03  0.63092485053E+03  0.00000000000E+00 0.  1.
        -11    1    3    3    0    0  0.46613426652E+03 -0.19361626074E+03 -0.44915773180E+03  0.67565603593E+03  0.00000000000E+00 0. -1.
         22    1    1    2    0    0 -0.88174550268E+03  0.31007702086E+03  0.29574975332E+04  0.31016793112E+04  0.00000000000E+00 0. -1.
<mgrwt>
<rscale>  0 0.39035651E+04</rscale>
<asrwt>0</asrwt>
<pdfrwt beam="1">  1        2 0.49664729E+00 0.39035651E+04</pdfrwt>
<pdfrwt beam="2">  1       -2 0.18154658E+00 0.39035651E+04</pdfrwt>
<totfact> 0.17461855E-01</totfact>
</mgrwt>
</event>
<event>
 6    1  0.9562506E-007  0.1391260E+04  0.7818608E-02  0.8960169E-01
          1   -1    0    0  501    0  0.00000000000E+00  0.00000000000E+00  0.21528012005E+04  0.21528012005E+04  0.00000000000E+00 0. -1.
         -1   -1    0    0    0  501 -0.00000000000E+00 -0.00000000000E+00 -0.22477737963E+03  0.22477737963E+03  0.00000000000E+00 0.  1.
         23    2    1    2    0    0  0.64235072851E+03  0.91106799595E+02  0.55365402672E+03  0.85777358000E+03  0.91256922398E+02 0.  0.
         13    1    3    3    0    0  0.17886678718E+03  0.19031963564E+02  0.20877220712E+03  0.27557463174E+03  0.00000000000E+00 0.  1.
        -13    1    3    3    0    0  0.46348394133E+03  0.72074836031E+02  0.34488181960E+03  0.58219894826E+03  0.00000000000E+00 0. -1.
         22    1    1    2    0    0 -0.64235072851E+03 -0.91106799595E+02  0.13743697941E+04  0.15198050001E+04  0.00000000000E+00 0. -1.
<mgrwt>
<rscale>  0 0.13912599E+04</rscale>
<asrwt>0</asrwt>
<pdfrwt beam="1">  1        1 0.33120017E+00 0.13912599E+04</pdfrwt>
<pdfrwt beam="2">  1       -1 0.34581137E-01 0.13912599E+04</pdfrwt>
<totfact> 0.18179623E+01</totfact>
</mgrwt>
</event>
<event>
 6    1  0.9562506E-007  0.2329452E+04  0.7818608E-02  0.8466399E-01
          2   -1    0    0  501    0  0.00000000000E+00  0.00000000000E+00  0.11253579896E+04  0.11253579896E+04  0.00000000000E+00 0. -1.
         -2   -1    0    0    0  501 -0.00000000000E+00 -0.00000000000E+00 -0.12054707301E+04  0.12054707301E+04  0.00000000000E+00 0.  1.
         23    2    1    2    0    0 -0.13775647221E+03 -0.10547073625E+04  0.42957663793E+03  0.11513509842E+04  0.98430355545E+02 0.  0.
         11    1    3    3    0    0 -0.62755131622E+01 -0.33797073072E+03  0.16458369234E+03  0.37596727075E+03  0.00000000000E+00 0. -1.
        -11    1    3    3    0    0 -0.13148095904E+03 -0.71673663173E+03  0.26499294558E+03  0.77538371344E+03  0.00000000000E+00 0.  1.
         22    1    1    2    0    0  0.13775647221E+03  0.10547073625E+04 -0.50968937848E+03  0.11794777355E+04  0.00000000000E+00 0. -1.
<mgrwt>
<rscale>  0 0.23294515E+04</rscale>
<asrwt>0</asrwt>
<pdfrwt beam="1">  1        2 0.17313200E+00 0.23294515E+04</pdfrwt>
<pdfrwt beam="2">  1       -2 0.18545704E+00 0.23294515E+04</pdfrwt>
<totfact> 0.31620107E+00</totfact>
</mgrwt>
</event>
<event>
 6    1  0.9562506E-007  0.9597303E+03  0.7818608E-02  0.9353849E-01
         -2   -1    0    0    0  501 -0.00000000000E+00  0.00000000000E+00  0.33390942013E+03  0.33390942013E+03  0.00000000000E+00 0.  1.
          2   -1    0    0  501    0  0.00000000000E+00 -0.00000000000E+00 -0.68961982540E+03  0.68961982540E+03  0.00000000000E+00 0. -1.
         23    2    1    2    0    0 -0.30510166904E+03 -0.17429939306E+03 -0.52079376039E+03  0.63530273818E+03  0.94425215969E+02 0.  0.
         11    1    3    3    0    0 -0.12250593256E+03 -0.10071831870E+03 -0.16620106727E+03  0.22972739932E+03  0.00000000000E+00 0.  1.
        -11    1    3    3    0    0 -0.18259573648E+03 -0.73581074357E+02 -0.35459269312E+03  0.40557533887E+03  0.00000000000E+00 0. -1.
         22    1    1    2    0    0  0.30510166904E+03  0.17429939306E+03  0.16508335511E+03  0.38822650735E+03  0.00000000000E+00 0.  1.
<mgrwt>
<rscale>  0 0.95973029E+03</rscale>
<asrwt>0</asrwt>
<pdfrwt beam="1">  1        2 0.10609536E+00 0.95973029E+03</pdfrwt>
<pdfrwt beam="2">  1       -2 0.51370680E-01 0.95973029E+03</pdfrwt>
<totfact> 0.14958547E+02</totfact>
</mgrwt>
</event>
<event>
 6    1  0.9562506E-007  0.1186246E+04  0.7818608E-02  0.9124982E-01
         -3   -1    0    0    0  501 -0.00000000000E+00  0.00000000000E+00  0.62651594898E+03  0.62651594898E+03  0.00000000000E+00 0.  1.
          3   -1    0    0  501    0  0.00000000000E+00 -0.00000000000E+00 -0.56150944539E+03  0.56150944539E+03  0.00000000000E+00 0. -1.
         23    2    1    2    0    0 -0.39454529438E+03  0.17869971184E+03 -0.36834479419E+03  0.57533222187E+03  0.87918722573E+02 0.  0.
         13    1    3    3    0    0 -0.27097787991E+03  0.10556330438E+03 -0.19452763293E+03  0.34987658196E+03  0.00000000000E+00 0. -1.
        -13    1    3    3    0    0 -0.12356741447E+03  0.73136407463E+02 -0.17381716126E+03  0.22545563991E+03  0.00000000000E+00 0.  1.
         22    1    1    2    0    0  0.39454529438E+03 -0.17869971184E+03  0.43335129779E+03  0.61269317250E+03  0.00000000000E+00 0.  1.
<mgrwt>
<rscale>  0 0.11862455E+04</rscale>
<asrwt>0</asrwt>
<pdfrwt beam="1">  1        3 0.86386069E-01 0.11862455E+04</pdfrwt>
<pdfrwt beam="2">  1       -3 0.96387069E-01 0.11862455E+04</pdfrwt>
<totfact> 0.30182241E+00</totfact>
</mgrwt>
</event>
<event>
 6    1  0.9562506E-007  0.7150905E+03  0.7818608E-02  0.9691768E-01
          1   -1    0    0  501    0  0.00000000000E+00  0.00000000000E+00  0.18148505121E+03  0.18148505121E+03  0.00000000000E+00 0. -1.
         -1   -1    0    0    0  501 -0.00000000000E+00 -0.00000000000E+00 -0.70440300894E+03  0.70440300894E+03  0.00000000000E+00 0.  1.
         23    2    1    2    0    0 -0.22494260787E+03 -0.25153132374E+03 -0.38969210744E+03  0.52309843676E+03  0.88909236200E+02 0.  0.
         11    1    3    3    0    0 -0.87011127988E+02 -0.13580295010E+03 -0.13031188682E+03  0.20735130937E+03  0.00000000000E+00 0. -1.
        -11    1    3    3    0    0 -0.13793147988E+03 -0.11572837364E+03 -0.25938022062E+03  0.31574712739E+03  0.00000000000E+00 0.  1.
         22    1    1    2    0    0  0.22494260787E+03  0.25153132374E+03 -0.13322585029E+03  0.36278962339E+03  0.00000000000E+00 0. -1.
<mgrwt>
<rscale>  0 0.71509053E+03</rscale>
<asrwt>0</asrwt>
<pdfrwt beam="1">  1        1 0.27920777E-01 0.71509053E+03</pdfrwt>
<pdfrwt beam="2">  1       -1 0.10836969E+00 0.71509053E+03</pdfrwt>
<totfact> 0.13566099E+02</totfact>
</mgrwt>
</event>
<event>
 6    1  0.9562506E-007  0.3018930E+04  0.7818608E-02  0.8238346E-01
         -2   -1    0    0    0  501 -0.00000000000E+00  0.00000000000E+00  0.82214532108E+03  0.82214532108E+03  0.00000000000E+00 0.  1.
          2   -1    0    0  501    0  0.00000000000E+00 -0.00000000000E+00 -0.27713889642E+04  0.27713889642E+04  0.00000000000E+00 0. -1.
         23    2    1    2    0    0  0.12465231560E+04 -0.44787538755E+03 -0.18338358386E+04  0.22639737178E+04  0.90613302995E+02 0.  0.
         13    1    3    3    0    0  0.90313338417E+03 -0.32609310621E+03 -0.13964745739E+04  0.16947353360E+04  0.00000000000E+00 0.  1.
        -13    1    3    3    0    0  0.34338977186E+03 -0.12178228134E+03 -0.43736126473E+03  0.56923838184E+03  0.00000000000E+00 0. -1.
         22    1    1    2    0    0 -0.12465231560E+04  0.44787538755E+03 -0.11540780455E+03  0.13295605675E+04  0.00000000000E+00 0.  1.
<mgrwt>
<rscale>  0 0.30189299E+04</rscale>
<asrwt>0</asrwt>
<pdfrwt beam="1">  1        2 0.42636754E+00 0.30189299E+04</pdfrwt>
<pdfrwt beam="2">  1       -2 0.12648389E+00 0.30189299E+04</pdfrwt>
<totfact> 0.95686833E-01</totfact>
</mgrwt>
</event>
<event>
 6    1  0.9562506E-007  0.1441798E+04  0.7818608E-02  0.8924107E-01
         -1   -1    0    0    0  501 -0.00000000000E+00  0.00000000000E+00  0.40503520851E+03  0.40503520851E+03  0.00000000000E+00 0.  1.
          1   -1    0    0  501    0  0.00000000000E+00 -0.00000000000E+00 -0.12830865798E+04  0.12830865798E+04  0.00000000000E+00 0. -1.
         23    2    1    2    0    0  0.64923841292E+03  0.64187230413E+00 -0.80004101860E+03  0.10342131219E+04  0.89555688374E+02 0.  0.
         11    1    3    3    0    0  0.40505440011E+03  0.42389959494E+02 -0.51469723562E+03  0.65633773324E+03  0.00000000000E+00 0. -1.
        -11    1    3    3    0    0  0.24418401281E+03 -0.41748087190E+02 -0.28534378298E+03  0.37787538869E+03  0.00000000000E+00 0.  1.
         22    1    1    2    0    0 -0.64923841292E+03 -0.64187230413E+00 -0.78010352654E+02  0.65390866635E+03  0.00000000000E+00 0.  1.
<mgrwt>
<rscale>  0 0.14417978E+04</rscale>
<asrwt>0</asrwt>
<pdfrwt beam="1">  1        1 0.19739793E+00 0.14417978E+04</pdfrwt>
<pdfrwt beam="2">  1       -1 0.62313109E-01 0.14417978E+04</pdfrwt>
<totfact> 0.23613402E+01</totfact>
</mgrwt>
</event>
<event>
 6    1  0.9562506E-007  0.2131497E+04  0.7818608E-02  0.8547494E-01
         -2   -1    0    0    0  501 -0.00000000000E+00  0.00000000000E+00  0.42483788472E+03  0.42483788472E+03  0.00000000000E+00 0.  1.
          2   -1    0    0  501    0  0.00000000000E+00 -0.00000000000E+00 -0.26735376844E+04  0.26735376844E+04  0.00000000000E+00 0. -1.
         23    2    1    2    0    0  0.59580872741E+03 -0.76547040413E+03 -0.17611826449E+04  0.20127393707E+04  0.91774103470E+02 0.  0.
         11    1    3    3    0    0  0.21935327657E+03 -0.22334383452E+03 -0.61573945942E+03  0.69074844208E+03  0.00000000000E+00 0.  1.
        -11    1    3    3    0    0  0.37645545084E+03 -0.54212656961E+03 -0.11454431855E+04  0.13219909286E+04  0.00000000000E+00 0. -1.
         22    1    1    2    0    0 -0.59580872741E+03  0.76547040413E+03 -0.48751715475E+03  0.10856361985E+04  0.00000000000E+00 0.  1.
<mgrwt>
<rscale>  0 0.21314972E+04</rscale>
<asrwt>0</asrwt>
<pdfrwt beam="1">  1        2 0.41131350E+00 0.21314972E+04</pdfrwt>
<pdfrwt beam="2">  1       -2 0.65359673E-01 0.21314972E+04</pdfrwt>
<totfact> 0.54635164E+00</totfact>
</mgrwt>
</event>
<event>
 6    1  0.9562506E-007  0.2498616E+04  0.7818608E-02  0.8403479E-01
          1   -1    0    0  501    0  0.00000000000E+00  0.00000000000E+00  0.21021812074E+04  0.21021812074E+04  0.00000000000E+00 0. -1.
         -1   -1    0    0    0  501 -0.00000000000E+00 -0.00000000000E+00 -0.74245298819E+03  0.74245298819E+03  0.00000000000E+00 0.  1.
         23    2    1    2    0    0 -0.95614866238E+03 -0.62355590411E+03  0.12540161376E+04  0.16982410369E+04  0.91781893183E+02 0.  0.
         11    1    3    3    0    0 -0.31618412809E+03 -0.15603813326E+03  0.39395067329E+03  0.52869408439E+03  0.00000000000E+00 0.  1.
        -11    1    3    3    0    0 -0.63996453429E+03 -0.46751777085E+03  0.86006546430E+03  0.11695469525E+04  0.00000000000E+00 0. -1.
         22    1    1    2    0    0  0.95614866238E+03  0.62355590411E+03  0.10571208162E+03  0.11463931587E+04  0.00000000000E+00 0.  1.
<mgrwt>
<rscale>  0 0.24986162E+04</rscale>
<asrwt>0</asrwt>
<pdfrwt beam="1">  1        1 0.32341249E+00 0.24986162E+04</pdfrwt>
<pdfrwt beam="2">  1       -1 0.11422354E+00 0.24986162E+04</pdfrwt>
<totfact> 0.15739767E+00</totfact>
</mgrwt>
</event>
<event>
 6    1  0.9562506E-007  0.2108154E+04  0.7818608E-02  0.8557660E-01
         -1   -1    0    0    0  501 -0.00000000000E+00  0.00000000000E+00  0.12874446754E+04  0.12874446754E+04  0.00000000000E+00 0.  1.
          1   -1    0    0  501    0  0.00000000000E+00 -0.00000000000E+00 -0.86301083587E+03  0.86301083587E+03  0.00000000000E+00 0. -1.
         23    2    1    2    0    0 -0.38275485247E+03 -0.97713855123E+03  0.28749346188E+03  0.10921296199E+04  0.93774147050E+02 0.  0.
         13    1    3    3    0    0 -0.30282336798E+03 -0.65399997351E+03  0.19309243141E+03  0.74612508644E+03  0.00000000000E+00 0. -1.
        -13    1    3    3    0    0 -0.79931484493E+02 -0.32313857772E+03  0.94401030473E+02  0.34600453346E+03  0.00000000000E+00 0.  1.
         22    1    1    2    0    0  0.38275485247E+03  0.97713855123E+03  0.13694037770E+03  0.10583258914E+04  0.00000000000E+00 0. -1.
<mgrwt>
<rscale>  0 0.21081544E+04</rscale>
<asrwt>0</asrwt>
<pdfrwt beam="1">  1        1 0.13277090E+00 0.21081544E+04</pdfrwt>
<pdfrwt beam="2">  1       -1 0.19806841E+00 0.21081544E+04</pdfrwt>
<totfact> 0.27853976E+00</totfact>
</mgrwt>
</event>
<event>
 6    1  0.9562506E-007  0.1831235E+04  0.7818608E-02  0.8689863E-01
         -2   -1    0    0    0  501 -0.00000000000E+00  0.00000000000E+00  0.58069089365E+03  0.58069089365E+03  0.00000000000E+00 0.  1.
          2   -1    0    0  501    0  0.00000000000E+00 -0.00000000000E+00 -0.14437209942E+04  0.14437209942E+04  0.00000000000E+00 0. -1.
         23    2    1    2    0    0 -0.73174087116E+03 -0.36711407928E+03 -0.88021829782E+03  0.12055633769E+04  0.91549736539E+02 0.  0.
         13    1    3    3    0    0 -0.27414695079E+03 -0.10706543093E+03 -0.36703354673E+03  0.47046060574E+03  0.00000000000E+00 0.  1.
        -13    1    3    3    0    0 -0.45759392037E+03 -0.26004864835E+03 -0.51318475109E+03  0.73510277120E+03  0.00000000000E+00 0. -1.
         22    1    1    2    0    0  0.73174087116E+03  0.36711407928E+03  0.17188197241E+02  0.81884851093E+03  0.00000000000E+00 0. -1.
<mgrwt>
<rscale>  0 0.18312352E+04</rscale>
<asrwt>0</asrwt>
<pdfrwt beam="1">  1        2 0.22211092E+00 0.18312352E+04</pdfrwt>
<pdfrwt beam="2">  1       -2 0.89337060E-01 0.18312352E+04</pdfrwt>
<totfact> 0.13831560E+01</totfact>
</mgrwt>
</event>
<event>
 6    1  0.9562506E-007  0.2131104E+04  0.7818608E-02  0.8547664E-01
         -1   -1    0    0    0  501 -0.00000000000E+00  0.00000000000E+00  0.60045479752E+03  0.60045479752E+03  0.00000000000E+00 0.  1.
          1   -1    0    0  501    0  0.00000000000E+00 -0.00000000000E+00 -0.18909018405E+04  0.18909018405E+04  0.00000000000E+00 0. -1.
         23    2    1    2    0    0  0.53273069367E+03 -0.78847463829E+03 -0.90773498178E+02  0.96011176495E+03  0.89891746077E+02 0.  0.
         13    1    3    3    0    0  0.11854919657E+03 -0.24704002207E+03 -0.32660253058E+02  0.27595176507E+03  0.00000000000E+00 0.  1.
        -13    1    3    3    0    0  0.41418149710E+03 -0.54143461622E+03 -0.58113245120E+02  0.68415999988E+03  0.00000000000E+00 0. -1.
         22    1    1    2    0    0 -0.53273069367E+03  0.78847463829E+03 -0.11996735448E+04  0.15312448731E+04  0.00000000000E+00 0. -1.
<mgrwt>
<rscale>  0 0.21311040E+04</rscale>
<asrwt>0</asrwt>
<pdfrwt beam="1">  1        1 0.29090797E+00 0.21311040E+04</pdfrwt>
<pdfrwt beam="2">  1       -1 0.92377662E-01 0.21311040E+04</pdfrwt>
<totfact> 0.36947141E+00</totfact>
</mgrwt>
</event>
<event>
 6    1  0.9562506E-007  0.2391744E+04  0.7818608E-02  0.8442601E-01
          2   -1    0    0  501    0  0.00000000000E+00  0.00000000000E+00  0.10792539665E+04  0.10792539665E+04  0.00000000000E+00 0. -1.
         -2   -1    0    0    0  501 -0.00000000000E+00 -0.00000000000E+00 -0.13250912766E+04  0.13250912766E+04  0.00000000000E+00 0.  1.
         23    2    1    2    0    0 -0.30789009071E+03 -0.29981137785E+03  0.99693494734E+03  0.10893676561E+04  0.90329567420E+02 0.  0.
         13    1    3    3    0    0 -0.78622915957E+02 -0.29037294311E+02  0.17026350174E+03  0.18977456995E+03  0.00000000000E+00 0.  1.
        -13    1    3    3    0    0 -0.22926717475E+03 -0.27077408354E+03  0.82667144560E+03  0.89959308618E+03  0.00000000000E+00 0. -1.
         22    1    1    2    0    0  0.30789009071E+03  0.29981137785E+03 -0.12427722575E+04  0.13149775870E+04  0.00000000000E+00 0.  1.
<mgrwt>
<rscale>  0 0.23917441E+04</rscale>
<asrwt>0</asrwt>
<pdfrwt beam="1">  1        2 0.16603907E+00 0.23917441E+04</pdfrwt>
<pdfrwt beam="2">  1       -2 0.20386020E+00 0.23917441E+04</pdfrwt>
<totfact> 0.25336463E+00</totfact>
</mgrwt>
</event>
<event>
 6    1  0.9562506E-007  0.2435393E+04  0.7818608E-02  0.8426370E-01
          2   -1    0    0  501    0  0.00000000000E+00  0.00000000000E+00  0.18660025905E+04  0.18660025905E+04  0.00000000000E+00 0. -1.
         -2   -1    0    0    0  501 -0.00000000000E+00 -0.00000000000E+00 -0.79463196087E+03  0.79463196087E+03  0.00000000000E+00 0.  1.
         23    2    1    2    0    0 -0.61568903977E+03  0.59993050407E+03  0.14760243464E+04  0.17105112784E+04  0.90616548406E+02 0.  0.
         13    1    3    3    0    0 -0.19878257749E+03  0.14620553803E+03  0.46819087510E+03  0.52923838484E+03  0.00000000000E+00 0. -1.
        -13    1    3    3    0    0 -0.41690646228E+03  0.45372496604E+03  0.10078334713E+04  0.11812728935E+04  0.00000000000E+00 0.  1.
         22    1    1    2    0    0  0.61568903977E+03 -0.59993050407E+03 -0.40465371677E+03  0.95012327300E+03  0.00000000000E+00 0.  1.
<mgrwt>
<rscale>  0 0.24353934E+04</rscale>
<asrwt>0</asrwt>
<pdfrwt beam="1">  1        2 0.28707732E+00 0.24353934E+04</pdfrwt>
<pdfrwt beam="2">  1       -2 0.12225107E+00 0.24353934E+04</pdfrwt>
<totfact> 0.36051240E+00</totfact>
</mgrwt>
</event>
<event>
 6    1  0.9562506E-007  0.9425690E+03  0.7818608E-02  0.9373879E-01
         -1   -1    0    0    0  501 -0.00000000000E+00  0.00000000000E+00  0.18592932580E+03  0.18592932580E+03  0.00000000000E+00 0.  1.
          1   -1    0    0  501    0  0.00000000000E+00 -0.00000000000E+00 -0.11945887670E+04  0.11945887670E+04  0.00000000000E+00 0. -1.
         23    2    1    2    0    0  0.25242393266E+03  0.13770775745E+03  0.30534479548E+02  0.30227634201E+03  0.88075900538E+02 0.  0.
         13    1    3    3    0    0  0.17315159471E+03  0.12969135427E+03  0.45849033623E+02  0.22114125804E+03  0.00000000000E+00 0. -1.
        -13    1    3    3    0    0  0.79272337948E+02  0.80164031760E+01 -0.15314554075E+02  0.81135083966E+02  0.00000000000E+00 0.  1.
         22    1    1    2    0    0 -0.25242393266E+03 -0.13770775745E+03 -0.10391939208E+04  0.10782417508E+04  0.00000000000E+00 0. -1.
<mgrwt>
<rscale>  0 0.94256901E+03</rscale>
<asrwt>0</asrwt>
<pdfrwt beam="1">  1        1 0.18378289E+00 0.94256901E+03</pdfrwt>
<pdfrwt beam="2">  1       -1 0.28604512E-01 0.94256901E+03</pdfrwt>
<totfact> 0.12015672E+02</totfact>
</mgrwt>
</event>
<event>
 6    1  0.9562506E-007  0.2601832E+04  0.7818608E-02  0.8367579E-01
          2   -1    0    0  501    0  0.00000000000E+00  0.00000000000E+00  0.31769541071E+04  0.31769541071E+04  0.00000000000E+00 0. -1.
         -2   -1    0    0    0  501 -0.00000000000E+00 -0.00000000000E+00 -0.53270579562E+03  0.53270579562E+03  0.00000000000E+00 0.  1.
         23    2    1    2    0    0 -0.22083964786E+03  0.75757314307E+03  0.27955067045E+04  0.29061884853E+04  0.91578162235E+02 0.  0.
         13    1    3    3    0    0 -0.19559327890E+03  0.57987171049E+03  0.20510325817E+04  0.21403837465E+04  0.00000000000E+00 0.  1.
        -13    1    3    3    0    0 -0.25246368953E+02  0.17770143258E+03  0.74447412281E+03  0.76580473871E+03  0.00000000000E+00 0. -1.
         22    1    1    2    0    0  0.22083964786E+03 -0.75757314307E+03 -0.15125839304E+03  0.80347141743E+03  0.00000000000E+00 0.  1.
<mgrwt>
<rscale>  0 0.26018316E+04</rscale>
<asrwt>0</asrwt>
<pdfrwt beam="1">  1        2 0.48876216E+00 0.26018316E+04</pdfrwt>
<pdfrwt beam="2">  1       -2 0.81954740E-01 0.26018316E+04</pdfrwt>
<totfact> 0.15542542E+00</totfact>
</mgrwt>
</event>
<event>
 6    1  0.9562506E-007  0.1289413E+04  0.7818608E-02  0.9038003E-01
         -2   -1    0    0    0  501 -0.00000000000E+00  0.00000000000E+00  0.53039052656E+03  0.53039052656E+03  0.00000000000E+00 0.  1.
          2   -1    0    0  501    0  0.00000000000E+00 -0.00000000000E+00 -0.78366170884E+03  0.78366170884E+03  0.00000000000E+00 0. -1.
         23    2    1    2    0    0 -0.75072000363E+02 -0.52747852930E+03  0.23971172420E+03  0.58817238985E+03  0.67938540986E+02 0.  0.
         11    1    3    3    0    0 -0.24045602558E+02 -0.19961326003E+03  0.55140110548E+02  0.20848039805E+03  0.00000000000E+00 0. -1.
        -11    1    3    3    0    0 -0.51026397805E+02 -0.32786526927E+03  0.18457161365E+03  0.37969199179E+03  0.00000000000E+00 0.  1.
         22    1    1    2    0    0  0.75072000363E+02  0.52747852930E+03 -0.49298290648E+03  0.72587984555E+03  0.00000000000E+00 0. -1.
<mgrwt>
<rscale>  0 0.12894134E+04</rscale>
<asrwt>0</asrwt>
<pdfrwt beam="1">  1        2 0.12056334E+00 0.12894134E+04</pdfrwt>
<pdfrwt beam="2">  1       -2 0.81598544E-01 0.12894134E+04</pdfrwt>
<totfact> 0.45925902E+01</totfact>
</mgrwt>
</event>
<event>
 6    1  0.9562506E-007  0.1941336E+04  0.7818608E-02  0.8634550E-01
         -2   -1    0    0    0  501 -0.00000000000E+00  0.00000000000E+00  0.77578479306E+03  0.77578479306E+03  0.00000000000E+00 0.  1.
          2   -1    0    0  501    0  0.00000000000E+00 -0.00000000000E+00 -0.12145079819E+04  0.12145079819E+04  0.00000000000E+00 0. -1.
         23    2    1    2    0    0 -0.94273381565E+03  0.12278981263E+03 -0.41061840430E+03  0.10391806553E+04  0.86397773280E+02 0.  0.
         13    1    3    3    0    0 -0.38058507319E+03  0.40518556535E+02 -0.21067436555E+03  0.43688721617E+03  0.00000000000E+00 0.  1.
        -13    1    3    3    0    0 -0.56214874246E+03  0.82271256094E+02 -0.19994403876E+03  0.60229343917E+03  0.00000000000E+00 0. -1.
         22    1    1    2    0    0  0.94273381565E+03 -0.12278981263E+03 -0.28104784583E+02  0.95111211967E+03  0.00000000000E+00 0.  1.
<mgrwt>
<rscale>  0 0.19413365E+04</rscale>
<asrwt>0</asrwt>
<pdfrwt beam="1">  1        2 0.18684738E+00 0.19413365E+04</pdfrwt>
<pdfrwt beam="2">  1       -2 0.11935151E+00 0.19413365E+04</pdfrwt>
<totfact> 0.93292977E+00</totfact>
</mgrwt>
</event>
<event>
 6    1  0.9562506E-007  0.6975596E+03  0.7818608E-02  0.9721415E-01
         -1   -1    0    0    0  501 -0.00000000000E+00  0.00000000000E+00  0.44483694550E+03  0.44483694550E+03  0.00000000000E+00 0.  1.
          1   -1    0    0  501    0  0.00000000000E+00 -0.00000000000E+00 -0.27346505368E+03  0.27346505368E+03  0.00000000000E+00 0. -1.
         23    2    1    2    0    0  0.56274502699E+01 -0.13005698882E+03  0.41361362113E+03  0.44329737385E+03  0.92140357822E+02 0.  0.
         13    1    3    3    0    0 -0.18966876442E+02  0.65507944829E+01  0.66444215731E+02  0.69408134354E+02  0.00000000000E+00 0. -1.
        -13    1    3    3    0    0  0.24594326711E+02 -0.13660778330E+03  0.34716940540E+03  0.37388923950E+03  0.00000000000E+00 0.  1.
         22    1    1    2    0    0 -0.56274502699E+01  0.13005698882E+03 -0.24224172931E+03  0.27500462533E+03  0.00000000000E+00 0. -1.
<mgrwt>
<rscale>  0 0.69755963E+03</rscale>
<asrwt>0</asrwt>
<pdfrwt beam="1">  1        1 0.42071547E-01 0.69755963E+03</pdfrwt>
<pdfrwt beam="2">  1       -1 0.68436453E-01 0.69755963E+03</pdfrwt>
<totfact> 0.21693943E+02</totfact>
</mgrwt>
</event>
<event>
 6    1  0.9562506E-007  0.2826061E+04  0.7818608E-02  0.8295223E-01
         -2   -1    0    0    0  501 -0.00000000000E+00  0.00000000000E+00  0.15097310703E+04  0.15097310703E+04  0.00000000000E+00 0.  1.
          2   -1    0    0  501    0  0.00000000000E+00 -0.00000000000E+00 -0.13225239129E+04  0.13225239129E+04  0.00000000000E+00 0. -1.
         23    2    1    2    0    0  0.61241563214E+03 -0.77030994769E+03  0.11071577087E+04  0.14851323686E+04  0.10672224926E+03 0.  0.
         11    1    3    3    0    0  0.24036083502E+03 -0.22186592382E+03  0.37031195584E+03  0.49409388157E+03  0.00000000000E+00 0. -1.
        -11    1    3    3    0    0  0.37205479712E+03 -0.54844402387E+03  0.73684575284E+03  0.99103848707E+03  0.00000000000E+00 0.  1.
         22    1    1    2    0    0 -0.61241563214E+03  0.77030994769E+03 -0.91995055130E+03  0.13471226146E+04  0.00000000000E+00 0. -1.
<mgrwt>
<rscale>  0 0.28260612E+04</rscale>
<asrwt>0</asrwt>
<pdfrwt beam="1">  1        2 0.20346522E+00 0.28260612E+04</pdfrwt>
<pdfrwt beam="2">  1       -2 0.23226632E+00 0.28260612E+04</pdfrwt>
<totfact> 0.11525320E+00</totfact>
</mgrwt>
</event>
<event>
 6    1  0.9562506E-007  0.3055486E+04  0.7818608E-02  0.8228062E-01
          2   -1    0    0  501    0  0.00000000000E+00  0.00000000000E+00  0.22331424056E+04  0.22331424056E+04  0.00000000000E+00 0. -1.
         -2   -1    0    0    0  501 -0.00000000000E+00 -0.00000000000E+00 -0.10451632709E+04  0.10451632709E+04  0.00000000000E+00 0.  1.
         23    2    1    2    0    0 -0.83803127067E+02 -0.81509528230E+03 -0.78716872805E+03  0.11399389253E+04  0.91776160525E+02 0.  0.
         11    1    3    3    0    0 -0.50562424213E+01 -0.25795432727E+03 -0.29983498005E+03  0.39555911797E+03  0.00000000000E+00 0. -1.
        -11    1    3    3    0    0 -0.78746884646E+02 -0.55714095503E+03 -0.48733374799E+03  0.74437980732E+03  0.00000000000E+00 0.  1.
         22    1    1    2    0    0  0.83803127067E+02  0.81509528230E+03  0.19751478627E+04  0.21383667513E+04  0.00000000000E+00 0. -1.
<mgrwt>
<rscale>  0 0.30554858E+04</rscale>
<asrwt>0</asrwt>
<pdfrwt beam="1">  1        2 0.34356037E+00 0.30554858E+04</pdfrwt>
<pdfrwt beam="2">  1       -2 0.16079435E+00 0.30554858E+04</pdfrwt>
<totfact> 0.10474332E+00</totfact>
</mgrwt>
</event>
<event>
 6    1  0.9562506E-007  0.4456042E+04  0.7818608E-02  0.7918378E-01
          2   -1    0    0  501    0  0.00000000000E+00  0.00000000000E+00  0.19777980211E+04  0.19777980211E+04  0.00000000000E+00 0. -1.
         -2   -1    0    0    0  501 -0.00000000000E+00 -0.00000000000E+00 -0.25099009104E+04  0.25099009104E+04  0.00000000000E+00 0.  1.
         23    2    1    2    0    0 -0.16898468074E+04  0.42655631272E+03  0.11301758933E+04  0.20792340114E+04  0.91564206211E+02 0.  0.
         13    1    3    3    0    0 -0.92698601549E+03  0.19193638979E+03  0.63752200892E+03  0.11413049384E+04  0.00000000000E+00 0.  1.
        -13    1    3    3    0    0 -0.76286079192E+03  0.23461992292E+03  0.49265388434E+03  0.93792907293E+03  0.00000000000E+00 0. -1.
         22    1    1    2    0    0  0.16898468074E+04 -0.42655631272E+03 -0.16622787826E+04  0.24084649201E+04  0.00000000000E+00 0.  1.
<mgrwt>
<rscale>  0 0.44560418E+04</rscale>
<asrwt>0</asrwt>
<pdfrwt beam="1">  1        2 0.30427662E+00 0.44560418E+04</pdfrwt>
<pdfrwt beam="2">  1       -2 0.38613860E+00 0.44560418E+04</pdfrwt>
<totfact> 0.47759958E-02</totfact>
</mgrwt>
</event>
<event>
 6    1  0.9562506E-007  0.1346157E+04  0.7818608E-02  0.8993742E-01
          2   -1    0    0  501    0  0.00000000000E+00  0.00000000000E+00  0.26938341056E+04  0.26938341056E+04  0.00000000000E+00 0. -1.
         -2   -1    0    0    0  501 -0.00000000000E+00 -0.00000000000E+00 -0.16817466817E+03  0.16817466817E+03  0.00000000000E+00 0.  1.
         23    2    1    2    0    0  0.21256787545E+03 -0.10289582595E+03  0.26017307020E+04  0.26138969241E+04  0.87646056281E+02 0.  0.
         13    1    3    3    0    0  0.70500002018E+02  0.86848325142E+01  0.78460672790E+03  0.78781558379E+03  0.00000000000E+00 0. -1.
        -13    1    3    3    0    0  0.14206787343E+03 -0.11158065846E+03  0.18171239741E+04  0.18260813403E+04  0.00000000000E+00 0.  1.
         22    1    1    2    0    0 -0.21256787545E+03  0.10289582595E+03 -0.76071264583E+02  0.24811184971E+03  0.00000000000E+00 0.  1.
<mgrwt>
<rscale>  0 0.13461570E+04</rscale>
<asrwt>0</asrwt>
<pdfrwt beam="1">  1        2 0.41443598E+00 0.13461570E+04</pdfrwt>
<pdfrwt beam="2">  1       -2 0.25873028E-01 0.13461570E+04</pdfrwt>
<totfact> 0.35486107E+01</totfact>
</mgrwt>
</event>
<event>
 6    1  0.9562506E-007  0.2146052E+04  0.7818608E-02  0.8541224E-01
          4   -1    0    0  501    0  0.00000000000E+00  0.00000000000E+00  0.30240054765E+04  0.30240054765E+04  0.00000000000E+00 0. -1.
         -4   -1    0    0    0  501 -0.00000000000E+00 -0.00000000000E+00 -0.38074822159E+03  0.38074822159E+03  0.00000000000E+00 0.  1.
         23    2    1    2    0    0  0.88426728141E+03  0.57082996213E+03  0.10053419241E+04  0.14578222402E+04  0.82206016341E+02 0.  0.
         11    1    3    3    0    0  0.31067960591E+03  0.24156330741E+03  0.34785501773E+03  0.52524067091E+03  0.00000000000E+00 0.  1.
        -11    1    3    3    0    0  0.57358767550E+03  0.32926665472E+03  0.65748690632E+03  0.93258156929E+03  0.00000000000E+00 0. -1.
         22    1    1    2    0    0 -0.88426728141E+03 -0.57082996213E+03  0.16379153308E+04  0.19469314579E+04  0.00000000000E+00 0. -1.
<mgrwt>
<rscale>  0 0.21460519E+04</rscale>
<asrwt>0</asrwt>
<pdfrwt beam="1">  1        4 0.46523160E+00 0.21460519E+04</pdfrwt>
<pdfrwt beam="2">  1       -4 0.58576651E-01 0.21460519E+04</pdfrwt>
<totfact> 0.11551647E-02</totfact>
</mgrwt>
</event>
<event>
 6    1  0.9562506E-007  0.1546110E+04  0.7818608E-02  0.8854356E-01
          1   -1    0    0  501    0  0.00000000000E+00  0.00000000000E+00  0.10527410967E+04  0.10527410967E+04  0.00000000000E+00 0. -1.
         -1   -1    0    0    0  501 -0.00000000000E+00 -0.00000000000E+00 -0.56767434702E+03  0.56767434702E+03  0.00000000000E+00 0.  1.
         23    2    1    2    0    0 -0.11695508322E+03 -0.30444097687E+03 -0.48823201202E+03  0.59392955516E+03  0.89548975712E+02 0.  0.
         13    1    3    3    0    0 -0.20599791653E+02 -0.15747312108E+03 -0.18857047804E+03  0.24653794935E+03  0.00000000000E+00 0.  1.
        -13    1    3    3    0    0 -0.96355291567E+02 -0.14696785579E+03 -0.29966153397E+03  0.34739160582E+03  0.00000000000E+00 0. -1.
         22    1    1    2    0    0  0.11695508322E+03  0.30444097687E+03  0.97329876166E+03  0.10264858885E+04  0.00000000000E+00 0. -1.
<mgrwt>
<rscale>  0 0.15461101E+04</rscale>
<asrwt>0</asrwt>
<pdfrwt beam="1">  1        1 0.16196017E+00 0.15461101E+04</pdfrwt>
<pdfrwt beam="2">  1       -1 0.87334515E-01 0.15461101E+04</pdfrwt>
<totfact> 0.17132981E+01</totfact>
</mgrwt>
</event>
<event>
 6    1  0.9562506E-007  0.3564443E+04  0.7818608E-02  0.8098685E-01
          2   -1    0    0  501    0  0.00000000000E+00  0.00000000000E+00  0.29939002154E+04  0.29939002154E+04  0.00000000000E+00 0. -1.
         -2   -1    0    0    0  501 -0.00000000000E+00 -0.00000000000E+00 -0.10609282594E+04  0.10609282594E+04  0.00000000000E+00 0.  1.
         23    2    1    2    0    0  0.44660724287E+03  0.11932008178E+04 -0.44885376136E+03  0.13536657680E+04  0.88062995866E+02 0.  0.
         11    1    3    3    0    0  0.13232200686E+03  0.28048901379E+03 -0.13888806048E+03  0.33981332184E+03  0.00000000000E+00 0.  1.
        -11    1    3    3    0    0  0.31428523601E+03  0.91271180402E+03 -0.30996570088E+03  0.10138524461E+04  0.00000000000E+00 0. -1.
         22    1    1    2    0    0 -0.44660724287E+03 -0.11932008178E+04  0.23818257173E+04  0.27011627068E+04  0.00000000000E+00 0. -1.
<mgrwt>
<rscale>  0 0.35644429E+04</rscale>
<asrwt>0</asrwt>
<pdfrwt beam="1">  1        2 0.46060003E+00 0.35644429E+04</pdfrwt>
<pdfrwt beam="2">  1       -2 0.16321973E+00 0.35644429E+04</pdfrwt>
<totfact> 0.34224798E-01</totfact>
</mgrwt>
</event>
<event>
 6    1  0.9562506E-007  0.3480407E+04  0.7818608E-02  0.8118449E-01
          2   -1    0    0  501    0  0.00000000000E+00  0.00000000000E+00  0.31978192481E+04  0.31978192481E+04  0.00000000000E+00 0. -1.
         -2   -1    0    0    0  501 -0.00000000000E+00 -0.00000000000E+00 -0.94699172560E+03  0.94699172560E+03  0.00000000000E+00 0.  1.
         23    2    1    2    0    0 -0.22442687827E+03  0.27800067821E+03  0.31529985504E+04  0.31744685783E+04  0.90548853721E+02 0.  0.
         11    1    3    3    0    0 -0.19681760433E+03  0.24890635747E+03  0.24709585377E+04  0.24912502161E+04  0.00000000000E+00 0.  1.
        -11    1    3    3    0    0 -0.27609273944E+02  0.29094320731E+02  0.68204001270E+03  0.68321836219E+03  0.00000000000E+00 0. -1.
         22    1    1    2    0    0  0.22442687827E+03 -0.27800067821E+03 -0.90217102790E+03  0.97034239542E+03  0.00000000000E+00 0.  1.
<mgrwt>
<rscale>  0 0.34804071E+04</rscale>
<asrwt>0</asrwt>
<pdfrwt beam="1">  1        2 0.49197219E+00 0.34804071E+04</pdfrwt>
<pdfrwt beam="2">  1       -2 0.14569104E+00 0.34804071E+04</pdfrwt>
<totfact> 0.34615013E-01</totfact>
</mgrwt>
</event>
<event>
 6    1  0.9562506E-007  0.3399075E+04  0.7818608E-02  0.8138133E-01
          2   -1    0    0  501    0  0.00000000000E+00  0.00000000000E+00  0.13621573536E+04  0.13621573536E+04  0.00000000000E+00 0. -1.
         -2   -1    0    0    0  501 -0.00000000000E+00 -0.00000000000E+00 -0.21204805836E+04  0.21204805836E+04  0.00000000000E+00 0.  1.
         23    2    1    2    0    0 -0.62143497240E+03 -0.12970125601E+04  0.54656171317E+03  0.15406936226E+04  0.81142630681E+02 0.  0.
         13    1    3    3    0    0 -0.14893256994E+03 -0.26314293646E+03  0.87493952647E+02  0.31477024501E+03  0.00000000000E+00 0. -1.
        -13    1    3    3    0    0 -0.47250240246E+03 -0.10338696236E+04  0.45906776052E+03  0.12259233776E+04  0.00000000000E+00 0.  1.
         22    1    1    2    0    0  0.62143497240E+03  0.12970125601E+04 -0.13048849433E+04  0.19419443146E+04  0.00000000000E+00 0.  1.
<mgrwt>
<rscale>  0 0.33990753E+04</rscale>
<asrwt>0</asrwt>
<pdfrwt beam="1">  1        2 0.20956267E+00 0.33990753E+04</pdfrwt>
<pdfrwt beam="2">  1       -2 0.32622778E+00 0.33990753E+04</pdfrwt>
<totfact> 0.27609182E-01</totfact>
</mgrwt>
</event>
<event>
 6    1  0.9562506E-007  0.1149324E+04  0.7818608E-02  0.9158408E-01
          1   -1    0    0  501    0  0.00000000000E+00  0.00000000000E+00  0.49874664174E+03  0.49874664174E+03  0.00000000000E+00 0. -1.
         -1   -1    0    0    0  501 -0.00000000000E+00 -0.00000000000E+00 -0.66213219711E+03  0.66213219711E+03  0.00000000000E+00 0.  1.
         23    2    1    2    0    0 -0.47568688196E+03 -0.29688896877E+03 -0.19091014399E+03  0.59947107936E+03  0.92183634447E+02 0.  0.
         13    1    3    3    0    0 -0.34152667980E+02 -0.15460681446E+02  0.97568325455E+01  0.38738006947E+02  0.00000000000E+00 0.  1.
        -13    1    3    3    0    0 -0.44153421398E+03 -0.28142828733E+03 -0.20066697653E+03  0.56073307241E+03  0.00000000000E+00 0. -1.
         22    1    1    2    0    0  0.47568688196E+03  0.29688896877E+03  0.27524588622E+02  0.56140775950E+03  0.00000000000E+00 0.  1.
<mgrwt>
<rscale>  0 0.11493236E+04</rscale>
<asrwt>0</asrwt>
<pdfrwt beam="1">  1        1 0.76730253E-01 0.11493236E+04</pdfrwt>
<pdfrwt beam="2">  1       -1 0.10186649E+00 0.11493236E+04</pdfrwt>
<totfact> 0.40371417E+01</totfact>
</mgrwt>
</event>
<event>
 6    1  0.9562506E-007  0.1579946E+04  0.7818608E-02  0.8832964E-01
         -2   -1    0    0    0  501 -0.00000000000E+00  0.00000000000E+00  0.34383934084E+03  0.34383934084E+03  0.00000000000E+00 0.  1.
          2   -1    0    0  501    0  0.00000000000E+00 -0.00000000000E+00 -0.18149671524E+04  0.18149671524E+04  0.00000000000E+00 0. -1.
         23    2    1    2    0    0 -0.30402492323E+03 -0.19537580745E+03  0.21799012111E+03  0.43146105860E+03  0.89644253033E+02 0.  0.
         13    1    3    3    0    0 -0.23303368572E+03 -0.13748655640E+03  0.11603541958E+03  0.29440018761E+03  0.00000000000E+00 0. -1.
        -13    1    3    3    0    0 -0.70991237517E+02 -0.57889251048E+02  0.10195470153E+03  0.13706087099E+03  0.00000000000E+00 0.  1.
         22    1    1    2    0    0  0.30402492323E+03  0.19537580745E+03 -0.16891179326E+04  0.17273454346E+04  0.00000000000E+00 0. -1.
<mgrwt>
<rscale>  0 0.15799457E+04</rscale>
<asrwt>0</asrwt>
<pdfrwt beam="1">  1        2 0.27922571E+00 0.15799457E+04</pdfrwt>
<pdfrwt beam="2">  1       -2 0.52898361E-01 0.15799457E+04</pdfrwt>
<totfact> 0.27401782E+01</totfact>
</mgrwt>
</event>
<event>
 6    1  0.9562506E-007  0.1180343E+04  0.7818608E-02  0.9130239E-01
         -2   -1    0    0    0  501 -0.00000000000E+00  0.00000000000E+00  0.38442180748E+03  0.38442180748E+03  0.00000000000E+00 0.  1.
          2   -1    0    0  501    0  0.00000000000E+00 -0.00000000000E+00 -0.90604161255E+03  0.90604161255E+03  0.00000000000E+00 0. -1.
         23    2    1    2    0    0 -0.41423631211E+03  0.19116390786E+03  0.14093684053E+03  0.48602779764E+03  0.90688836850E+02 0.  0.
         13    1    3    3    0    0 -0.17589078771E+03  0.13042950819E+03  0.59101422685E+02  0.22680917964E+03  0.00000000000E+00 0. -1.
        -13    1    3    3    0    0 -0.23834552440E+03  0.60734399666E+02  0.81835417845E+02  0.25921861800E+03  0.00000000000E+00 0.  1.
         22    1    1    2    0    0  0.41423631211E+03 -0.19116390786E+03 -0.66255664560E+03  0.80443562239E+03  0.00000000000E+00 0. -1.
<mgrwt>
<rscale>  0 0.11803426E+04</rscale>
<asrwt>0</asrwt>
<pdfrwt beam="1">  1        2 0.13939102E+00 0.11803426E+04</pdfrwt>
<pdfrwt beam="2">  1       -2 0.59141817E-01 0.11803426E+04</pdfrwt>
<totfact> 0.76639143E+01</totfact>
</mgrwt>
</event>
<event>
 6    1  0.9562506E-007  0.6835118E+03  0.7818608E-02  0.9745852E-01
         -2   -1    0    0    0  501 -0.00000000000E+00  0.00000000000E+00  0.89459983394E+02  0.89459983394E+02  0.00000000000E+00 0.  1.
          2   -1    0    0  501    0  0.00000000000E+00 -0.00000000000E+00 -0.13055791937E+04  0.13055791937E+04  0.00000000000E+00 0. -1.
         23    2    1    2    0    0 -0.20138104912E+03 -0.14909632436E+03 -0.10787956115E+04  0.11093088642E+04  0.63104231176E+02 0.  0.
         11    1    3    3    0    0 -0.66632042878E+00  0.62902318691E+00 -0.66346651272E+02  0.66352978743E+02  0.00000000000E+00 0. -1.
        -11    1    3    3    0    0 -0.20071472869E+03 -0.14972534754E+03 -0.10124489602E+04  0.10429558855E+04  0.00000000000E+00 0.  1.
         22    1    1    2    0    0  0.20138104912E+03  0.14909632436E+03 -0.13732359875E+03  0.28573031280E+03  0.00000000000E+00 0.  1.
<mgrwt>
<rscale>  0 0.68351179E+03</rscale>
<asrwt>0</asrwt>
<pdfrwt beam="1">  1        2 0.20085833E+00 0.68351179E+03</pdfrwt>
<pdfrwt beam="2">  1       -2 0.13763075E-01 0.68351179E+03</pdfrwt>
<totfact> 0.67241566E+02</totfact>
</mgrwt>
</event>
<event>
 6    1  0.9562506E-007  0.2172317E+04  0.7818608E-02  0.8530039E-01
         -1   -1    0    0    0  501 -0.00000000000E+00  0.00000000000E+00  0.12936277202E+04  0.12936277202E+04  0.00000000000E+00 0.  1.
          1   -1    0    0  501    0  0.00000000000E+00 -0.00000000000E+00 -0.91196278673E+03  0.91196278673E+03  0.00000000000E+00 0. -1.
         23    2    1    2    0    0  0.25977191835E+03  0.94864296613E+03 -0.27216366749E+03  0.10245330290E+04  0.90498280494E+02 0.  0.
         11    1    3    3    0    0  0.21292518355E+03  0.81517461207E+03 -0.26370579893E+03  0.88282927588E+03  0.00000000000E+00 0.  1.
        -11    1    3    3    0    0  0.46846734803E+02  0.13346835406E+03 -0.84578685601E+01  0.14170375308E+03  0.00000000000E+00 0. -1.
         22    1    1    2    0    0 -0.25977191835E+03 -0.94864296613E+03  0.65382860092E+03  0.11810574779E+04  0.00000000000E+00 0.  1.
<mgrwt>
<rscale>  0 0.21723170E+04</rscale>
<asrwt>0</asrwt>
<pdfrwt beam="1">  1        1 0.14030197E+00 0.21723170E+04</pdfrwt>
<pdfrwt beam="2">  1       -1 0.19901965E+00 0.21723170E+04</pdfrwt>
<totfact> 0.24854439E+00</totfact>
</mgrwt>
</event>
<event>
 6    1  0.9562506E-007  0.4724070E+04  0.7818608E-02  0.7872541E-01
         -2   -1    0    0    0  501 -0.00000000000E+00  0.00000000000E+00  0.45840074248E+04  0.45840074248E+04  0.00000000000E+00 0.  1.
          2   -1    0    0  501    0  0.00000000000E+00 -0.00000000000E+00 -0.12171029587E+04  0.12171029587E+04  0.00000000000E+00 0. -1.
         23    2    1    2    0    0 -0.23096159808E+04 -0.47380168511E+03  0.18395705255E+04  0.29919177980E+04  0.93479282371E+02 0.  0.
         11    1    3    3    0    0 -0.91786227893E+03 -0.23390422893E+03  0.72561527728E+03  0.11931889549E+04  0.00000000000E+00 0. -1.
        -11    1    3    3    0    0 -0.13917537019E+04 -0.23989745619E+03  0.11139552482E+04  0.17987288432E+04  0.00000000000E+00 0.  1.
         22    1    1    2    0    0  0.23096159808E+04  0.47380168511E+03  0.15273339406E+04  0.28091925854E+04  0.00000000000E+00 0. -1.
<mgrwt>
<rscale>  0 0.47240699E+04</rscale>
<asrwt>0</asrwt>
<pdfrwt beam="1">  1        2 0.18724661E+00 0.47240699E+04</pdfrwt>
<pdfrwt beam="2">  1       -2 0.70523190E+00 0.47240699E+04</pdfrwt>
<totfact> 0.30175059E-03</totfact>
</mgrwt>
</event>
<event>
 6    1  0.9562506E-007  0.1223629E+04  0.7818608E-02  0.9092422E-01
         -2   -1    0    0    0  501 -0.00000000000E+00  0.00000000000E+00  0.17815005730E+03  0.17815005730E+03  0.00000000000E+00 0.  1.
          2   -1    0    0  501    0  0.00000000000E+00 -0.00000000000E+00 -0.21011337937E+04  0.21011337937E+04  0.00000000000E+00 0. -1.
         23    2    1    2    0    0  0.27812688668E+03  0.27611436108E+03 -0.10008604992E+03  0.41473305233E+03  0.91611035478E+02 0.  0.
         13    1    3    3    0    0  0.44695915455E+02  0.17352458548E+02 -0.37029652938E+02  0.60580754970E+02  0.00000000000E+00 0. -1.
        -13    1    3    3    0    0  0.23343097122E+03  0.25876190253E+03 -0.63056396987E+02  0.35415229736E+03  0.00000000000E+00 0.  1.
         22    1    1    2    0    0 -0.27812688668E+03 -0.27611436108E+03 -0.18228976865E+04  0.18645507987E+04  0.00000000000E+00 0. -1.
<mgrwt>
<rscale>  0 0.12236292E+04</rscale>
<asrwt>0</asrwt>
<pdfrwt beam="1">  1        2 0.32325133E+00 0.12236292E+04</pdfrwt>
<pdfrwt beam="2">  1       -2 0.27407703E-01 0.12236292E+04</pdfrwt>
<totfact> 0.70231463E+01</totfact>
</mgrwt>
</event>
<event>
 6    1  0.9562506E-007  0.1752692E+04  0.7818608E-02  0.8731870E-01
         -2   -1    0    0    0  501 -0.00000000000E+00  0.00000000000E+00  0.62518586360E+03  0.62518586360E+03  0.00000000000E+00 0.  1.
          2   -1    0    0  501    0  0.00000000000E+00 -0.00000000000E+00 -0.12284068634E+04  0.12284068634E+04  0.00000000000E+00 0. -1.
         23    2    1    2    0    0  0.33420074206E+01 -0.65972449494E+03 -0.90845121282E+03  0.11266724692E+04  0.94125812594E+02 0.  0.
         13    1    3    3    0    0  0.46911236440E+02 -0.31920878175E+03 -0.46162567256E+03  0.56319905186E+03  0.00000000000E+00 0.  1.
        -13    1    3    3    0    0 -0.43569229019E+02 -0.34051571319E+03 -0.44682554027E+03  0.56347341737E+03  0.00000000000E+00 0. -1.
         22    1    1    2    0    0 -0.33420074206E+01  0.65972449494E+03  0.30523021302E+03  0.72692025778E+03  0.00000000000E+00 0.  1.
<mgrwt>
<rscale>  0 0.17526923E+04</rscale>
<asrwt>0</asrwt>
<pdfrwt beam="1">  1        2 0.18898567E+00 0.17526923E+04</pdfrwt>
<pdfrwt beam="2">  1       -2 0.96182442E-01 0.17526923E+04</pdfrwt>
<totfact> 0.15631506E+01</totfact>
</mgrwt>
</event>
<event>
 6    1  0.9562506E-007  0.4655176E+04  0.7818608E-02  0.7884019E-01
          2   -1    0    0  501    0  0.00000000000E+00  0.00000000000E+00  0.22718412289E+04  0.22718412289E+04  0.00000000000E+00 0. -1.
         -2   -1    0    0    0  501 -0.00000000000E+00 -0.00000000000E+00 -0.23847025325E+04  0.23847025325E+04  0.00000000000E+00 0.  1.
         23    2    1    2    0    0  0.13942738962E+04  0.17416643679E+04 -0.71689501498E+03  0.23452127180E+04  0.93218894526E+02 0.  0.
         13    1    3    3    0    0  0.85973198837E+03  0.10011630708E+04 -0.41775462403E+03  0.13841912845E+04  0.00000000000E+00 0. -1.
        -13    1    3    3    0    0  0.53454190782E+03  0.74050129710E+03 -0.29914039095E+03  0.96102143354E+03  0.00000000000E+00 0.  1.
         22    1    1    2    0    0 -0.13942738962E+04 -0.17416643679E+04  0.60403371132E+03  0.23113310434E+04  0.00000000000E+00 0. -1.
<mgrwt>
<rscale>  0 0.46551758E+04</rscale>
<asrwt>0</asrwt>
<pdfrwt beam="1">  1        2 0.34951404E+00 0.46551758E+04</pdfrwt>
<pdfrwt beam="2">  1       -2 0.36687731E+00 0.46551758E+04</pdfrwt>
<totfact> 0.42786901E-02</totfact>
</mgrwt>
</event>
<event>
 6    1  0.9562506E-007  0.1196266E+04  0.7818608E-02  0.9116131E-01
          2   -1    0    0  501    0  0.00000000000E+00  0.00000000000E+00  0.12793715062E+04  0.12793715062E+04  0.00000000000E+00 0. -1.
         -2   -1    0    0    0  501 -0.00000000000E+00 -0.00000000000E+00 -0.27963980978E+03  0.27963980978E+03  0.00000000000E+00 0.  1.
         23    2    1    2    0    0  0.54056217711E+03  0.24653476504E+03  0.53560140575E+03  0.80508573318E+03  0.91144468990E+02 0.  0.
         11    1    3    3    0    0  0.30735423010E+03  0.17084458738E+03  0.36191916788E+03  0.50461864797E+03  0.00000000000E+00 0. -1.
        -11    1    3    3    0    0  0.23320794700E+03  0.75690177661E+02  0.17368223787E+03  0.30046708520E+03  0.00000000000E+00 0.  1.
         22    1    1    2    0    0 -0.54056217711E+03 -0.24653476504E+03  0.46413029068E+03  0.75392558281E+03  0.00000000000E+00 0. -1.
<mgrwt>
<rscale>  0 0.11962662E+04</rscale>
<asrwt>0</asrwt>
<pdfrwt beam="1">  1        2 0.19682638E+00 0.11962662E+04</pdfrwt>
<pdfrwt beam="2">  1       -2 0.43021510E-01 0.11962662E+04</pdfrwt>
<totfact> 0.85890262E+01</totfact>
</mgrwt>
</event>
<event>
 6    1  0.9562506E-007  0.3037041E+04  0.7818608E-02  0.8233232E-01
         -1   -1    0    0    0  501 -0.00000000000E+00  0.00000000000E+00  0.88576807210E+03  0.88576807210E+03  0.00000000000E+00 0.  1.
          1   -1    0    0  501    0  0.00000000000E+00 -0.00000000000E+00 -0.26032827870E+04  0.26032827870E+04  0.00000000000E+00 0. -1.
         23    2    1    2    0    0  0.10515166396E+04  0.10459007056E+04 -0.12268147790E+04  0.19268786674E+04  0.90506173150E+02 0.  0.
         13    1    3    3    0    0  0.39731196540E+03  0.39876930825E+03 -0.52305164559E+03  0.76841185766E+03  0.00000000000E+00 0. -1.
        -13    1    3    3    0    0  0.65420467423E+03  0.64713139738E+03 -0.70376313345E+03  0.11584668097E+04  0.00000000000E+00 0.  1.
         22    1    1    2    0    0 -0.10515166396E+04 -0.10459007056E+04 -0.49069993586E+03  0.15621721917E+04  0.00000000000E+00 0. -1.
<mgrwt>
<rscale>  0 0.30370412E+04</rscale>
<asrwt>0</asrwt>
<pdfrwt beam="1">  1        1 0.40050504E+00 0.30370412E+04</pdfrwt>
<pdfrwt beam="2">  1       -1 0.13627201E+00 0.30370412E+04</pdfrwt>
<totfact> 0.43764020E-01</totfact>
</mgrwt>
</event>
<event>
 6    1  0.9562506E-007  0.3746722E+04  0.7818608E-02  0.8057686E-01
          2   -1    0    0  501    0  0.00000000000E+00  0.00000000000E+00  0.20691914368E+04  0.20691914368E+04  0.00000000000E+00 0. -1.
         -2   -1    0    0    0  501 -0.00000000000E+00 -0.00000000000E+00 -0.16960641248E+04  0.16960641248E+04  0.00000000000E+00 0.  1.
         23    2    1    2    0    0 -0.90115111802E+03 -0.13838275891E+04  0.10732131755E+04  0.19716077840E+04  0.91643875610E+02 0.  0.
         13    1    3    3    0    0 -0.60500382356E+03 -0.95042747982E+03  0.78050166227E+03  0.13705928884E+04  0.00000000000E+00 0.  1.
        -13    1    3    3    0    0 -0.29614729446E+03 -0.43340010929E+03  0.29271151324E+03  0.60101489560E+03  0.00000000000E+00 0. -1.
         22    1    1    2    0    0  0.90115111802E+03  0.13838275891E+04 -0.70008586346E+03  0.17936477776E+04  0.00000000000E+00 0.  1.
<mgrwt>
<rscale>  0 0.37467220E+04</rscale>
<asrwt>0</asrwt>
<pdfrwt beam="1">  1        2 0.31833714E+00 0.37467220E+04</pdfrwt>
<pdfrwt beam="2">  1       -2 0.26093294E+00 0.37467220E+04</pdfrwt>
<totfact> 0.27111441E-01</totfact>
</mgrwt>
</event>
<event>
 6    1  0.9562506E-007  0.8261176E+03  0.7818608E-02  0.9522964E-01
          1   -1    0    0  501    0  0.00000000000E+00  0.00000000000E+00  0.34605715833E+03  0.34605715833E+03  0.00000000000E+00 0. -1.
         -1   -1    0    0    0  501 -0.00000000000E+00 -0.00000000000E+00 -0.49303294868E+03  0.49303294868E+03  0.00000000000E+00 0.  1.
         23    2    1    2    0    0 -0.25427290329E+03  0.25156262803E+03 -0.27099423701E+03  0.46051509426E+03  0.10343021985E+03 0.  0.
         11    1    3    3    0    0 -0.66707014354E+02  0.13118194819E+03 -0.13312288176E+03  0.19844452863E+03  0.00000000000E+00 0. -1.
        -11    1    3    3    0    0 -0.18756588893E+03  0.12038067985E+03 -0.13787135524E+03  0.26207056563E+03  0.00000000000E+00 0.  1.
         22    1    1    2    0    0  0.25427290329E+03 -0.25156262803E+03  0.12401844666E+03  0.37857501275E+03  0.00000000000E+00 0. -1.
<mgrwt>
<rscale>  0 0.82611762E+03</rscale>
<asrwt>0</asrwt>
<pdfrwt beam="1">  1        1 0.53239563E-01 0.82611762E+03</pdfrwt>
<pdfrwt beam="2">  1       -1 0.75851222E-01 0.82611762E+03</pdfrwt>
<totfact> 0.12840457E+02</totfact>
</mgrwt>
</event>
<event>
 6    1  0.9562506E-007  0.2733613E+04  0.7818608E-02  0.8324180E-01
         -2   -1    0    0    0  501 -0.00000000000E+00  0.00000000000E+00  0.16699410698E+04  0.16699410698E+04  0.00000000000E+00 0.  1.
          2   -1    0    0  501    0  0.00000000000E+00 -0.00000000000E+00 -0.11186985259E+04  0.11186985259E+04  0.00000000000E+00 0. -1.
         23    2    1    2    0    0 -0.11478035948E+04 -0.25937332051E+03 -0.43019241002E+03  0.12563399578E+04  0.92719837701E+02 0.  0.
         13    1    3    3    0    0 -0.10018001986E+04 -0.25688934614E+03 -0.38361953518E+03  0.11030683214E+04  0.00000000000E+00 0.  1.
        -13    1    3    3    0    0 -0.14600339625E+03 -0.24839743765E+01 -0.46572874846E+02  0.15327163638E+03  0.00000000000E+00 0. -1.
         22    1    1    2    0    0  0.11478035948E+04  0.25937332051E+03  0.98143495393E+03  0.15322996380E+04  0.00000000000E+00 0.  1.
<mgrwt>
<rscale>  0 0.27336134E+04</rscale>
<asrwt>0</asrwt>
<pdfrwt beam="1">  1        2 0.17210746E+00 0.27336134E+04</pdfrwt>
<pdfrwt beam="2">  1       -2 0.25691401E+00 0.27336134E+04</pdfrwt>
<totfact> 0.10816384E+00</totfact>
</mgrwt>
</event>
<event>
 6    1  0.9562506E-007  0.4868669E+04  0.7818608E-02  0.7849092E-01
         -2   -1    0    0    0  501 -0.00000000000E+00  0.00000000000E+00  0.27339624931E+04  0.27339624931E+04  0.00000000000E+00 0.  1.
          2   -1    0    0  501    0  0.00000000000E+00 -0.00000000000E+00 -0.21675442394E+04  0.21675442394E+04  0.00000000000E+00 0. -1.
         23    2    1    2    0    0  0.29971230586E+03 -0.24022992533E+04  0.34546385387E+02  0.24228464385E+04  0.90123488435E+02 0.  0.
         11    1    3    3    0    0  0.75252738677E+02 -0.38018325528E+03  0.23673712079E+02  0.38828176228E+03  0.00000000000E+00 0. -1.
        -11    1    3    3    0    0  0.22445956718E+03 -0.20221159980E+04  0.10872673308E+02  0.20345646762E+04  0.00000000000E+00 0.  1.
         22    1    1    2    0    0 -0.29971230586E+03  0.24022992533E+04  0.53187186837E+03  0.24786602940E+04  0.00000000000E+00 0.  1.
<mgrwt>
<rscale>  0 0.48686691E+04</rscale>
<asrwt>0</asrwt>
<pdfrwt beam="1">  1        2 0.33346834E+00 0.48686691E+04</pdfrwt>
<pdfrwt beam="2">  1       -2 0.42060962E+00 0.48686691E+04</pdfrwt>
<totfact> 0.21545487E-02</totfact>
</mgrwt>
</event>
<event>
 6    1  0.9562506E-007  0.1122404E+04  0.7818608E-02  0.9183627E-01
          1   -1    0    0  501    0  0.00000000000E+00  0.00000000000E+00  0.50977077425E+03  0.50977077425E+03  0.00000000000E+00 0. -1.
         -1   -1    0    0    0  501 -0.00000000000E+00 -0.00000000000E+00 -0.61782192356E+03  0.61782192356E+03  0.00000000000E+00 0.  1.
         23    2    1    2    0    0 -0.21008650842E+03 -0.23682581126E+03  0.40668123803E+03  0.52329787203E+03  0.90709578413E+02 0.  0.
         11    1    3    3    0    0 -0.26659745007E+02  0.25598799272E+01  0.23177626352E+02  0.35418884121E+02  0.00000000000E+00 0.  1.
        -11    1    3    3    0    0 -0.18342676341E+03 -0.23938569119E+03  0.38350361167E+03  0.48787898791E+03  0.00000000000E+00 0. -1.
         22    1    1    2    0    0  0.21008650842E+03  0.23682581126E+03 -0.51473238733E+03  0.60429482578E+03  0.00000000000E+00 0.  1.
<mgrwt>
<rscale>  0 0.11224038E+04</rscale>
<asrwt>0</asrwt>
<pdfrwt beam="1">  1        1 0.78426273E-01 0.11224038E+04</pdfrwt>
<pdfrwt beam="2">  1       -1 0.95049527E-01 0.11224038E+04</pdfrwt>
<totfact> 0.45944926E+01</totfact>
</mgrwt>
</event>
<event>
 6    1  0.9562506E-007  0.2981885E+04  0.7818608E-02  0.8248923E-01
          2   -1    0    0  501    0  0.00000000000E+00  0.00000000000E+00  0.23131725142E+04  0.23131725142E+04  0.00000000000E+00 0. -1.
         -2   -1    0    0    0  501 -0.00000000000E+00 -0.00000000000E+00 -0.96097882721E+03  0.96097882721E+03  0.00000000000E+00 0.  1.
         23    2    1    2    0    0  0.11379999717E+04  0.93192950135E+02 -0.37335971507E+03  0.12050299325E+04  0.94714306829E+02 0.  0.
         13    1    3    3    0    0  0.94015467363E+03  0.87719395693E+02 -0.34397267036E+03  0.10049391527E+04  0.00000000000E+00 0. -1.
        -13    1    3    3    0    0  0.19784529802E+03  0.54735544413E+01 -0.29387044703E+02  0.20009077976E+03  0.00000000000E+00 0.  1.
         22    1    1    2    0    0 -0.11379999717E+04 -0.93192950135E+02  0.17255534020E+04  0.20691214089E+04  0.00000000000E+00 0. -1.
<mgrwt>
<rscale>  0 0.29818852E+04</rscale>
<asrwt>0</asrwt>
<pdfrwt beam="1">  1        2 0.35587269E+00 0.29818852E+04</pdfrwt>
<pdfrwt beam="2">  1       -2 0.14784290E+00 0.29818852E+04</pdfrwt>
<totfact> 0.11892568E+00</totfact>
</mgrwt>
</event>
<event>
 6    1  0.9562506E-007  0.1410749E+04  0.7818608E-02  0.8946074E-01
          2   -1    0    0  501    0  0.00000000000E+00  0.00000000000E+00  0.73302761228E+03  0.73302761228E+03  0.00000000000E+00 0. -1.
         -2   -1    0    0    0  501 -0.00000000000E+00 -0.00000000000E+00 -0.67876455519E+03  0.67876455519E+03  0.00000000000E+00 0.  1.
         23    2    1    2    0    0 -0.11611928872E+03  0.42188696804E+02  0.71928874169E+03  0.73538789742E+03  0.90307753762E+02 0.  0.
         13    1    3    3    0    0 -0.10010634031E+03  0.27324784888E+00  0.59241476358E+03  0.60081328725E+03  0.00000000000E+00 0.  1.
        -13    1    3    3    0    0 -0.16012948410E+02  0.41915448956E+02  0.12687397811E+03  0.13457461016E+03  0.00000000000E+00 0. -1.
         22    1    1    2    0    0  0.11611928872E+03 -0.42188696804E+02 -0.66502568461E+03  0.67640427005E+03  0.00000000000E+00 0.  1.
<mgrwt>
<rscale>  0 0.14107490E+04</rscale>
<asrwt>0</asrwt>
<pdfrwt beam="1">  1        2 0.11277348E+00 0.14107490E+04</pdfrwt>
<pdfrwt beam="2">  1       -2 0.10442532E+00 0.14107490E+04</pdfrwt>
<totfact> 0.27986075E+01</totfact>
</mgrwt>
</event>
<event>
 6    1  0.9562506E-007  0.1736189E+04  0.7818608E-02  0.8740989E-01
          2   -1    0    0  501    0  0.00000000000E+00  0.00000000000E+00  0.91317916392E+03  0.91317916392E+03  0.00000000000E+00 0. -1.
         -2   -1    0    0    0  501 -0.00000000000E+00 -0.00000000000E+00 -0.82523569469E+03  0.82523569469E+03  0.00000000000E+00 0.  1.
         23    2    1    2    0    0 -0.23891939251E+03 -0.78365273231E+03  0.32431690576E+03  0.88573292349E+03  0.90262259102E+02 0.  0.
         13    1    3    3    0    0 -0.39441156092E+02 -0.13751548873E+03  0.94786286023E+02  0.17161163845E+03  0.00000000000E+00 0. -1.
        -13    1    3    3    0    0 -0.19947823642E+03 -0.64613724359E+03  0.22953061974E+03  0.71412128504E+03  0.00000000000E+00 0.  1.
         22    1    1    2    0    0  0.23891939251E+03  0.78365273231E+03 -0.23637343653E+03  0.85268193512E+03  0.00000000000E+00 0.  1.
<mgrwt>
<rscale>  0 0.17361890E+04</rscale>
<asrwt>0</asrwt>
<pdfrwt beam="1">  1        2 0.14048910E+00 0.17361890E+04</pdfrwt>
<pdfrwt beam="2">  1       -2 0.12695934E+00 0.17361890E+04</pdfrwt>
<totfact> 0.12567238E+01</totfact>
</mgrwt>
</event>
<event>
 6    1  0.9562506E-007  0.4325036E+04  0.7818608E-02  0.7942005E-01
          2   -1    0    0  501    0  0.00000000000E+00  0.00000000000E+00  0.34516757962E+04  0.34516757962E+04  0.00000000000E+00 0. -1.
         -2   -1    0    0    0  501 -0.00000000000E+00 -0.00000000000E+00 -0.13548442765E+04  0.13548442765E+04  0.00000000000E+00 0.  1.
         23    2    1    2    0    0 -0.86192034245E+03  0.36809727030E+02  0.32514647310E+04  0.33651875346E+04  0.90568280748E+02 0.  0.
         11    1    3    3    0    0 -0.24616029245E+03  0.33261333491E+02  0.80740558670E+03  0.84475143523E+03  0.00000000000E+00 0. -1.
        -11    1    3    3    0    0 -0.61576005000E+03  0.35483935390E+01  0.24440591443E+04  0.25204360994E+04  0.00000000000E+00 0.  1.
         22    1    1    2    0    0  0.86192034245E+03 -0.36809727030E+02 -0.11546332113E+04  0.14413325381E+04  0.00000000000E+00 0.  1.
<mgrwt>
<rscale>  0 0.43250356E+04</rscale>
<asrwt>0</asrwt>
<pdfrwt beam="1">  1        2 0.53102704E+00 0.43250356E+04</pdfrwt>
<pdfrwt beam="2">  1       -2 0.20843758E+00 0.43250356E+04</pdfrwt>
<totfact> 0.78982415E-02</totfact>
</mgrwt>
</event>
<event>
 6    1  0.9562506E-007  0.1448609E+04  0.7818608E-02  0.8919365E-01
         -2   -1    0    0    0  501 -0.00000000000E+00  0.00000000000E+00  0.43062475404E+03  0.43062475404E+03  0.00000000000E+00 0.  1.
          2   -1    0    0  501    0  0.00000000000E+00 -0.00000000000E+00 -0.12182694647E+04  0.12182694647E+04  0.00000000000E+00 0. -1.
         23    2    1    2    0    0  0.94379078792E+01 -0.33755539912E+03  0.33023795399E+03  0.48112096442E+03  0.91583593366E+02 0.  0.
         13    1    3    3    0    0  0.44578899785E+02 -0.20123212112E+03  0.16482714629E+03  0.26391216916E+03  0.00000000000E+00 0.  1.
        -13    1    3    3    0    0 -0.35140991906E+02 -0.13632327800E+03  0.16541080769E+03  0.21720879526E+03  0.00000000000E+00 0. -1.
         22    1    1    2    0    0 -0.94379078792E+01  0.33755539912E+03 -0.11178826646E+04  0.11677732543E+04  0.00000000000E+00 0. -1.
<mgrwt>
<rscale>  0 0.14486090E+04</rscale>
<asrwt>0</asrwt>
<pdfrwt beam="1">  1        2 0.18742607E+00 0.14486090E+04</pdfrwt>
<pdfrwt beam="2">  1       -2 0.66249964E-01 0.14486090E+04</pdfrwt>
<totfact> 0.37537893E+01</totfact>
</mgrwt>
</event>
<event>
 6    1  0.9562506E-007  0.1620369E+04  0.7818608E-02  0.8808131E-01
         -2   -1    0    0    0  501 -0.00000000000E+00  0.00000000000E+00  0.40751204553E+03  0.40751204553E+03  0.00000000000E+00 0.  1.
          2   -1    0    0  501    0  0.00000000000E+00 -0.00000000000E+00 -0.16107477709E+04  0.16107477709E+04  0.00000000000E+00 0. -1.
         23    2    1    2    0    0 -0.40862374194E+03  0.52700264323E+03 -0.11707856023E+04  0.13506085909E+04  0.93271060589E+02 0.  0.
         11    1    3    3    0    0 -0.30924047008E+03  0.34499331136E+03 -0.86262437616E+03  0.97916845719E+03  0.00000000000E+00 0. -1.
        -11    1    3    3    0    0 -0.99383271854E+02  0.18200933187E+03 -0.30816122618E+03  0.37144013372E+03  0.00000000000E+00 0.  1.
         22    1    1    2    0    0  0.40862374194E+03 -0.52700264323E+03 -0.32450123023E+02  0.66765122551E+03  0.00000000000E+00 0.  1.
<mgrwt>
<rscale>  0 0.16203692E+04</rscale>
<asrwt>0</asrwt>
<pdfrwt beam="1">  1        2 0.24780735E+00 0.16203692E+04</pdfrwt>
<pdfrwt beam="2">  1       -2 0.62694160E-01 0.16203692E+04</pdfrwt>
<totfact> 0.24837779E+01</totfact>
</mgrwt>
</event>
<event>
 6    1  0.9562506E-007  0.3861797E+04  0.7818608E-02  0.8033022E-01
         -2   -1    0    0    0  501 -0.00000000000E+00  0.00000000000E+00  0.24273362864E+04  0.24273362864E+04  0.00000000000E+00 0.  1.
          2   -1    0    0  501    0  0.00000000000E+00 -0.00000000000E+00 -0.15359922464E+04  0.15359922464E+04  0.00000000000E+00 0. -1.
         23    2    1    2    0    0 -0.12637234652E+04 -0.13861995624E+04 -0.19708094633E+02  0.18780078823E+04  0.89325100892E+02 0.  0.
         11    1    3    3    0    0 -0.51597191844E+03 -0.57818683744E+03  0.35065585106E+02  0.77572974345E+03  0.00000000000E+00 0.  1.
        -11    1    3    3    0    0 -0.74775154674E+03 -0.80801272498E+03 -0.54773679739E+02  0.11022781388E+04  0.00000000000E+00 0. -1.
         22    1    1    2    0    0  0.12637234652E+04  0.13861995624E+04  0.91105213468E+03  0.20853206505E+04  0.00000000000E+00 0.  1.
<mgrwt>
<rscale>  0 0.38617974E+04</rscale>
<asrwt>0</asrwt>
<pdfrwt beam="1">  1        2 0.23630650E+00 0.38617974E+04</pdfrwt>
<pdfrwt beam="2">  1       -2 0.37343635E+00 0.38617974E+04</pdfrwt>
<totfact> 0.10659640E-01</totfact>
</mgrwt>
</event>
<event>
 6    1  0.9562506E-007  0.1963690E+04  0.7818608E-02  0.8623788E-01
          1   -1    0    0  501    0  0.00000000000E+00  0.00000000000E+00  0.95187013646E+03  0.95187013646E+03  0.00000000000E+00 0. -1.
         -1   -1    0    0    0  501 -0.00000000000E+00 -0.00000000000E+00 -0.10127634810E+04  0.10127634810E+04  0.00000000000E+00 0.  1.
         23    2    1    2    0    0  0.17677897089E+02  0.20601126188E+03 -0.98857662437E+03  0.10141866617E+04  0.92399645053E+02 0.  0.
         11    1    3    3    0    0 -0.12863433860E+02 -0.44036457251E+01 -0.71970912023E+02  0.73243922641E+02  0.00000000000E+00 0.  1.
        -11    1    3    3    0    0  0.30541330948E+02  0.21041490761E+03 -0.91660571235E+03  0.94094273904E+03  0.00000000000E+00 0. -1.
         22    1    1    2    0    0 -0.17677897089E+02 -0.20601126188E+03  0.92768327983E+03  0.95044695578E+03  0.00000000000E+00 0. -1.
<mgrwt>
<rscale>  0 0.19636897E+04</rscale>
<asrwt>0</asrwt>
<pdfrwt beam="1">  1        1 0.14644156E+00 0.19636897E+04</pdfrwt>
<pdfrwt beam="2">  1       -1 0.15580977E+00 0.19636897E+04</pdfrwt>
<totfact> 0.48355520E+00</totfact>
</mgrwt>
</event>
<event>
 6    1  0.9562506E-007  0.9821456E+03  0.7818608E-02  0.9328347E-01
          1   -1    0    0  501    0  0.00000000000E+00  0.00000000000E+00  0.79961401995E+03  0.79961401995E+03  0.00000000000E+00 0. -1.
         -1   -1    0    0    0  501 -0.00000000000E+00 -0.00000000000E+00 -0.30158613646E+03  0.30158613646E+03  0.00000000000E+00 0.  1.
         23    2    1    2    0    0 -0.22889568299E+03  0.33380680332E+03  0.55467757174E+03  0.69250784818E+03  0.89887126826E+02 0.  0.
         13    1    3    3    0    0 -0.17832719712E+03  0.22036456459E+03  0.32391842507E+03  0.43044660140E+03  0.00000000000E+00 0.  1.
        -13    1    3    3    0    0 -0.50568485867E+02  0.11344223873E+03  0.23075914667E+03  0.26206124678E+03  0.00000000000E+00 0. -1.
         22    1    1    2    0    0  0.22889568299E+03 -0.33380680332E+03 -0.56649688250E+02  0.40869230823E+03  0.00000000000E+00 0.  1.
<mgrwt>
<rscale>  0 0.98214562E+03</rscale>
<asrwt>0</asrwt>
<pdfrwt beam="1">  1        1 0.12301754E+00 0.98214562E+03</pdfrwt>
<pdfrwt beam="2">  1       -1 0.46397867E-01 0.98214562E+03</pdfrwt>
<totfact> 0.10263402E+02</totfact>
</mgrwt>
</event>
<event>
 6    1  0.9562506E-007  0.1279232E+04  0.7818608E-02  0.9046198E-01
          1   -1    0    0  501    0  0.00000000000E+00  0.00000000000E+00  0.40742250101E+03  0.40742250101E+03  0.00000000000E+00 0. -1.
         -1   -1    0    0    0  501 -0.00000000000E+00 -0.00000000000E+00 -0.10041384958E+04  0.10041384958E+04  0.00000000000E+00 0.  1.
         23    2    1    2    0    0  0.47800258036E+03 -0.41960781621E+03 -0.27913042470E+03  0.70063358802E+03  0.91741181665E+02 0.  0.
         11    1    3    3    0    0  0.26771773205E+03 -0.21131899413E+03 -0.19522775243E+03  0.39299157326E+03  0.00000000000E+00 0.  1.
        -11    1    3    3    0    0  0.21028484831E+03 -0.20828882208E+03 -0.83902672274E+02  0.30764201477E+03  0.00000000000E+00 0. -1.
         22    1    1    2    0    0 -0.47800258036E+03  0.41960781621E+03 -0.31758557011E+03  0.71092740881E+03  0.00000000000E+00 0. -1.
<mgrwt>
<rscale>  0 0.12792320E+04</rscale>
<asrwt>0</asrwt>
<pdfrwt beam="1">  1        1 0.62680385E-01 0.12792320E+04</pdfrwt>
<pdfrwt beam="2">  1       -1 0.15448284E+00 0.12792320E+04</pdfrwt>
<totfact> 0.18553147E+01</totfact>
</mgrwt>
</event>
<event>
 6    1  0.9562506E-007  0.3023990E+04  0.7818608E-02  0.8236913E-01
         -2   -1    0    0    0  501 -0.00000000000E+00  0.00000000000E+00  0.17142337524E+04  0.17142337524E+04  0.00000000000E+00 0.  1.
          2   -1    0    0  501    0  0.00000000000E+00 -0.00000000000E+00 -0.13336153493E+04  0.13336153493E+04  0.00000000000E+00 0. -1.
         23    2    1    2    0    0 -0.12824568478E+04 -0.67953267357E+03  0.61246681070E+03  0.15780824858E+04  0.93640359019E+02 0.  0.
         11    1    3    3    0    0 -0.91076458006E+03 -0.43723288002E+03  0.44273508432E+03  0.11030317613E+04  0.00000000000E+00 0. -1.
        -11    1    3    3    0    0 -0.37169226776E+03 -0.24229979355E+03  0.16973172637E+03  0.47505072445E+03  0.00000000000E+00 0.  1.
         22    1    1    2    0    0  0.12824568478E+04  0.67953267357E+03 -0.23184840760E+03  0.14697666158E+04  0.00000000000E+00 0. -1.
<mgrwt>
<rscale>  0 0.30239897E+04</rscale>
<asrwt>0</asrwt>
<pdfrwt beam="1">  1        2 0.20517159E+00 0.30239897E+04</pdfrwt>
<pdfrwt beam="2">  1       -2 0.26372827E+00 0.30239897E+04</pdfrwt>
<totfact> 0.71474201E-01</totfact>
</mgrwt>
</event>
<event>
 6    1  0.9562506E-007  0.1866897E+04  0.7818608E-02  0.8671512E-01
         -1   -1    0    0    0  501 -0.00000000000E+00  0.00000000000E+00  0.39466046060E+03  0.39466046060E+03  0.00000000000E+00 0.  1.
          1   -1    0    0  501    0  0.00000000000E+00 -0.00000000000E+00 -0.22077866249E+04  0.22077866249E+04  0.00000000000E+00 0. -1.
         23    2    1    2    0    0  0.26436407682E+02  0.72038200813E+03 -0.86704698397E+02  0.73157023248E+03  0.89600106269E+02 0.  0.
         13    1    3    3    0    0  0.10910736006E+02  0.84623602270E+02  0.17613563882E+02  0.87123107462E+02  0.00000000000E+00 0.  1.
        -13    1    3    3    0    0  0.15525671676E+02  0.63575840586E+03 -0.10431826228E+03  0.64444712502E+03  0.00000000000E+00 0. -1.
         22    1    1    2    0    0 -0.26436407682E+02 -0.72038200813E+03 -0.17264214659E+04  0.18708768531E+04  0.00000000000E+00 0. -1.
<mgrwt>
<rscale>  0 0.18668970E+04</rscale>
<asrwt>0</asrwt>
<pdfrwt beam="1">  1        1 0.33965949E+00 0.18668970E+04</pdfrwt>
<pdfrwt beam="2">  1       -1 0.60716993E-01 0.18668970E+04</pdfrwt>
<totfact> 0.55559638E+00</totfact>
</mgrwt>
</event>
<event>
 6    1  0.9562506E-007  0.2458974E+04  0.7818608E-02  0.8417749E-01
         -2   -1    0    0    0  501 -0.00000000000E+00  0.00000000000E+00  0.13115065296E+04  0.13115065296E+04  0.00000000000E+00 0.  1.
          2   -1    0    0  501    0  0.00000000000E+00 -0.00000000000E+00 -0.11525971093E+04  0.11525971093E+04  0.00000000000E+00 0. -1.
         23    2    1    2    0    0  0.12201810053E+04 -0.61993596287E+02 -0.40970814610E+02  0.12261064661E+04  0.94728911502E+02 0.  0.
         13    1    3    3    0    0  0.68308336531E+03 -0.52911223017E+02  0.20431378777E+02  0.68543411260E+03  0.00000000000E+00 0. -1.
        -13    1    3    3    0    0  0.53709764004E+03 -0.90823732698E+01 -0.61402193387E+02  0.54067235346E+03  0.00000000000E+00 0.  1.
         22    1    1    2    0    0 -0.12201810053E+04  0.61993596287E+02  0.19988023493E+03  0.12379971729E+04  0.00000000000E+00 0.  1.
<mgrwt>
<rscale>  0 0.24589743E+04</rscale>
<asrwt>0</asrwt>
<pdfrwt beam="1">  1        2 0.17732263E+00 0.24589743E+04</pdfrwt>
<pdfrwt beam="2">  1       -2 0.20177024E+00 0.24589743E+04</pdfrwt>
<totfact> 0.23439612E+00</totfact>
</mgrwt>
</event>
<event>
 6    1  0.9562506E-007  0.3183566E+04  0.7818608E-02  0.8193171E-01
         -2   -1    0    0    0  501 -0.00000000000E+00  0.00000000000E+00  0.11696607012E+04  0.11696607012E+04  0.00000000000E+00 0.  1.
          2   -1    0    0  501    0  0.00000000000E+00 -0.00000000000E+00 -0.21662463186E+04  0.21662463186E+04  0.00000000000E+00 0. -1.
         23    2    1    2    0    0  0.10465582366E+04  0.66912965285E+03 -0.15394457657E+04  0.19802832609E+04  0.92789508098E+02 0.  0.
         11    1    3    3    0    0  0.58840179017E+03  0.42700117614E+03 -0.92433874526E+03  0.11759884298E+04  0.00000000000E+00 0.  1.
        -11    1    3    3    0    0  0.45815644643E+03  0.24212847671E+03 -0.61510702047E+03  0.80429483106E+03  0.00000000000E+00 0. -1.
         22    1    1    2    0    0 -0.10465582366E+04 -0.66912965285E+03  0.54286014833E+03  0.13556237588E+04  0.00000000000E+00 0.  1.
<mgrwt>
<rscale>  0 0.31835660E+04</rscale>
<asrwt>0</asrwt>
<pdfrwt beam="1">  1        2 0.33326866E+00 0.31835660E+04</pdfrwt>
<pdfrwt beam="2">  1       -2 0.17994780E+00 0.31835660E+04</pdfrwt>
<totfact> 0.82549384E-01</totfact>
</mgrwt>
</event>
<event>
 6    1  0.9562506E-007  0.1296156E+04  0.7818608E-02  0.9032619E-01
          2   -1    0    0  501    0  0.00000000000E+00  0.00000000000E+00  0.15208835005E+04  0.15208835005E+04  0.00000000000E+00 0. -1.
         -2   -1    0    0    0  501 -0.00000000000E+00 -0.00000000000E+00 -0.27615861363E+03  0.27615861363E+03  0.00000000000E+00 0.  1.
         23    2    1    2    0    0  0.60041752229E+03 -0.67973478264E+02  0.93710454401E+03  0.11189920642E+04  0.94110140593E+02 0.  0.
         11    1    3    3    0    0  0.22091143222E+03  0.11617254270E+02  0.39067650532E+03  0.44895985710E+03  0.00000000000E+00 0. -1.
        -11    1    3    3    0    0  0.37950609007E+03 -0.79590732534E+02  0.54642803869E+03  0.67003220712E+03  0.00000000000E+00 0.  1.
         22    1    1    2    0    0 -0.60041752229E+03  0.67973478264E+02  0.30762034283E+03  0.67805004988E+03  0.00000000000E+00 0.  1.
<mgrwt>
<rscale>  0 0.12961560E+04</rscale>
<asrwt>0</asrwt>
<pdfrwt beam="1">  1        2 0.23398207E+00 0.12961560E+04</pdfrwt>
<pdfrwt beam="2">  1       -2 0.42485941E-01 0.12961560E+04</pdfrwt>
<totfact> 0.63583035E+01</totfact>
</mgrwt>
</event>
<event>
 6    1  0.9562506E-007  0.1733230E+04  0.7818608E-02  0.8742636E-01
          1   -1    0    0  501    0  0.00000000000E+00  0.00000000000E+00  0.14520281807E+04  0.14520281807E+04  0.00000000000E+00 0. -1.
         -1   -1    0    0    0  501 -0.00000000000E+00 -0.00000000000E+00 -0.51722214724E+03  0.51722214724E+03  0.00000000000E+00 0.  1.
         23    2    1    2    0    0  0.72271427755E+03 -0.43852898953E+03  0.26495470098E+03  0.89067515240E+03  0.92074056613E+02 0.  0.
         11    1    3    3    0    0  0.17850883973E+03 -0.95422275898E+02  0.10373180191E+03  0.22744472587E+03  0.00000000000E+00 0. -1.
        -11    1    3    3    0    0  0.54420543781E+03 -0.34310671363E+03  0.16122289908E+03  0.66323042653E+03  0.00000000000E+00 0.  1.
         22    1    1    2    0    0 -0.72271427755E+03  0.43852898953E+03  0.66985133244E+03  0.10785751755E+04  0.00000000000E+00 0. -1.
<mgrwt>
<rscale>  0 0.17332295E+04</rscale>
<asrwt>0</asrwt>
<pdfrwt beam="1">  1        1 0.22338895E+00 0.17332295E+04</pdfrwt>
<pdfrwt beam="2">  1       -1 0.79572639E-01 0.17332295E+04</pdfrwt>
<totfact> 0.10577069E+01</totfact>
</mgrwt>
</event>
<event>
 6    1  0.9562506E-007  0.7698754E+03  0.7818608E-02  0.9604675E-01
         -2   -1    0    0    0  501 -0.00000000000E+00  0.00000000000E+00  0.24552067181E+03  0.24552067181E+03  0.00000000000E+00 0.  1.
          2   -1    0    0  501    0  0.00000000000E+00 -0.00000000000E+00 -0.60352164627E+03  0.60352164627E+03  0.00000000000E+00 0. -1.
         23    2    1    2    0    0  0.19047105399E+03  0.22262221035E+03 -0.44731499059E+03  0.54274693054E+03  0.92971279735E+02 0.  0.
         11    1    3    3    0    0  0.19119530065E+02  0.13278499444E+02 -0.99080172034E+02  0.10177797143E+03  0.00000000000E+00 0. -1.
        -11    1    3    3    0    0  0.17135152392E+03  0.20934371091E+03 -0.34823481856E+03  0.44096895912E+03  0.00000000000E+00 0.  1.
         22    1    1    2    0    0 -0.19047105399E+03 -0.22262221035E+03  0.89314016124E+02  0.30629538754E+03  0.00000000000E+00 0.  1.
<mgrwt>
<rscale>  0 0.76987542E+03</rscale>
<asrwt>0</asrwt>
<pdfrwt beam="1">  1        2 0.92849484E-01 0.76987542E+03</pdfrwt>
<pdfrwt beam="2">  1       -2 0.37772411E-01 0.76987542E+03</pdfrwt>
<totfact> 0.32777070E+02</totfact>
</mgrwt>
</event>
<event>
 6    1  0.9562506E-007  0.6571701E+03  0.7818608E-02  0.9793417E-01
          1   -1    0    0  501    0  0.00000000000E+00  0.00000000000E+00  0.20882111594E+04  0.20882111594E+04  0.00000000000E+00 0. -1.
         -1   -1    0    0    0  501 -0.00000000000E+00 -0.00000000000E+00 -0.51703651599E+02  0.51703651599E+02  0.00000000000E+00 0.  1.
         23    2    1    2    0    0 -0.23273239391E+03  0.20265069939E+03  0.73473256062E+03  0.80206217104E+03  0.90775092602E+02 0.  0.
         11    1    3    3    0    0 -0.18641384654E+03  0.11421031373E+03  0.44909707537E+03  0.49948203276E+03  0.00000000000E+00 0.  1.
        -11    1    3    3    0    0 -0.46318547370E+02  0.88440385666E+02  0.28563548525E+03  0.30258013828E+03  0.00000000000E+00 0. -1.
         22    1    1    2    0    0  0.23273239391E+03 -0.20265069939E+03  0.13017749472E+04  0.13378526400E+04  0.00000000000E+00 0.  1.
<mgrwt>
<rscale>  0 0.65717012E+03</rscale>
<asrwt>0</asrwt>
<pdfrwt beam="1">  1        1 0.32126319E+00 0.65717012E+03</pdfrwt>
<pdfrwt beam="2">  1       -1 0.79544095E-02 0.65717012E+03</pdfrwt>
<totfact> 0.24419156E+02</totfact>
</mgrwt>
</event>
<event>
 6    1  0.1269555E-006  0.3856762E+04  0.7818608E-02  0.8034082E-01
          2   -1    0    0  501    0  0.00000000000E+00  0.00000000000E+00  0.21195512031E+04  0.21195512031E+04  0.00000000000E+00 0. -1.
         -2   -1    0    0    0  501 -0.00000000000E+00 -0.00000000000E+00 -0.17544532831E+04  0.17544532831E+04  0.00000000000E+00 0.  1.
         23    2    1    2    0    0 -0.16521234581E+04  0.14587539393E+03 -0.80351768152E+03  0.18450998616E+04  0.89226023897E+02 0.  0.
         11    1    3    3    0    0 -0.84607314723E+03  0.10593770166E+03 -0.37729716396E+03  0.93242464416E+03  0.00000000000E+00 0.  1.
        -11    1    3    3    0    0 -0.80605031090E+03  0.39937692268E+02 -0.42622051756E+03  0.91267521746E+03  0.00000000000E+00 0. -1.
         22    1    1    2    0    0  0.16521234581E+04 -0.14587539393E+03  0.11686156015E+04  0.20289046245E+04  0.00000000000E+00 0. -1.
<mgrwt>
<rscale>  0 0.38567621E+04</rscale>
<asrwt>0</asrwt>
<pdfrwt beam="1">  1        2 0.32608480E+00 0.38567621E+04</pdfrwt>
<pdfrwt beam="2">  1       -2 0.26991589E+00 0.38567621E+04</pdfrwt>
<totfact> 0.22191065E-01</totfact>
</mgrwt>
</event>
<event>
 6    1  0.9562506E-007  0.2378715E+04  0.7818608E-02  0.8447516E-01
         -2   -1    0    0    0  501 -0.00000000000E+00  0.00000000000E+00  0.14810309790E+04  0.14810309790E+04  0.00000000000E+00 0.  1.
          2   -1    0    0  501    0  0.00000000000E+00 -0.00000000000E+00 -0.95512597078E+03  0.95512597078E+03  0.00000000000E+00 0. -1.
         23    2    1    2    0    0  0.10297716389E+04 -0.31844943014E+03  0.77394692490E+03  0.13300988771E+04  0.91266162479E+02 0.  0.
         13    1    3    3    0    0  0.55263399411E+03 -0.14974187544E+03  0.36049855250E+03  0.67659897064E+03  0.00000000000E+00 0. -1.
        -13    1    3    3    0    0  0.47713764476E+03 -0.16870755470E+03  0.41344837239E+03  0.65349990642E+03  0.00000000000E+00 0.  1.
         22    1    1    2    0    0 -0.10297716389E+04  0.31844943014E+03 -0.24804191668E+03  0.11060580727E+04  0.00000000000E+00 0. -1.
<mgrwt>
<rscale>  0 0.23787149E+04</rscale>
<asrwt>0</asrwt>
<pdfrwt beam="1">  1        2 0.14694246E+00 0.23787149E+04</pdfrwt>
<pdfrwt beam="2">  1       -2 0.22785092E+00 0.23787149E+04</pdfrwt>
<totfact> 0.21397161E+00</totfact>
</mgrwt>
</event>
<event>
 6    1  0.9562506E-007  0.1726462E+04  0.7818608E-02  0.8746414E-01
          2   -1    0    0  501    0  0.00000000000E+00  0.00000000000E+00  0.13428513178E+04  0.13428513178E+04  0.00000000000E+00 0. -1.
         -2   -1    0    0    0  501 -0.00000000000E+00 -0.00000000000E+00 -0.55491481518E+03  0.55491481518E+03  0.00000000000E+00 0.  1.
         23    2    1    2    0    0  0.53952419797E+03 -0.66926859863E+03  0.34262609821E+03  0.92961936023E+03  0.88276239377E+02 0.  0.
         13    1    3    3    0    0  0.32498229341E+03 -0.39844416250E+03  0.15811509606E+03  0.53793273303E+03  0.00000000000E+00 0. -1.
        -13    1    3    3    0    0  0.21454190456E+03 -0.27082443613E+03  0.18451100215E+03  0.39168662720E+03  0.00000000000E+00 0.  1.
         22    1    1    2    0    0 -0.53952419797E+03  0.66926859863E+03  0.44531040441E+03  0.96814677275E+03  0.00000000000E+00 0. -1.
<mgrwt>
<rscale>  0 0.17264624E+04</rscale>
<asrwt>0</asrwt>
<pdfrwt beam="1">  1        2 0.20659251E+00 0.17264624E+04</pdfrwt>
<pdfrwt beam="2">  1       -2 0.85371510E-01 0.17264624E+04</pdfrwt>
<totfact> 0.17684823E+01</totfact>
</mgrwt>
</event>
<event>
 6    1  0.9562506E-007  0.3869943E+04  0.7818608E-02  0.8031310E-01
          1   -1    0    0  501    0  0.00000000000E+00  0.00000000000E+00  0.42167071742E+04  0.42167071742E+04  0.00000000000E+00 0. -1.
         -1   -1    0    0    0  501 -0.00000000000E+00 -0.00000000000E+00 -0.88792365152E+03  0.88792365152E+03  0.00000000000E+00 0.  1.
         23    2    1    2    0    0  0.79331912673E+03 -0.17551141931E+04  0.18943121464E+04  0.27030710831E+04  0.91617164095E+02 0.  0.
         11    1    3    3    0    0  0.75231079160E+03 -0.16875306219E+04  0.18369382352E+04  0.26053931002E+04  0.00000000000E+00 0.  1.
        -11    1    3    3    0    0  0.41008335134E+02 -0.67583571256E+02  0.57373911182E+02  0.97677982875E+02  0.00000000000E+00 0. -1.
         22    1    1    2    0    0 -0.79331912673E+03  0.17551141931E+04  0.14344713763E+04  0.24015597426E+04  0.00000000000E+00 0.  1.
<mgrwt>
<rscale>  0 0.38699427E+04</rscale>
<asrwt>0</asrwt>
<pdfrwt beam="1">  1        1 0.64872417E+00 0.38699427E+04</pdfrwt>
<pdfrwt beam="2">  1       -1 0.13660364E+00 0.38699427E+04</pdfrwt>
<totfact> 0.21481039E-02</totfact>
</mgrwt>
</event>
<event>
 6    1  0.9562506E-007  0.1467461E+04  0.7818608E-02  0.8906384E-01
          1   -1    0    0  501    0  0.00000000000E+00  0.00000000000E+00  0.64362483060E+03  0.64362483060E+03  0.00000000000E+00 0. -1.
         -1   -1    0    0    0  501 -0.00000000000E+00 -0.00000000000E+00 -0.83645082054E+03  0.83645082054E+03  0.00000000000E+00 0.  1.
         23    2    1    2    0    0  0.20621120222E+03  0.24006982873E+03 -0.76123367350E+03  0.82950368947E+03  0.91886248079E+02 0.  0.
         13    1    3    3    0    0  0.11251123246E+03  0.13017351331E+03 -0.29604392248E+03  0.34241192303E+03  0.00000000000E+00 0.  1.
        -13    1    3    3    0    0  0.93699969753E+02  0.10989631542E+03 -0.46518975102E+03  0.48709176644E+03  0.00000000000E+00 0. -1.
         22    1    1    2    0    0 -0.20621120222E+03 -0.24006982873E+03  0.56840768356E+03  0.65057196167E+03  0.00000000000E+00 0. -1.
<mgrwt>
<rscale>  0 0.14674611E+04</rscale>
<asrwt>0</asrwt>
<pdfrwt beam="1">  1        1 0.99019205E-01 0.14674611E+04</pdfrwt>
<pdfrwt beam="2">  1       -1 0.12868474E+00 0.14674611E+04</pdfrwt>
<totfact> 0.15600640E+01</totfact>
</mgrwt>
</event>
<event>
 6    1  0.9562506E-007  0.2547498E+04  0.7818608E-02  0.8386257E-01
          1   -1    0    0  501    0  0.00000000000E+00  0.00000000000E+00  0.11249396420E+04  0.11249396420E+04  0.00000000000E+00 0. -1.
         -1   -1    0    0    0  501 -0.00000000000E+00 -0.00000000000E+00 -0.14422430365E+04  0.14422430365E+04  0.00000000000E+00 0.  1.
         23    2    1    2    0    0 -0.12215471876E+04 -0.35234234630E+03 -0.20152716352E+03  0.12905751444E+04  0.92996478300E+02 0.  0.
         13    1    3    3    0    0 -0.31873364899E+03 -0.10433195177E+03 -0.93106745999E+02  0.34805913479E+03  0.00000000000E+00 0.  1.
        -13    1    3    3    0    0 -0.90281353864E+03 -0.24801039453E+03 -0.10842041752E+03  0.94251600956E+03  0.00000000000E+00 0. -1.
         22    1    1    2    0    0  0.12215471876E+04  0.35234234630E+03 -0.11577623106E+03  0.12766075342E+04  0.00000000000E+00 0.  1.
<mgrwt>
<rscale>  0 0.25474979E+04</rscale>
<asrwt>0</asrwt>
<pdfrwt beam="1">  1        1 0.17306764E+00 0.25474979E+04</pdfrwt>
<pdfrwt beam="2">  1       -1 0.22188354E+00 0.25474979E+04</pdfrwt>
<totfact> 0.11485221E+00</totfact>
</mgrwt>
</event>
<event>
 6    1  0.9562506E-007  0.2516070E+03  0.7818608E-02  0.1112293E+00
         -3   -1    0    0    0  501 -0.00000000000E+00  0.00000000000E+00  0.67588526564E+03  0.67588526564E+03  0.00000000000E+00 0.  1.
          3   -1    0    0  501    0  0.00000000000E+00 -0.00000000000E+00 -0.23415980162E+02  0.23415980162E+02  0.00000000000E+00 0. -1.
         23    2    1    2    0    0 -0.99981800409E+02  0.38285583853E+02  0.30807527290E+03  0.33864991523E+03  0.91166029689E+02 0.  0.
         11    1    3    3    0    0 -0.63395020142E+02  0.48034743028E+02  0.10314099639E+03  0.13024718904E+03  0.00000000000E+00 0. -1.
        -11    1    3    3    0    0 -0.36586780267E+02 -0.97491591749E+01  0.20493427651E+03  0.20840272619E+03  0.00000000000E+00 0.  1.
         22    1    1    2    0    0  0.99981800409E+02 -0.38285583853E+02  0.34439401258E+03  0.36065133058E+03  0.00000000000E+00 0.  1.
<mgrwt>
<rscale>  0 0.25160696E+03</rscale>
<asrwt>0</asrwt>
<pdfrwt beam="1">  1        3 0.36024590E-02 0.25160696E+03</pdfrwt>
<pdfrwt beam="2">  1       -3 0.10398233E+00 0.25160696E+03</pdfrwt>
<totfact> 0.79643906E+02</totfact>
</mgrwt>
</event>
<event>
 6    1  0.9562506E-007  0.2191096E+04  0.7818608E-02  0.8522143E-01
         -1   -1    0    0    0  501 -0.00000000000E+00  0.00000000000E+00  0.18580193134E+04  0.18580193134E+04  0.00000000000E+00 0.  1.
          1   -1    0    0  501    0  0.00000000000E+00 -0.00000000000E+00 -0.64597034046E+03  0.64597034046E+03  0.00000000000E+00 0. -1.
         23    2    1    2    0    0 -0.57963891160E+03 -0.43215655567E+03  0.15447293410E+04  0.17081147995E+04  0.93417742610E+02 0.  0.
         13    1    3    3    0    0 -0.48719635638E+03 -0.36033044919E+03  0.13670817142E+04  0.14953630782E+04  0.00000000000E+00 0. -1.
        -13    1    3    3    0    0 -0.92442555225E+02 -0.71826106479E+02  0.17764762683E+03  0.21275172128E+03  0.00000000000E+00 0.  1.
         22    1    1    2    0    0  0.57963891160E+03  0.43215655567E+03 -0.33268036814E+03  0.79587485436E+03  0.00000000000E+00 0. -1.
<mgrwt>
<rscale>  0 0.21910960E+04</rscale>
<asrwt>0</asrwt>
<pdfrwt beam="1">  1        1 0.99380053E-01 0.21910960E+04</pdfrwt>
<pdfrwt beam="2">  1       -1 0.28584912E+00 0.21910960E+04</pdfrwt>
<totfact> 0.11442845E+00</totfact>
</mgrwt>
</event>
<event>
 6    1  0.9562506E-007  0.9766634E+03  0.7818608E-02  0.9334517E-01
         -2   -1    0    0    0  501 -0.00000000000E+00  0.00000000000E+00  0.57235957025E+03  0.57235957025E+03  0.00000000000E+00 0.  1.
          2   -1    0    0  501    0  0.00000000000E+00 -0.00000000000E+00 -0.41663994358E+03  0.41663994358E+03  0.00000000000E+00 0. -1.
         23    2    1    2    0    0  0.40943238313E+03  0.25239136156E+03  0.13430570993E+03  0.50754875667E+03  0.90727288782E+02 0.  0.
         11    1    3    3    0    0  0.11942894260E+03  0.92182639802E+02  0.22412194131E+01  0.15088384432E+03  0.00000000000E+00 0. -1.
        -11    1    3    3    0    0  0.29000344053E+03  0.16020872176E+03  0.13206449052E+03  0.35666491235E+03  0.00000000000E+00 0.  1.
         22    1    1    2    0    0 -0.40943238313E+03 -0.25239136156E+03  0.21413916741E+02  0.48145075717E+03  0.00000000000E+00 0. -1.
<mgrwt>
<rscale>  0 0.97666342E+03</rscale>
<asrwt>0</asrwt>
<pdfrwt beam="1">  1        2 0.64098453E-01 0.97666342E+03</pdfrwt>
<pdfrwt beam="2">  1       -2 0.88055318E-01 0.97666342E+03</pdfrwt>
<totfact> 0.84402130E+01</totfact>
</mgrwt>
</event>
<event>
 6    1  0.9562506E-007  0.1978151E+04  0.7818608E-02  0.8616905E-01
         -1   -1    0    0    0  501 -0.00000000000E+00  0.00000000000E+00  0.17433115722E+04  0.17433115722E+04  0.00000000000E+00 0.  1.
          1   -1    0    0  501    0  0.00000000000E+00 -0.00000000000E+00 -0.56115624170E+03  0.56115624170E+03  0.00000000000E+00 0. -1.
         23    2    1    2    0    0  0.91007861549E+02  0.21787875511E+03  0.17087457639E+04  0.17273620460E+04  0.90630952919E+02 0.  0.
         11    1    3    3    0    0  0.25505821972E+02  0.16618718309E+03  0.12227076802E+04  0.12342134329E+04  0.00000000000E+00 0. -1.
        -11    1    3    3    0    0  0.65502039577E+02  0.51691572029E+02  0.48603808367E+03  0.49314861308E+03  0.00000000000E+00 0.  1.
         22    1    1    2    0    0 -0.91007861549E+02 -0.21787875511E+03 -0.52659043338E+03  0.57710576788E+03  0.00000000000E+00 0. -1.
<mgrwt>
<rscale>  0 0.19781508E+04</rscale>
<asrwt>0</asrwt>
<pdfrwt beam="1">  1        1 0.86331730E-01 0.19781508E+04</pdfrwt>
<pdfrwt beam="2">  1       -1 0.26820178E+00 0.19781508E+04</pdfrwt>
<totfact> 0.18601293E+00</totfact>
</mgrwt>
</event>
<event>
 6    1  0.1165906E-006  0.4141187E+04  0.7818608E-02  0.7976655E-01
         -2   -1    0    0    0  501 -0.00000000000E+00  0.00000000000E+00  0.15063102432E+04  0.15063102432E+04  0.00000000000E+00 0.  1.
          2   -1    0    0  501    0  0.00000000000E+00 -0.00000000000E+00 -0.28462643425E+04  0.28462643425E+04  0.00000000000E+00 0. -1.
         23    2    1    2    0    0  0.10024048276E+04  0.38547799189E+02 -0.25729365713E+04  0.27630629792E+04  0.90625912845E+02 0.  0.
         11    1    3    3    0    0  0.41966198829E+03  0.27179619521E+02 -0.96106099953E+03  0.10490439271E+04  0.00000000000E+00 0. -1.
        -11    1    3    3    0    0  0.58274283929E+03  0.11368179668E+02 -0.16118755717E+04  0.17140190521E+04  0.00000000000E+00 0.  1.
         22    1    1    2    0    0 -0.10024048276E+04 -0.38547799189E+02  0.12329824719E+04  0.15895116065E+04  0.00000000000E+00 0.  1.
<mgrwt>
<rscale>  0 0.41411869E+04</rscale>
<asrwt>0</asrwt>
<pdfrwt beam="1">  1        2 0.43788681E+00 0.41411869E+04</pdfrwt>
<pdfrwt beam="2">  1       -2 0.23174004E+00 0.41411869E+04</pdfrwt>
<totfact> 0.14091004E-01</totfact>
</mgrwt>
</event>
<event>
 6    1  0.9562506E-007  0.2347301E+04  0.7818608E-02  0.8459501E-01
          2   -1    0    0  501    0  0.00000000000E+00  0.00000000000E+00  0.14675210461E+04  0.14675210461E+04  0.00000000000E+00 0. -1.
         -2   -1    0    0    0  501 -0.00000000000E+00 -0.00000000000E+00 -0.93862767352E+03  0.93862767352E+03  0.00000000000E+00 0.  1.
         23    2    1    2    0    0 -0.70013627974E+03  0.30677422172E+03 -0.64651080515E+03  0.10040516423E+04  0.76434585244E+02 0.  0.
         13    1    3    3    0    0 -0.24668982910E+03  0.96249721313E+02 -0.17937201109E+03  0.31983464320E+03  0.00000000000E+00 0. -1.
        -13    1    3    3    0    0 -0.45344645065E+03  0.21052450041E+03 -0.46713879406E+03  0.68421699905E+03  0.00000000000E+00 0.  1.
         22    1    1    2    0    0  0.70013627974E+03 -0.30677422172E+03  0.11754041777E+04  0.14020970774E+04  0.00000000000E+00 0. -1.
<mgrwt>
<rscale>  0 0.23473013E+04</rscale>
<asrwt>0</asrwt>
<pdfrwt beam="1">  1        2 0.22577247E+00 0.23473013E+04</pdfrwt>
<pdfrwt beam="2">  1       -2 0.14440426E+00 0.23473013E+04</pdfrwt>
<totfact> 0.39623109E+00</totfact>
</mgrwt>
</event>
<event>
 6    1  0.9562506E-007  0.2032573E+04  0.7818608E-02  0.8591541E-01
          1   -1    0    0  501    0  0.00000000000E+00  0.00000000000E+00  0.27223719510E+04  0.27223719510E+04  0.00000000000E+00 0. -1.
         -1   -1    0    0    0  501 -0.00000000000E+00 -0.00000000000E+00 -0.37938909861E+03  0.37938909861E+03  0.00000000000E+00 0.  1.
         23    2    1    2    0    0  0.72147013334E+03 -0.85166664437E+01  0.85621224553E+02  0.73189328838E+03  0.88006275720E+02 0.  0.
         11    1    3    3    0    0  0.44382718652E+03 -0.41418467103E+02  0.29500264292E+02  0.44673070916E+03  0.00000000000E+00 0.  1.
        -11    1    3    3    0    0  0.27764294682E+03  0.32901800659E+02  0.56120960260E+02  0.28516257922E+03  0.00000000000E+00 0. -1.
         22    1    1    2    0    0 -0.72147013334E+03  0.85166664437E+01  0.22573616279E+04  0.23698677613E+04  0.00000000000E+00 0. -1.
<mgrwt>
<rscale>  0 0.20325730E+04</rscale>
<asrwt>0</asrwt>
<pdfrwt beam="1">  1        1 0.41882644E+00 0.20325730E+04</pdfrwt>
<pdfrwt beam="2">  1       -1 0.58367556E-01 0.20325730E+04</pdfrwt>
<totfact> 0.26058908E+00</totfact>
</mgrwt>
</event>
<event>
 6    1  0.9562506E-007  0.3295743E+04  0.7818608E-02  0.8163979E-01
          2   -1    0    0  501    0  0.00000000000E+00  0.00000000000E+00  0.13328256328E+04  0.13328256328E+04  0.00000000000E+00 0. -1.
         -2   -1    0    0    0  501 -0.00000000000E+00 -0.00000000000E+00 -0.20373866816E+04  0.20373866816E+04  0.00000000000E+00 0.  1.
         23    2    1    2    0    0  0.23712433270E+03  0.10960146085E+04 -0.15854308694E+04  0.19442362936E+04  0.94803756584E+02 0.  0.
         13    1    3    3    0    0  0.40267972458E+02  0.20295979085E+03 -0.35943232269E+03  0.41473579650E+03  0.00000000000E+00 0.  1.
        -13    1    3    3    0    0  0.19685636024E+03  0.89305481764E+03 -0.12259985468E+04  0.15295004971E+04  0.00000000000E+00 0. -1.
         22    1    1    2    0    0 -0.23712433270E+03 -0.10960146085E+04  0.88086982059E+03  0.14259760208E+04  0.00000000000E+00 0. -1.
<mgrwt>
<rscale>  0 0.32957434E+04</rscale>
<asrwt>0</asrwt>
<pdfrwt beam="1">  1        2 0.20505010E+00 0.32957434E+04</pdfrwt>
<pdfrwt beam="2">  1       -2 0.31344410E+00 0.32957434E+04</pdfrwt>
<totfact> 0.34730698E-01</totfact>
</mgrwt>
</event>
<event>
 6    1  0.9562506E-007  0.2323654E+04  0.7818608E-02  0.8468653E-01
         -2   -1    0    0    0  501 -0.00000000000E+00  0.00000000000E+00  0.53335914669E+03  0.53335914669E+03  0.00000000000E+00 0.  1.
          2   -1    0    0  501    0  0.00000000000E+00 -0.00000000000E+00 -0.25308314661E+04  0.25308314661E+04  0.00000000000E+00 0. -1.
         23    2    1    2    0    0  0.81032701532E+03 -0.81966155243E+03 -0.11733673352E+04  0.16472841384E+04  0.90990092427E+02 0.  0.
         11    1    3    3    0    0  0.20052061017E+03 -0.25354684648E+03 -0.35702273872E+03  0.48162200368E+03  0.00000000000E+00 0.  1.
        -11    1    3    3    0    0  0.60980640515E+03 -0.56611470595E+03 -0.81634459650E+03  0.11656621347E+04  0.00000000000E+00 0. -1.
         22    1    1    2    0    0 -0.81032701532E+03  0.81966155243E+03 -0.82410498423E+03  0.14169064744E+04  0.00000000000E+00 0. -1.
<mgrwt>
<rscale>  0 0.23236541E+04</rscale>
<asrwt>0</asrwt>
<pdfrwt beam="1">  1        2 0.38935869E+00 0.23236541E+04</pdfrwt>
<pdfrwt beam="2">  1       -2 0.82055253E-01 0.23236541E+04</pdfrwt>
<totfact> 0.39455191E+00</totfact>
</mgrwt>
</event>
<event>
 6    1  0.1513684E-006  0.2976627E+04  0.7818608E-02  0.8250437E-01
          2   -1    0    0  501    0  0.00000000000E+00  0.00000000000E+00  0.20392222536E+04  0.20392222536E+04  0.00000000000E+00 0. -1.
         -2   -1    0    0    0  501 -0.00000000000E+00 -0.00000000000E+00 -0.10862360356E+04  0.10862360356E+04  0.00000000000E+00 0.  1.
         23    2    1    2    0    0 -0.65685759050E+03  0.64483308665E+03  0.17031158209E+04  0.19380383866E+04  0.90098193906E+02 0.  0.
         13    1    3    3    0    0 -0.27958798105E+03  0.22849684059E+03  0.72844393638E+03  0.81302571531E+03  0.00000000000E+00 0. -1.
        -13    1    3    3    0    0 -0.37726960944E+03  0.41633624607E+03  0.97467188452E+03  0.11250126713E+04  0.00000000000E+00 0.  1.
         22    1    1    2    0    0  0.65685759050E+03 -0.64483308665E+03 -0.75012960291E+03  0.11874199026E+04  0.00000000000E+00 0.  1.
<mgrwt>
<rscale>  0 0.29766267E+04</rscale>
<asrwt>0</asrwt>
<pdfrwt beam="1">  1        2 0.31372650E+00 0.29766267E+04</pdfrwt>
<pdfrwt beam="2">  1       -2 0.16711324E+00 0.29766267E+04</pdfrwt>
<totfact> 0.12180529E+00</totfact>
</mgrwt>
</event>
<event>
 6    1  0.9562506E-007  0.2143929E+04  0.7818608E-02  0.8542135E-01
         -1   -1    0    0    0  501 -0.00000000000E+00  0.00000000000E+00  0.95507760967E+03  0.95507760967E+03  0.00000000000E+00 0.  1.
          1   -1    0    0  501    0  0.00000000000E+00 -0.00000000000E+00 -0.12031566824E+04  0.12031566824E+04  0.00000000000E+00 0. -1.
         23    2    1    2    0    0  0.23548731833E+03  0.10348837368E+04 -0.26636408155E+03  0.10967386645E+04  0.73805476666E+02 0.  0.
         11    1    3    3    0    0  0.17958015506E+03  0.77939755757E+03 -0.23314124925E+03  0.83310529163E+03  0.00000000000E+00 0. -1.
        -11    1    3    3    0    0  0.55907163266E+02  0.25548617925E+03 -0.33222832305E+02  0.26363337285E+03  0.00000000000E+00 0.  1.
         22    1    1    2    0    0 -0.23548731833E+03 -0.10348837368E+04  0.18285008836E+02  0.10614956276E+04  0.00000000000E+00 0.  1.
<mgrwt>
<rscale>  0 0.21439291E+04</rscale>
<asrwt>0</asrwt>
<pdfrwt beam="1">  1        1 0.18510103E+00 0.21439291E+04</pdfrwt>
<pdfrwt beam="2">  1       -1 0.14693502E+00 0.21439291E+04</pdfrwt>
<totfact> 0.35917520E+00</totfact>
</mgrwt>
</event>
<event>
 6    1  0.9562506E-007  0.4666709E+04  0.7818608E-02  0.7882084E-01
         -2   -1    0    0    0  501 -0.00000000000E+00  0.00000000000E+00  0.22810469074E+04  0.22810469074E+04  0.00000000000E+00 0.  1.
          2   -1    0    0  501    0  0.00000000000E+00 -0.00000000000E+00 -0.23868619829E+04  0.23868619829E+04  0.00000000000E+00 0. -1.
         23    2    1    2    0    0 -0.20124233086E+04 -0.27239379623E+03  0.10947729950E+04  0.23087866663E+04  0.89005655306E+02 0.  0.
         13    1    3    3    0    0 -0.62952349218E+03 -0.92812748346E+02  0.29729548062E+03  0.70235221667E+03  0.00000000000E+00 0. -1.
        -13    1    3    3    0    0 -0.13828998164E+04 -0.17958104788E+03  0.79747751441E+03  0.16064344496E+04  0.00000000000E+00 0.  1.
         22    1    1    2    0    0  0.20124233086E+04  0.27239379623E+03 -0.12005880706E+04  0.23591222241E+04  0.00000000000E+00 0. -1.
<mgrwt>
<rscale>  0 0.46667094E+04</rscale>
<asrwt>0</asrwt>
<pdfrwt beam="1">  1        2 0.36720953E+00 0.46667094E+04</pdfrwt>
<pdfrwt beam="2">  1       -2 0.35093029E+00 0.46667094E+04</pdfrwt>
<totfact> 0.46417900E-02</totfact>
</mgrwt>
</event>
<event>
 6    1  0.9562506E-007  0.2331922E+04  0.7818608E-02  0.8465440E-01
          2   -1    0    0  501    0  0.00000000000E+00  0.00000000000E+00  0.11645228971E+04  0.11645228971E+04  0.00000000000E+00 0. -1.
         -2   -1    0    0    0  501 -0.00000000000E+00 -0.00000000000E+00 -0.11674008269E+04  0.11674008269E+04  0.00000000000E+00 0.  1.
         23    2    1    2    0    0  0.67039559117E+03  0.53357291442E+03  0.78628148066E+03  0.11670619816E+04  0.98309706073E+02 0.  0.
         13    1    3    3    0    0  0.52626605565E+03  0.36968591470E+03  0.61165831447E+03  0.88755255085E+03  0.00000000000E+00 0. -1.
        -13    1    3    3    0    0  0.14412953552E+03  0.16388699971E+03  0.17462316619E+03  0.27950943071E+03  0.00000000000E+00 0.  1.
         22    1    1    2    0    0 -0.67039559117E+03 -0.53357291442E+03 -0.78915941047E+03  0.11648617424E+04  0.00000000000E+00 0.  1.
<mgrwt>
<rscale>  0 0.23319219E+04</rscale>
<asrwt>0</asrwt>
<pdfrwt beam="1">  1        2 0.17915737E+00 0.23319219E+04</pdfrwt>
<pdfrwt beam="2">  1       -2 0.17960013E+00 0.23319219E+04</pdfrwt>
<totfact> 0.32828680E+00</totfact>
</mgrwt>
</event>
<event>
 6    1  0.9562506E-007  0.4279307E+04  0.7818608E-02  0.7950455E-01
         -3   -1    0    0    0  501 -0.00000000000E+00  0.00000000000E+00  0.22851172801E+04  0.22851172801E+04  0.00000000000E+00 0.  1.
          3   -1    0    0  501    0  0.00000000000E+00 -0.00000000000E+00 -0.20034497409E+04  0.20034497409E+04  0.00000000000E+00 0. -1.
         23    2    1    2    0    0 -0.15883845522E+04 -0.13011899420E+04  0.74040542287E+03  0.21846418330E+04  0.91646044188E+02 0.  0.
         13    1    3    3    0    0 -0.11591652939E+04 -0.99363085029E+03  0.52769440231E+03  0.16153723494E+04  0.00000000000E+00 0. -1.
        -13    1    3    3    0    0 -0.42921925839E+03 -0.30755909171E+03  0.21271102056E+03  0.56926948358E+03  0.00000000000E+00 0.  1.
         22    1    1    2    0    0  0.15883845522E+04  0.13011899420E+04 -0.45873788368E+03  0.21039251880E+04  0.00000000000E+00 0. -1.
<mgrwt>
<rscale>  0 0.42793072E+04</rscale>
<asrwt>0</asrwt>
<pdfrwt beam="1">  1        3 0.30822304E+00 0.42793072E+04</pdfrwt>
<pdfrwt beam="2">  1       -3 0.35155650E+00 0.42793072E+04</pdfrwt>
<totfact> 0.13540022E-03</totfact>
</mgrwt>
</event>
<event>
 6    1  0.9562506E-007  0.2754232E+04  0.7818608E-02  0.8317620E-01
          2   -1    0    0  501    0  0.00000000000E+00  0.00000000000E+00  0.30581833094E+04  0.30581833094E+04  0.00000000000E+00 0. -1.
         -2   -1    0    0    0  501 -0.00000000000E+00 -0.00000000000E+00 -0.62012264638E+03  0.62012264638E+03  0.00000000000E+00 0.  1.
         23    2    1    2    0    0  0.77673781074E+03 -0.66716403864E+02 -0.29323597195E+03  0.83792675339E+03  0.91439617357E+02 0.  0.
         11    1    3    3    0    0  0.39493333119E+03 -0.28265577247E+02 -0.19731077126E+03  0.44238311382E+03  0.00000000000E+00 0.  1.
        -11    1    3    3    0    0  0.38180447956E+03 -0.38450826617E+02 -0.95925200687E+02  0.39554363957E+03  0.00000000000E+00 0. -1.
         22    1    1    2    0    0 -0.77673781074E+03  0.66716403864E+02  0.27312966349E+04  0.28403792024E+04  0.00000000000E+00 0. -1.
<mgrwt>
<rscale>  0 0.27542322E+04</rscale>
<asrwt>0</asrwt>
<pdfrwt beam="1">  1        2 0.47048973E+00 0.27542322E+04</pdfrwt>
<pdfrwt beam="2">  1       -2 0.95403486E-01 0.27542322E+04</pdfrwt>
<totfact> 0.12891909E+00</totfact>
</mgrwt>
</event>
<event>
 6    1  0.9562506E-007  0.4325184E+04  0.7818608E-02  0.7941978E-01
         -2   -1    0    0    0  501 -0.00000000000E+00  0.00000000000E+00  0.20778675471E+04  0.20778675471E+04  0.00000000000E+00 0.  1.
          2   -1    0    0  501    0  0.00000000000E+00 -0.00000000000E+00 -0.22507707484E+04  0.22507707484E+04  0.00000000000E+00 0. -1.
         23    2    1    2    0    0 -0.10206790559E+04  0.12201173033E+04  0.13783044383E+04  0.21067658621E+04  0.90924717282E+02 0.  0.
         11    1    3    3    0    0 -0.29000368044E+03  0.35463537497E+03  0.34382294607E+03  0.57278495275E+03  0.00000000000E+00 0. -1.
        -11    1    3    3    0    0 -0.73067537546E+03  0.86548192831E+03  0.10344814922E+04  0.15339809094E+04  0.00000000000E+00 0.  1.
         22    1    1    2    0    0  0.10206790559E+04 -0.12201173033E+04 -0.15512076396E+04  0.22218724333E+04  0.00000000000E+00 0. -1.
<mgrwt>
<rscale>  0 0.43251837E+04</rscale>
<asrwt>0</asrwt>
<pdfrwt beam="1">  1        2 0.34627242E+00 0.43251837E+04</pdfrwt>
<pdfrwt beam="2">  1       -2 0.31967193E+00 0.43251837E+04</pdfrwt>
<totfact> 0.89368962E-02</totfact>
</mgrwt>
</event>
<event>
 6    1  0.9562506E-007  0.3066741E+04  0.7818608E-02  0.8224925E-01
         -1   -1    0    0    0  501 -0.00000000000E+00  0.00000000000E+00  0.73623933063E+03  0.73623933063E+03  0.00000000000E+00 0.  1.
          1   -1    0    0  501    0  0.00000000000E+00 -0.00000000000E+00 -0.31935612038E+04  0.31935612038E+04  0.00000000000E+00 0. -1.
         23    2    1    2    0    0 -0.22243187536E+03  0.10336847822E+04  0.18973342468E+03  0.10793826847E+04  0.10529975984E+03 0.  0.
         11    1    3    3    0    0 -0.16206040982E+03  0.63989404975E+03  0.72305252649E+02  0.66404519492E+03  0.00000000000E+00 0. -1.
        -11    1    3    3    0    0 -0.60371465538E+02  0.39379073247E+03  0.11742817203E+03  0.41533748978E+03  0.00000000000E+00 0.  1.
         22    1    1    2    0    0  0.22243187536E+03 -0.10336847822E+04 -0.26470552978E+04  0.28504178497E+04  0.00000000000E+00 0. -1.
<mgrwt>
<rscale>  0 0.30667412E+04</rscale>
<asrwt>0</asrwt>
<pdfrwt beam="1">  1        1 0.49131710E+00 0.30667412E+04</pdfrwt>
<pdfrwt beam="2">  1       -1 0.11326759E+00 0.30667412E+04</pdfrwt>
<totfact> 0.25868201E-01</totfact>
</mgrwt>
</event>
<event>
 6    1  0.9562506E-007  0.1842594E+04  0.7818608E-02  0.8683971E-01
         -1   -1    0    0    0  501 -0.00000000000E+00  0.00000000000E+00  0.88173139034E+03  0.88173139034E+03  0.00000000000E+00 0.  1.
          1   -1    0    0  501    0  0.00000000000E+00 -0.00000000000E+00 -0.96263792531E+03  0.96263792531E+03  0.00000000000E+00 0. -1.
         23    2    1    2    0    0 -0.65883067070E+03 -0.49459017641E+03 -0.44817924808E+03  0.94239008027E+03  0.92504755066E+02 0.  0.
         13    1    3    3    0    0 -0.19594493042E+03 -0.15514399779E+03 -0.89182876662E+02  0.26536326291E+03  0.00000000000E+00 0. -1.
        -13    1    3    3    0    0 -0.46288574028E+03 -0.33944617862E+03 -0.35899637142E+03  0.67702681736E+03  0.00000000000E+00 0.  1.
         22    1    1    2    0    0  0.65883067070E+03  0.49459017641E+03  0.36727271312E+03  0.90197923538E+03  0.00000000000E+00 0.  1.
<mgrwt>
<rscale>  0 0.18425939E+04</rscale>
<asrwt>0</asrwt>
<pdfrwt beam="1">  1        1 0.14809814E+00 0.18425939E+04</pdfrwt>
<pdfrwt beam="2">  1       -1 0.13565098E+00 0.18425939E+04</pdfrwt>
<totfact> 0.69282364E+00</totfact>
</mgrwt>
</event>
<event>
 6    1  0.9562506E-007  0.1376583E+04  0.7818608E-02  0.8970946E-01
          2   -1    0    0  501    0  0.00000000000E+00  0.00000000000E+00  0.19420181841E+04  0.19420181841E+04  0.00000000000E+00 0. -1.
         -2   -1    0    0    0  501 -0.00000000000E+00 -0.00000000000E+00 -0.24394467672E+03  0.24394467672E+03  0.00000000000E+00 0.  1.
         23    2    1    2    0    0  0.46449437530E+03  0.86387667190E+02  0.64101775718E+02  0.48505678653E+03  0.89180686127E+02 0.  0.
         13    1    3    3    0    0  0.22502555370E+03  0.61544592720E+02 -0.89564020737E+01  0.23346188950E+03  0.00000000000E+00 0. -1.
        -13    1    3    3    0    0  0.23946882160E+03  0.24843074470E+02  0.73058177792E+02  0.25159489702E+03  0.00000000000E+00 0.  1.
         22    1    1    2    0    0 -0.46449437530E+03 -0.86387667190E+02  0.16339717317E+04  0.17009060743E+04  0.00000000000E+00 0. -1.
<mgrwt>
<rscale>  0 0.13765827E+04</rscale>
<asrwt>0</asrwt>
<pdfrwt beam="1">  1        2 0.29877202E+00 0.13765827E+04</pdfrwt>
<pdfrwt beam="2">  1       -2 0.37529952E-01 0.13765827E+04</pdfrwt>
<totfact> 0.47004548E+01</totfact>
</mgrwt>
</event>
<event>
 6    1  0.9562506E-007  0.1311300E+04  0.7818608E-02  0.9020652E-01
          1   -1    0    0  501    0  0.00000000000E+00  0.00000000000E+00  0.79838113671E+03  0.79838113671E+03  0.00000000000E+00 0. -1.
         -1   -1    0    0    0  501 -0.00000000000E+00 -0.00000000000E+00 -0.53843564155E+03  0.53843564155E+03  0.00000000000E+00 0.  1.
         23    2    1    2    0    0  0.17729726379E+03  0.28032518042E+02 -0.50894889068E+03  0.54724808689E+03  0.90726806773E+02 0.  0.
         11    1    3    3    0    0  0.68906546978E+02  0.78173687928E+01 -0.87685892168E+02  0.11179462937E+03  0.00000000000E+00 0.  1.
        -11    1    3    3    0    0  0.10839071682E+03  0.20215149249E+02 -0.42126299851E+03  0.43545345752E+03  0.00000000000E+00 0. -1.
         22    1    1    2    0    0 -0.17729726379E+03 -0.28032518042E+02  0.76889438584E+03  0.78956869137E+03  0.00000000000E+00 0. -1.
<mgrwt>
<rscale>  0 0.13112999E+04</rscale>
<asrwt>0</asrwt>
<pdfrwt beam="1">  1        1 0.12282787E+00 0.13112999E+04</pdfrwt>
<pdfrwt beam="2">  1       -1 0.82836253E-01 0.13112999E+04</pdfrwt>
<totfact> 0.31536365E+01</totfact>
</mgrwt>
</event>
<event>
 6    1  0.9562506E-007  0.7124255E+03  0.7818608E-02  0.9696216E-01
          2   -1    0    0  501    0  0.00000000000E+00  0.00000000000E+00  0.69108033041E+03  0.69108033041E+03  0.00000000000E+00 0. -1.
         -2   -1    0    0    0  501 -0.00000000000E+00 -0.00000000000E+00 -0.18360747022E+03  0.18360747022E+03  0.00000000000E+00 0.  1.
         23    2    1    2    0    0 -0.26306847992E+03  0.14199050274E+03  0.33881526770E+02  0.31463862504E+03  0.92104172074E+02 0.  0.
         13    1    3    3    0    0 -0.12575954919E+03  0.37755719874E+02 -0.22590091046E+02  0.13323389512E+03  0.00000000000E+00 0.  1.
        -13    1    3    3    0    0 -0.13730893073E+03  0.10423478287E+03  0.56471617816E+02  0.18140472992E+03  0.00000000000E+00 0. -1.
         22    1    1    2    0    0  0.26306847992E+03 -0.14199050274E+03  0.47359133342E+03  0.56004917559E+03  0.00000000000E+00 0. -1.
<mgrwt>
<rscale>  0 0.71242547E+03</rscale>
<asrwt>0</asrwt>
<pdfrwt beam="1">  1        2 0.10632005E+00 0.71242547E+03</pdfrwt>
<pdfrwt beam="2">  1       -2 0.28247303E-01 0.71242547E+03</pdfrwt>
<totfact> 0.48025132E+02</totfact>
</mgrwt>
</event>
<event>
 6    1  0.9562506E-007  0.4651746E+04  0.7818608E-02  0.7884596E-01
         -2   -1    0    0    0  501 -0.00000000000E+00  0.00000000000E+00  0.19520527098E+04  0.19520527098E+04  0.00000000000E+00 0.  1.
          2   -1    0    0  501    0  0.00000000000E+00 -0.00000000000E+00 -0.27712799250E+04  0.27712799250E+04  0.00000000000E+00 0. -1.
         23    2    1    2    0    0 -0.94404887972E+03  0.14214360154E+03  0.17427651911E+04  0.19892444539E+04  0.91814460238E+02 0.  0.
         13    1    3    3    0    0 -0.34051021194E+03  0.96039085726E+02  0.64531157466E+03  0.73593324345E+03  0.00000000000E+00 0. -1.
        -13    1    3    3    0    0 -0.60353866778E+03  0.46104515816E+02  0.10974536165E+04  0.12533112104E+04  0.00000000000E+00 0.  1.
         22    1    1    2    0    0  0.94404887972E+03 -0.14214360154E+03 -0.25619924063E+04  0.27340881809E+04  0.00000000000E+00 0. -1.
<mgrwt>
<rscale>  0 0.46517457E+04</rscale>
<asrwt>0</asrwt>
<pdfrwt beam="1">  1        2 0.42635076E+00 0.46517457E+04</pdfrwt>
<pdfrwt beam="2">  1       -2 0.30031580E+00 0.46517457E+04</pdfrwt>
<totfact> 0.56989728E-02</totfact>
</mgrwt>
</event>
<event>
 6    1  0.9562506E-007  0.1649460E+04  0.7818608E-02  0.8790726E-01
         -2   -1    0    0    0  501 -0.00000000000E+00  0.00000000000E+00  0.38974257104E+03  0.38974257104E+03  0.00000000000E+00 0.  1.
          2   -1    0    0  501    0  0.00000000000E+00 -0.00000000000E+00 -0.17452024084E+04  0.17452024084E+04  0.00000000000E+00 0. -1.
         23    2    1    2    0    0  0.27601280043E+03 -0.75787344168E+03 -0.88711767409E+03  0.12022608949E+04  0.88872223851E+02 0.  0.
         11    1    3    3    0    0  0.12874834687E+03 -0.44685910255E+03 -0.46477155235E+03  0.65747379433E+03  0.00000000000E+00 0. -1.
        -11    1    3    3    0    0  0.14726445356E+03 -0.31101433914E+03 -0.42234612174E+03  0.54478710060E+03  0.00000000000E+00 0.  1.
         22    1    1    2    0    0 -0.27601280043E+03  0.75787344168E+03 -0.46834216326E+03  0.93268408451E+03  0.00000000000E+00 0.  1.
<mgrwt>
<rscale>  0 0.16494601E+04</rscale>
<asrwt>0</asrwt>
<pdfrwt beam="1">  1        2 0.26849268E+00 0.16494601E+04</pdfrwt>
<pdfrwt beam="2">  1       -2 0.59960396E-01 0.16494601E+04</pdfrwt>
<totfact> 0.22928722E+01</totfact>
</mgrwt>
</event>
<event>
 6    1  0.9562506E-007  0.4484630E+04  0.7818608E-02  0.7913333E-01
         -2   -1    0    0    0  501 -0.00000000000E+00  0.00000000000E+00  0.15484188884E+04  0.15484188884E+04  0.00000000000E+00 0.  1.
          2   -1    0    0  501    0  0.00000000000E+00 -0.00000000000E+00 -0.32471677089E+04  0.32471677089E+04  0.00000000000E+00 0. -1.
         23    2    1    2    0    0 -0.79207796170E+03 -0.11425861802E+04  0.10303123353E+04  0.17327993914E+04  0.90330204366E+02 0.  0.
         13    1    3    3    0    0 -0.68738609067E+03 -0.10379394945E+04  0.93126122839E+03  0.15546914509E+04  0.00000000000E+00 0. -1.
        -13    1    3    3    0    0 -0.10469187103E+03 -0.10464668575E+03  0.99051106939E+02  0.17810794054E+03  0.00000000000E+00 0.  1.
         22    1    1    2    0    0  0.79207796170E+03  0.11425861802E+04 -0.27290611558E+04  0.30627872059E+04  0.00000000000E+00 0. -1.
<mgrwt>
<rscale>  0 0.44846297E+04</rscale>
<asrwt>0</asrwt>
<pdfrwt beam="1">  1        2 0.49956425E+00 0.44846297E+04</pdfrwt>
<pdfrwt beam="2">  1       -2 0.23821829E+00 0.44846297E+04</pdfrwt>
<totfact> 0.69531249E-02</totfact>
</mgrwt>
</event>
<event>
 6    1  0.9562506E-007  0.1429238E+04  0.7818608E-02  0.8932922E-01
          1   -1    0    0  501    0  0.00000000000E+00  0.00000000000E+00  0.65096897125E+03  0.65096897125E+03  0.00000000000E+00 0. -1.
         -1   -1    0    0    0  501 -0.00000000000E+00 -0.00000000000E+00 -0.78449239170E+03  0.78449239170E+03  0.00000000000E+00 0.  1.
         23    2    1    2    0    0 -0.63238804014E+03 -0.32228064139E+03 -0.45130634538E+01  0.71405778843E+03  0.77966097405E+02 0.  0.
         11    1    3    3    0    0 -0.10813348656E+03 -0.38393446577E+02  0.23851799753E+02  0.11719989765E+03  0.00000000000E+00 0. -1.
        -11    1    3    3    0    0 -0.52425455358E+03 -0.28388719481E+03 -0.28364863206E+02  0.59685789078E+03  0.00000000000E+00 0.  1.
         22    1    1    2    0    0  0.63238804014E+03  0.32228064139E+03 -0.12901035700E+03  0.72140357453E+03  0.00000000000E+00 0.  1.
<mgrwt>
<rscale>  0 0.14292378E+04</rscale>
<asrwt>0</asrwt>
<pdfrwt beam="1">  1        1 0.10014907E+00 0.14292378E+04</pdfrwt>
<pdfrwt beam="2">  1       -1 0.12069114E+00 0.14292378E+04</pdfrwt>
<totfact> 0.18051951E+01</totfact>
</mgrwt>
</event>
<event>
 6    1  0.9562506E-007  0.8099437E+03  0.7818608E-02  0.9545734E-01
          1   -1    0    0  501    0  0.00000000000E+00  0.00000000000E+00  0.61442479335E+03  0.61442479335E+03  0.00000000000E+00 0. -1.
         -1   -1    0    0    0  501 -0.00000000000E+00 -0.00000000000E+00 -0.26691990410E+03  0.26691990410E+03  0.00000000000E+00 0.  1.
         23    2    1    2    0    0 -0.13956005889E+03  0.30224645237E+03  0.41687408655E+03  0.54128291844E+03  0.91505550394E+02 0.  0.
         13    1    3    3    0    0 -0.12193504958E+03  0.17265626002E+03  0.29185265211E+03  0.36035581164E+03  0.00000000000E+00 0.  1.
        -13    1    3    3    0    0 -0.17625009316E+02  0.12959019235E+03  0.12502143444E+03  0.18092710680E+03  0.00000000000E+00 0. -1.
         22    1    1    2    0    0  0.13956005889E+03 -0.30224645237E+03 -0.69369197304E+02  0.34006177901E+03  0.00000000000E+00 0.  1.
<mgrwt>
<rscale>  0 0.80994372E+03</rscale>
<asrwt>0</asrwt>
<pdfrwt beam="1">  1        1 0.94526891E-01 0.80994372E+03</pdfrwt>
<pdfrwt beam="2">  1       -1 0.41064601E-01 0.80994372E+03</pdfrwt>
<totfact> 0.19402784E+02</totfact>
</mgrwt>
</event>
<event>
 6    1  0.9562506E-007  0.2335832E+04  0.7818608E-02  0.8463926E-01
         -1   -1    0    0    0  501 -0.00000000000E+00  0.00000000000E+00  0.62913118789E+03  0.62913118789E+03  0.00000000000E+00 0.  1.
          1   -1    0    0  501    0  0.00000000000E+00 -0.00000000000E+00 -0.21681133725E+04  0.21681133725E+04  0.00000000000E+00 0. -1.
         23    2    1    2    0    0 -0.79717859526E+03  0.72134395654E+03 -0.13116986180E+04  0.16983866824E+04  0.90184488573E+02 0.  0.
         13    1    3    3    0    0 -0.11880241661E+03  0.15000021649E+03 -0.25494790413E+03  0.31876717673E+03  0.00000000000E+00 0.  1.
        -13    1    3    3    0    0 -0.67837617865E+03  0.57134374005E+03 -0.10567507139E+04  0.13796195056E+04  0.00000000000E+00 0. -1.
         22    1    1    2    0    0  0.79717859526E+03 -0.72134395654E+03 -0.22728356655E+03  0.10988578780E+04  0.00000000000E+00 0.  1.
<mgrwt>
<rscale>  0 0.23358320E+04</rscale>
<asrwt>0</asrwt>
<pdfrwt beam="1">  1        1 0.33355591E+00 0.23358320E+04</pdfrwt>
<pdfrwt beam="2">  1       -1 0.96789413E-01 0.23358320E+04</pdfrwt>
<totfact> 0.21183179E+00</totfact>
</mgrwt>
</event>
<event>
 6    1  0.9562506E-007  0.1965084E+04  0.7818608E-02  0.8623121E-01
         -2   -1    0    0    0  501 -0.00000000000E+00  0.00000000000E+00  0.61784420048E+03  0.61784420048E+03  0.00000000000E+00 0.  1.
          2   -1    0    0  501    0  0.00000000000E+00 -0.00000000000E+00 -0.15625111498E+04  0.15625111498E+04  0.00000000000E+00 0. -1.
         23    2    1    2    0    0 -0.53608385126E+03  0.72350857314E+03 -0.90174229801E+03  0.12788604381E+04  0.10721146046E+03 0.  0.
         13    1    3    3    0    0 -0.82372830162E+02  0.18478641675E+03 -0.21226612320E+03  0.29323746353E+03  0.00000000000E+00 0. -1.
        -13    1    3    3    0    0 -0.45371102109E+03  0.53872215640E+03 -0.68947617481E+03  0.98562297461E+03  0.00000000000E+00 0.  1.
         22    1    1    2    0    0  0.53608385126E+03 -0.72350857314E+03 -0.42924651359E+02  0.90149491218E+03  0.00000000000E+00 0.  1.
<mgrwt>
<rscale>  0 0.19650837E+04</rscale>
<asrwt>0</asrwt>
<pdfrwt beam="1">  1        2 0.24038633E+00 0.19650837E+04</pdfrwt>
<pdfrwt beam="2">  1       -2 0.95052954E-01 0.19650837E+04</pdfrwt>
<totfact> 0.10151310E+01</totfact>
</mgrwt>
</event>
<event>
 6    1  0.9562506E-007  0.8435861E+03  0.7818608E-02  0.9498986E-01
         -2   -1    0    0    0  501 -0.00000000000E+00  0.00000000000E+00  0.61431575391E+03  0.61431575391E+03  0.00000000000E+00 0.  1.
          2   -1    0    0  501    0  0.00000000000E+00 -0.00000000000E+00 -0.28960573720E+03  0.28960573720E+03  0.00000000000E+00 0. -1.
         23    2    1    2    0    0 -0.21524517837E+03  0.12838206316E+03 -0.19235110669E+03  0.32932193813E+03  0.92959936201E+02 0.  0.
         11    1    3    3    0    0 -0.12946673029E+03  0.10212718864E+03 -0.17007599527E+03  0.23689120093E+03  0.00000000000E+00 0.  1.
        -11    1    3    3    0    0 -0.85778448081E+02  0.26254874522E+02 -0.22275111419E+02  0.92430737204E+02  0.00000000000E+00 0. -1.
         22    1    1    2    0    0  0.21524517837E+03 -0.12838206316E+03  0.51706112339E+03  0.57459955297E+03  0.00000000000E+00 0.  1.
<mgrwt>
<rscale>  0 0.84358608E+03</rscale>
<asrwt>0</asrwt>
<pdfrwt beam="1">  1        2 0.44554729E-01 0.84358608E+03</pdfrwt>
<pdfrwt beam="2">  1       -2 0.94510115E-01 0.84358608E+03</pdfrwt>
<totfact> 0.10835045E+02</totfact>
</mgrwt>
</event>
<event>
 6    1  0.9562506E-007  0.8642987E+03  0.7818608E-02  0.9471344E-01
         -1   -1    0    0    0  501 -0.00000000000E+00  0.00000000000E+00  0.48300086917E+03  0.48300086917E+03  0.00000000000E+00 0.  1.
          1   -1    0    0  501    0  0.00000000000E+00 -0.00000000000E+00 -0.38665162306E+03  0.38665162306E+03  0.00000000000E+00 0. -1.
         23    2    1    2    0    0  0.38075376900E+03  0.19416015103E+03  0.43307234926E+02  0.43897273672E+03  0.90277074221E+02 0.  0.
         13    1    3    3    0    0  0.19466204609E+03  0.14058822677E+03  0.49728991141E+02  0.24521691266E+03  0.00000000000E+00 0.  1.
        -13    1    3    3    0    0  0.18609172291E+03  0.53571924264E+02 -0.64217562149E+01  0.19375582406E+03  0.00000000000E+00 0. -1.
         22    1    1    2    0    0 -0.38075376900E+03 -0.19416015103E+03  0.53042011176E+02  0.43067975551E+03  0.00000000000E+00 0. -1.
<mgrwt>
<rscale>  0 0.86429872E+03</rscale>
<asrwt>0</asrwt>
<pdfrwt beam="1">  1        1 0.59484865E-01 0.86429872E+03</pdfrwt>
<pdfrwt beam="2">  1       -1 0.74307826E-01 0.86429872E+03</pdfrwt>
<totfact> 0.11558044E+02</totfact>
</mgrwt>
</event>
<event>
 6    1  0.9562506E-007  0.2082546E+04  0.7818608E-02  0.8568971E-01
          2   -1    0    0  501    0  0.00000000000E+00  0.00000000000E+00  0.15660498925E+04  0.15660498925E+04  0.00000000000E+00 0. -1.
         -2   -1    0    0    0  501 -0.00000000000E+00 -0.00000000000E+00 -0.69234686081E+03  0.69234686081E+03  0.00000000000E+00 0.  1.
         23    2    1    2    0    0  0.34032883262E+03  0.76694283438E+03  0.11027241840E+04  0.13886406302E+04  0.91088683926E+02 0.  0.
         11    1    3    3    0    0  0.17893085194E+03  0.30940728318E+03  0.50761134696E+03  0.62082074404E+03  0.00000000000E+00 0.  1.
        -11    1    3    3    0    0  0.16139798068E+03  0.45753555120E+03  0.59511283707E+03  0.76781988618E+03  0.00000000000E+00 0. -1.
         22    1    1    2    0    0 -0.34032883262E+03 -0.76694283438E+03 -0.22902115230E+03  0.86975612313E+03  0.00000000000E+00 0.  1.
<mgrwt>
<rscale>  0 0.20825463E+04</rscale>
<asrwt>0</asrwt>
<pdfrwt beam="1">  1        2 0.24093075E+00 0.20825463E+04</pdfrwt>
<pdfrwt beam="2">  1       -2 0.10651490E+00 0.20825463E+04</pdfrwt>
<totfact> 0.76372952E+00</totfact>
</mgrwt>
</event>
<event>
 6    1  0.9562506E-007  0.1786900E+04  0.7818608E-02  0.8713297E-01
         -2   -1    0    0    0  501 -0.00000000000E+00  0.00000000000E+00  0.46509472767E+03  0.46509472767E+03  0.00000000000E+00 0.  1.
          2   -1    0    0  501    0  0.00000000000E+00 -0.00000000000E+00 -0.17163233191E+04  0.17163233191E+04  0.00000000000E+00 0. -1.
         23    2    1    2    0    0  0.62732471008E+02 -0.23257458931E+03 -0.16745859052E+04  0.16943269695E+04  0.92084868612E+02 0.  0.
         13    1    3    3    0    0  0.64312851817E+02 -0.70596986580E+02 -0.57602389691E+03  0.58388663903E+03  0.00000000000E+00 0.  1.
        -13    1    3    3    0    0 -0.15803808087E+01 -0.16197760273E+03 -0.10985620083E+04  0.11104403304E+04  0.00000000000E+00 0. -1.
         22    1    1    2    0    0 -0.62732471008E+02  0.23257458931E+03  0.42335731375E+03  0.48709107733E+03  0.00000000000E+00 0.  1.
<mgrwt>
<rscale>  0 0.17869000E+04</rscale>
<asrwt>0</asrwt>
<pdfrwt beam="1">  1        2 0.26404974E+00 0.17869000E+04</pdfrwt>
<pdfrwt beam="2">  1       -2 0.71553034E-01 0.17869000E+04</pdfrwt>
<totfact> 0.16078014E+01</totfact>
</mgrwt>
</event>
<event>
 6    1  0.9562506E-007  0.3066926E+04  0.7818608E-02  0.8224874E-01
          2   -1    0    0  501    0  0.00000000000E+00  0.00000000000E+00  0.10763784287E+04  0.10763784287E+04  0.00000000000E+00 0. -1.
         -2   -1    0    0    0  501 -0.00000000000E+00 -0.00000000000E+00 -0.21846491013E+04  0.21846491013E+04  0.00000000000E+00 0.  1.
         23    2    1    2    0    0 -0.75878900402E+03 -0.10862348487E+04  0.26514845653E+03  0.13526389419E+04  0.60510362646E+02 0.  0.
         13    1    3    3    0    0 -0.56868785894E+03 -0.85407758185E+03  0.21613327838E+03  0.10486028756E+04  0.00000000000E+00 0. -1.
        -13    1    3    3    0    0 -0.19010114509E+03 -0.23215726687E+03  0.49015178143E+02  0.30403606630E+03  0.00000000000E+00 0.  1.
         22    1    1    2    0    0  0.75878900402E+03  0.10862348487E+04 -0.13734191291E+04  0.19083885881E+04  0.00000000000E+00 0.  1.
<mgrwt>
<rscale>  0 0.30669263E+04</rscale>
<asrwt>0</asrwt>
<pdfrwt beam="1">  1        2 0.16559668E+00 0.30669263E+04</pdfrwt>
<pdfrwt beam="2">  1       -2 0.33609986E+00 0.30669263E+04</pdfrwt>
<totfact> 0.36478105E-01</totfact>
</mgrwt>
</event>
<event>
 6    1  0.9562506E-007  0.7516614E+03  0.7818608E-02  0.9632748E-01
          2   -1    0    0  501    0  0.00000000000E+00  0.00000000000E+00  0.10582177859E+04  0.10582177859E+04  0.00000000000E+00 0. -1.
         -2   -1    0    0    0  501 -0.00000000000E+00 -0.00000000000E+00 -0.13347791272E+03  0.13347791272E+03  0.00000000000E+00 0.  1.
         23    2    1    2    0    0 -0.15013952826E+03 -0.18446038573E+02  0.10050934179E+04  0.10204098952E+04  0.90229935350E+02 0.  0.
         11    1    3    3    0    0 -0.41098678563E+02 -0.17983297603E+02  0.11147282767E+03  0.12016110719E+03  0.00000000000E+00 0.  1.
        -11    1    3    3    0    0 -0.10904084969E+03 -0.46274097002E+00  0.89362059027E+03  0.90024878805E+03  0.00000000000E+00 0. -1.
         22    1    1    2    0    0  0.15013952826E+03  0.18446038573E+02 -0.80353544755E+02  0.17128580338E+03  0.00000000000E+00 0.  1.
<mgrwt>
<rscale>  0 0.75166136E+03</rscale>
<asrwt>0</asrwt>
<pdfrwt beam="1">  1        2 0.16280273E+00 0.75166136E+03</pdfrwt>
<pdfrwt beam="2">  1       -2 0.20535064E-01 0.75166136E+03</pdfrwt>
<totfact> 0.47421674E+02</totfact>
</mgrwt>
</event>
<event>
 6    1  0.9562506E-007  0.9823448E+03  0.7818608E-02  0.9328123E-01
         -2   -1    0    0    0  501 -0.00000000000E+00  0.00000000000E+00  0.60911692449E+03  0.60911692449E+03  0.00000000000E+00 0.  1.
          2   -1    0    0  501    0  0.00000000000E+00 -0.00000000000E+00 -0.39606574844E+03  0.39606574844E+03  0.00000000000E+00 0. -1.
         23    2    1    2    0    0 -0.21231023037E+03 -0.27613178798E+03  0.45583458671E+03  0.58060266546E+03  0.89386164764E+02 0.  0.
         13    1    3    3    0    0 -0.12246206587E+03 -0.21357911664E+03  0.35319811811E+03  0.43053676647E+03  0.00000000000E+00 0. -1.
        -13    1    3    3    0    0 -0.89848164501E+02 -0.62552671344E+02  0.10263646859E+03  0.15006589900E+03  0.00000000000E+00 0.  1.
         22    1    1    2    0    0  0.21231023037E+03  0.27613178798E+03 -0.24278341066E+03  0.42458000747E+03  0.00000000000E+00 0. -1.
<mgrwt>
<rscale>  0 0.98234485E+03</rscale>
<asrwt>0</asrwt>
<pdfrwt beam="1">  1        2 0.60933192E-01 0.98234485E+03</pdfrwt>
<pdfrwt beam="2">  1       -2 0.93710296E-01 0.98234485E+03</pdfrwt>
<totfact> 0.77355346E+01</totfact>
</mgrwt>
</event>
<event>
 6    1  0.9562506E-007  0.1382451E+04  0.7818608E-02  0.8966620E-01
         -1   -1    0    0    0  501 -0.00000000000E+00  0.00000000000E+00  0.76919805419E+03  0.76919805419E+03  0.00000000000E+00 0.  1.
          1   -1    0    0  501    0  0.00000000000E+00 -0.00000000000E+00 -0.62115707289E+03  0.62115707289E+03  0.00000000000E+00 0. -1.
         23    2    1    2    0    0 -0.60886573942E+03  0.22101310920E+03  0.30809150263E+03  0.72313668274E+03  0.91880383368E+02 0.  0.
         11    1    3    3    0    0 -0.37456973164E+03  0.91239389745E+02  0.16344098222E+03  0.41873627114E+03  0.00000000000E+00 0. -1.
        -11    1    3    3    0    0 -0.23429600778E+03  0.12977371946E+03  0.14465052041E+03  0.30440041160E+03  0.00000000000E+00 0.  1.
         22    1    1    2    0    0  0.60886573942E+03 -0.22101310920E+03 -0.16005052133E+03  0.66721844434E+03  0.00000000000E+00 0. -1.
<mgrwt>
<rscale>  0 0.13824512E+04</rscale>
<asrwt>0</asrwt>
<pdfrwt beam="1">  1        1 0.95562626E-01 0.13824512E+04</pdfrwt>
<pdfrwt beam="2">  1       -1 0.11833816E+00 0.13824512E+04</pdfrwt>
<totfact> 0.20374508E+01</totfact>
</mgrwt>
</event>
<event>
 6    1  0.9562506E-007  0.1706538E+04  0.7818608E-02  0.8757644E-01
          1   -1    0    0  501    0  0.00000000000E+00  0.00000000000E+00  0.13804452230E+04  0.13804452230E+04  0.00000000000E+00 0. -1.
         -1   -1    0    0    0  501 -0.00000000000E+00 -0.00000000000E+00 -0.52741516367E+03  0.52741516367E+03  0.00000000000E+00 0.  1.
         23    2    1    2    0    0  0.17774619417E+03 -0.24272150409E+02  0.13575207454E+04  0.13724225292E+04  0.92185561187E+02 0.  0.
         13    1    3    3    0    0  0.30986802844E+02  0.24197381238E+02  0.46132073756E+03  0.46299300006E+03  0.00000000000E+00 0. -1.
        -13    1    3    3    0    0  0.14675939132E+03 -0.48469531647E+02  0.89620000781E+03  0.90942952913E+03  0.00000000000E+00 0.  1.
         22    1    1    2    0    0 -0.17774619417E+03  0.24272150409E+02 -0.50449068608E+03  0.53543785743E+03  0.00000000000E+00 0.  1.
<mgrwt>
<rscale>  0 0.17065377E+04</rscale>
<asrwt>0</asrwt>
<pdfrwt beam="1">  1        1 0.21237619E+00 0.17065377E+04</pdfrwt>
<pdfrwt beam="2">  1       -1 0.81140795E-01 0.17065377E+04</pdfrwt>
<totfact> 0.11414874E+01</totfact>
</mgrwt>
</event>
<event>
 6    1  0.9562506E-007  0.3710004E+04  0.7818608E-02  0.8065748E-01
         -1   -1    0    0    0  501 -0.00000000000E+00  0.00000000000E+00  0.84100436205E+03  0.84100436205E+03  0.00000000000E+00 0.  1.
          1   -1    0    0  501    0  0.00000000000E+00 -0.00000000000E+00 -0.40915757338E+04  0.40915757338E+04  0.00000000000E+00 0. -1.
         23    2    1    2    0    0 -0.10384833866E+04 -0.10762697939E+04 -0.30827672867E+04  0.34276008187E+04  0.90492071211E+02 0.  0.
         11    1    3    3    0    0 -0.42739885554E+03 -0.41746910816E+03 -0.13250446477E+04  0.14535107693E+04  0.00000000000E+00 0.  1.
        -11    1    3    3    0    0 -0.61108453109E+03 -0.65880068576E+03 -0.17577226390E+04  0.19740900494E+04  0.00000000000E+00 0. -1.
         22    1    1    2    0    0  0.10384833866E+04  0.10762697939E+04 -0.16780408505E+03  0.15049792771E+04  0.00000000000E+00 0.  1.
<mgrwt>
<rscale>  0 0.37100043E+04</rscale>
<asrwt>0</asrwt>
<pdfrwt beam="1">  1        1 0.62947317E+00 0.37100043E+04</pdfrwt>
<pdfrwt beam="2">  1       -1 0.12938529E+00 0.37100043E+04</pdfrwt>
<totfact> 0.32608907E-02</totfact>
</mgrwt>
</event>
<event>
 6    1  0.9562506E-007  0.5254652E+04  0.7818608E-02  0.7790382E-01
          2   -1    0    0  501    0  0.00000000000E+00  0.00000000000E+00  0.30796855767E+04  0.30796855767E+04  0.00000000000E+00 0. -1.
         -2   -1    0    0    0  501 -0.00000000000E+00 -0.00000000000E+00 -0.22414111959E+04  0.22414111959E+04  0.00000000000E+00 0.  1.
         23    2    1    2    0    0 -0.13530357392E+04  0.95918932976E+03 -0.16432243425E+04  0.23363713589E+04  0.87721177742E+02 0.  0.
         13    1    3    3    0    0 -0.86798266635E+03  0.60747181681E+03 -0.11075970872E+04  0.15327058507E+04  0.00000000000E+00 0. -1.
        -13    1    3    3    0    0 -0.48505307284E+03  0.35171751294E+03 -0.53562725531E+03  0.80366550817E+03  0.00000000000E+00 0.  1.
         22    1    1    2    0    0  0.13530357392E+04 -0.95918932976E+03  0.24814987232E+04  0.29847254137E+04  0.00000000000E+00 0. -1.
<mgrwt>
<rscale>  0 0.52546519E+04</rscale>
<asrwt>0</asrwt>
<pdfrwt beam="1">  1        2 0.47379778E+00 0.52546519E+04</pdfrwt>
<pdfrwt beam="2">  1       -2 0.34483249E+00 0.52546519E+04</pdfrwt>
<totfact> 0.18539676E-02</totfact>
</mgrwt>
</event>
<event>
 6    1  0.9562506E-007  0.3429718E+04  0.7818608E-02  0.8130651E-01
          2   -1    0    0  501    0  0.00000000000E+00  0.00000000000E+00  0.16789370136E+04  0.16789370136E+04  0.00000000000E+00 0. -1.
         -2   -1    0    0    0  501 -0.00000000000E+00 -0.00000000000E+00 -0.17515499206E+04  0.17515499206E+04  0.00000000000E+00 0.  1.
         23    2    1    2    0    0  0.56347576240E+03 -0.14829413967E+04 -0.68450748802E+03  0.17301825205E+04  0.91438133790E+02 0.  0.
         13    1    3    3    0    0  0.15964305512E+03 -0.32789863868E+03 -0.17923904322E+03  0.40636197769E+03  0.00000000000E+00 0.  1.
        -13    1    3    3    0    0  0.40383270728E+03 -0.11550427580E+04 -0.50526844480E+03  0.13238205428E+04  0.00000000000E+00 0. -1.
         22    1    1    2    0    0 -0.56347576240E+03  0.14829413967E+04  0.61189458098E+03  0.17003044136E+04  0.00000000000E+00 0. -1.
<mgrwt>
<rscale>  0 0.34297184E+04</rscale>
<asrwt>0</asrwt>
<pdfrwt beam="1">  1        2 0.25829800E+00 0.34297184E+04</pdfrwt>
<pdfrwt beam="2">  1       -2 0.26946922E+00 0.34297184E+04</pdfrwt>
<totfact> 0.40659576E-01</totfact>
</mgrwt>
</event>
<event>
 6    1  0.9562506E-007  0.1917695E+04  0.7818608E-02  0.8646098E-01
         -2   -1    0    0    0  501 -0.00000000000E+00  0.00000000000E+00  0.30295339197E+03  0.30295339197E+03  0.00000000000E+00 0.  1.
          2   -1    0    0  501    0  0.00000000000E+00 -0.00000000000E+00 -0.30347519887E+04  0.30347519887E+04  0.00000000000E+00 0. -1.
         23    2    1    2    0    0  0.42759659471E+03 -0.13340291016E+03 -0.28402569170E+04  0.28768383808E+04  0.92220013887E+02 0.  0.
         13    1    3    3    0    0  0.25451064424E+03 -0.37786806330E+02 -0.17463127831E+04  0.17651662378E+04  0.00000000000E+00 0. -1.
        -13    1    3    3    0    0  0.17308595046E+03 -0.95616103831E+02 -0.10939441339E+04  0.11116721431E+04  0.00000000000E+00 0.  1.
         22    1    1    2    0    0 -0.42759659471E+03  0.13340291016E+03  0.10845832028E+03  0.46086699978E+03  0.00000000000E+00 0.  1.
<mgrwt>
<rscale>  0 0.19176949E+04</rscale>
<asrwt>0</asrwt>
<pdfrwt beam="1">  1        2 0.46688492E+00 0.19176949E+04</pdfrwt>
<pdfrwt beam="2">  1       -2 0.46608214E-01 0.19176949E+04</pdfrwt>
<totfact> 0.67787182E+00</totfact>
</mgrwt>
</event>
<event>
 6    1  0.9562506E-007  0.5528751E+03  0.7818608E-02  0.1000831E+00
         -1   -1    0    0    0  501 -0.00000000000E+00  0.00000000000E+00  0.37353818830E+03  0.37353818830E+03  0.00000000000E+00 0.  1.
          1   -1    0    0  501    0  0.00000000000E+00 -0.00000000000E+00 -0.20457806073E+03  0.20457806073E+03  0.00000000000E+00 0. -1.
         23    2    1    2    0    0  0.42609228846E+02 -0.26211790510E+03  0.48010517806E+02  0.28631126165E+03  0.95644059797E+02 0.  0.
         13    1    3    3    0    0  0.39761200703E+02 -0.20872805615E+03  0.76370828440E+02  0.22578941061E+03  0.00000000000E+00 0.  1.
        -13    1    3    3    0    0  0.28480281437E+01 -0.53389848943E+02 -0.28360310634E+02  0.60521851043E+02  0.00000000000E+00 0. -1.
         22    1    1    2    0    0 -0.42609228846E+02  0.26211790510E+03  0.12094960977E+03  0.29180498738E+03  0.00000000000E+00 0. -1.
<mgrwt>
<rscale>  0 0.55287510E+03</rscale>
<asrwt>0</asrwt>
<pdfrwt beam="1">  1        1 0.31473548E-01 0.55287510E+03</pdfrwt>
<pdfrwt beam="2">  1       -1 0.57467413E-01 0.55287510E+03</pdfrwt>
<totfact> 0.44841253E+02</totfact>
</mgrwt>
</event>
<event>
 6    1  0.9562506E-007  0.1722119E+04  0.7818608E-02  0.8748849E-01
         -2   -1    0    0    0  501 -0.00000000000E+00  0.00000000000E+00  0.20673530269E+03  0.20673530269E+03  0.00000000000E+00 0.  1.
          2   -1    0    0  501    0  0.00000000000E+00 -0.00000000000E+00 -0.35863429658E+04  0.35863429658E+04  0.00000000000E+00 0. -1.
         23    2    1    2    0    0  0.22701197081E+03 -0.68570926514E+03 -0.67202877212E+03  0.99080863797E+03  0.91364409585E+02 0.  0.
         11    1    3    3    0    0  0.58303363258E+02 -0.15359364254E+03 -0.10421439324E+03  0.19455315201E+03  0.00000000000E+00 0. -1.
        -11    1    3    3    0    0  0.16870860755E+03 -0.53211562259E+03 -0.56781437888E+03  0.79625548597E+03  0.00000000000E+00 0.  1.
         22    1    1    2    0    0 -0.22701197081E+03  0.68570926514E+03 -0.27075788910E+04  0.28022696305E+04  0.00000000000E+00 0. -1.
<mgrwt>
<rscale>  0 0.17221193E+04</rscale>
<asrwt>0</asrwt>
<pdfrwt beam="1">  1        2 0.55174502E+00 0.17221193E+04</pdfrwt>
<pdfrwt beam="2">  1       -2 0.31805434E-01 0.17221193E+04</pdfrwt>
<totfact> 0.62297676E+00</totfact>
</mgrwt>
</event>
<event>
 6    1  0.9562506E-007  0.3061467E+04  0.7818608E-02  0.8226393E-01
         -2   -1    0    0    0  501 -0.00000000000E+00  0.00000000000E+00  0.11339920520E+04  0.11339920520E+04  0.00000000000E+00 0.  1.
          2   -1    0    0  501    0  0.00000000000E+00 -0.00000000000E+00 -0.20662797450E+04  0.20662797450E+04  0.00000000000E+00 0. -1.
         23    2    1    2    0    0 -0.84664382179E+01  0.11400487609E+04  0.59907393144E+03  0.12911224360E+04  0.91239857590E+02 0.  0.
         13    1    3    3    0    0 -0.32781835785E+02  0.10156143983E+04  0.54741758595E+03  0.11542154341E+04  0.00000000000E+00 0.  1.
        -13    1    3    3    0    0  0.24315397567E+02  0.12443436256E+03  0.51656345487E+02  0.13690700192E+03  0.00000000000E+00 0. -1.
         22    1    1    2    0    0  0.84664382179E+01 -0.11400487609E+04 -0.15313616244E+04  0.19091493610E+04  0.00000000000E+00 0. -1.
<mgrwt>
<rscale>  0 0.30614668E+04</rscale>
<asrwt>0</asrwt>
<pdfrwt beam="1">  1        2 0.31788919E+00 0.30614668E+04</pdfrwt>
<pdfrwt beam="2">  1       -2 0.17446032E+00 0.30614668E+04</pdfrwt>
<totfact> 0.10359516E+00</totfact>
</mgrwt>
</event>
<event>
 6    1  0.9562506E-007  0.9289434E+03  0.7818608E-02  0.9390107E-01
         -1   -1    0    0    0  501 -0.00000000000E+00  0.00000000000E+00  0.14666311380E+03  0.14666311380E+03  0.00000000000E+00 0.  1.
          1   -1    0    0  501    0  0.00000000000E+00 -0.00000000000E+00 -0.14709489032E+04  0.14709489032E+04  0.00000000000E+00 0. -1.
         23    2    1    2    0    0 -0.25280075971E+03  0.23892288208E+03 -0.11927879879E+04  0.12457463968E+04  0.90269226811E+02 0.  0.
         13    1    3    3    0    0 -0.17961885446E+03  0.13681896350E+03 -0.63385328820E+03  0.67286874843E+03  0.00000000000E+00 0. -1.
        -13    1    3    3    0    0 -0.73181905248E+02  0.10210391858E+03 -0.55893469972E+03  0.57287764836E+03  0.00000000000E+00 0.  1.
         22    1    1    2    0    0  0.25280075971E+03 -0.23892288208E+03 -0.13149780146E+03  0.37186562019E+03  0.00000000000E+00 0.  1.
<mgrwt>
<rscale>  0 0.92894337E+03</rscale>
<asrwt>0</asrwt>
<pdfrwt beam="1">  1        1 0.22629982E+00 0.92894337E+03</pdfrwt>
<pdfrwt beam="2">  1       -1 0.22563557E-01 0.92894337E+03</pdfrwt>
<totfact> 0.11513802E+02</totfact>
</mgrwt>
</event>
<event>
 6    1  0.9562506E-007  0.2114608E+04  0.7818608E-02  0.8554836E-01
          1   -1    0    0  501    0  0.00000000000E+00  0.00000000000E+00  0.11569546739E+04  0.11569546739E+04  0.00000000000E+00 0. -1.
         -1   -1    0    0    0  501 -0.00000000000E+00 -0.00000000000E+00 -0.96623643738E+03  0.96623643738E+03  0.00000000000E+00 0.  1.
         23    2    1    2    0    0 -0.97102748616E+03  0.41306133174E+03  0.11503948655E+03  0.10652490922E+04  0.89484648350E+02 0.  0.
         13    1    3    3    0    0 -0.89444200820E+03  0.35826203838E+03  0.89476050713E+02  0.96766944657E+03  0.00000000000E+00 0. -1.
        -13    1    3    3    0    0 -0.76585477956E+02  0.54799293359E+02  0.25563435841E+02  0.97579645615E+02  0.00000000000E+00 0.  1.
         22    1    1    2    0    0  0.97102748616E+03 -0.41306133174E+03  0.75678750012E+02  0.10579420191E+04  0.00000000000E+00 0. -1.
<mgrwt>
<rscale>  0 0.21146080E+04</rscale>
<asrwt>0</asrwt>
<pdfrwt beam="1">  1        1 0.17799303E+00 0.21146080E+04</pdfrwt>
<pdfrwt beam="2">  1       -1 0.14865176E+00 0.21146080E+04</pdfrwt>
<totfact> 0.37748366E+00</totfact>
</mgrwt>
</event>
<event>
 6    1  0.9562506E-007  0.2308854E+04  0.7818608E-02  0.8474438E-01
         -2   -1    0    0    0  501 -0.00000000000E+00  0.00000000000E+00  0.24733671306E+04  0.24733671306E+04  0.00000000000E+00 0.  1.
          2   -1    0    0  501    0  0.00000000000E+00 -0.00000000000E+00 -0.53882059057E+03  0.53882059057E+03  0.00000000000E+00 0. -1.
         23    2    1    2    0    0 -0.92440677523E+03  0.19935526149E+02  0.18666534973E+04  0.20850767372E+04  0.90688532035E+02 0.  0.
         11    1    3    3    0    0 -0.53346375606E+03  0.27842055678E+02  0.98292780171E+03  0.11187072103E+04  0.00000000000E+00 0. -1.
        -11    1    3    3    0    0 -0.39094301917E+03 -0.79065295296E+01  0.88372569554E+03  0.96636952684E+03  0.00000000000E+00 0.  1.
         22    1    1    2    0    0  0.92440677523E+03 -0.19935526149E+02  0.67893042737E+02  0.92711098394E+03  0.00000000000E+00 0. -1.
<mgrwt>
<rscale>  0 0.23088535E+04</rscale>
<asrwt>0</asrwt>
<pdfrwt beam="1">  1        2 0.82895477E-01 0.23088535E+04</pdfrwt>
<pdfrwt beam="2">  1       -2 0.38051801E+00 0.23088535E+04</pdfrwt>
<totfact> 0.50832117E-01</totfact>
</mgrwt>
</event>
<event>
 6    1  0.9562506E-007  0.3911010E+04  0.7818608E-02  0.8022743E-01
         -2   -1    0    0    0  501 -0.00000000000E+00  0.00000000000E+00  0.18597848493E+04  0.18597848493E+04  0.00000000000E+00 0.  1.
          2   -1    0    0  501    0  0.00000000000E+00 -0.00000000000E+00 -0.20561516854E+04  0.20561516854E+04  0.00000000000E+00 0. -1.
         23    2    1    2    0    0 -0.13965647420E+04 -0.12141174314E+03 -0.14617182781E+04  0.20274852745E+04  0.94563862002E+02 0.  0.
         13    1    3    3    0    0 -0.43783597922E+03 -0.24450426291E+02 -0.39809246520E+03  0.59226326823E+03  0.00000000000E+00 0. -1.
        -13    1    3    3    0    0 -0.95872876280E+03 -0.96961316845E+02 -0.10636258129E+04  0.14352220063E+04  0.00000000000E+00 0.  1.
         22    1    1    2    0    0  0.13965647420E+04  0.12141174314E+03  0.12653514420E+04  0.18884512601E+04  0.00000000000E+00 0.  1.
<mgrwt>
<rscale>  0 0.39110100E+04</rscale>
<asrwt>0</asrwt>
<pdfrwt beam="1">  1        2 0.31633103E+00 0.39110100E+04</pdfrwt>
<pdfrwt beam="2">  1       -2 0.28612075E+00 0.39110100E+04</pdfrwt>
<totfact> 0.19088587E-01</totfact>
</mgrwt>
</event>
<event>
 6    1  0.9562506E-007  0.4610084E+04  0.7818608E-02  0.7891643E-01
         -1   -1    0    0    0  501 -0.00000000000E+00  0.00000000000E+00  0.16861974236E+04  0.16861974236E+04  0.00000000000E+00 0.  1.
          1   -1    0    0  501    0  0.00000000000E+00 -0.00000000000E+00 -0.31510058858E+04  0.31510058858E+04  0.00000000000E+00 0. -1.
         23    2    1    2    0    0 -0.91169809602E+03 -0.20952505399E+04 -0.42174133953E+03  0.23253798152E+04  0.90869601521E+02 0.  0.
         13    1    3    3    0    0 -0.37054323400E+02 -0.96650758225E+02 -0.38095887563E+02  0.11029818039E+03  0.00000000000E+00 0. -1.
        -13    1    3    3    0    0 -0.87464377262E+03 -0.19985997816E+04 -0.38364545197E+03  0.22150816348E+04  0.00000000000E+00 0.  1.
         22    1    1    2    0    0  0.91169809602E+03  0.20952505399E+04 -0.10430671227E+04  0.25118234941E+04  0.00000000000E+00 0.  1.
<mgrwt>
<rscale>  0 0.46100837E+04</rscale>
<asrwt>0</asrwt>
<pdfrwt beam="1">  1        1 0.48477013E+00 0.46100837E+04</pdfrwt>
<pdfrwt beam="2">  1       -1 0.25941499E+00 0.46100837E+04</pdfrwt>
<totfact> 0.20840092E-02</totfact>
</mgrwt>
</event>
<event>
 6    1  0.9562506E-007  0.2036730E+04  0.7818608E-02  0.8589638E-01
         -1   -1    0    0    0  501 -0.00000000000E+00  0.00000000000E+00  0.73490302180E+03  0.73490302180E+03  0.00000000000E+00 0.  1.
          1   -1    0    0  501    0  0.00000000000E+00 -0.00000000000E+00 -0.14111620537E+04  0.14111620537E+04  0.00000000000E+00 0. -1.
         23    2    1    2    0    0  0.66126287957E+03  0.41846228706E+03 -0.10221860992E+04  0.12904688989E+04  0.89812449791E+02 0.  0.
         11    1    3    3    0    0  0.36732179719E+03  0.21243044312E+03 -0.62114633617E+03  0.75224648008E+03  0.00000000000E+00 0.  1.
        -11    1    3    3    0    0  0.29394108237E+03  0.20603184395E+03 -0.40103976300E+03  0.53822241883E+03  0.00000000000E+00 0. -1.
         22    1    1    2    0    0 -0.66126287957E+03 -0.41846228706E+03  0.34592706725E+03  0.85559617662E+03  0.00000000000E+00 0.  1.
<mgrwt>
<rscale>  0 0.20367300E+04</rscale>
<asrwt>0</asrwt>
<pdfrwt beam="1">  1        1 0.21710185E+00 0.20367300E+04</pdfrwt>
<pdfrwt beam="2">  1       -1 0.11306200E+00 0.20367300E+04</pdfrwt>
<totfact> 0.49884040E+00</totfact>
</mgrwt>
</event>
<event>
 6    1  0.9562506E-007  0.1753375E+04  0.7818608E-02  0.8731495E-01
         -1   -1    0    0    0  501 -0.00000000000E+00  0.00000000000E+00  0.92135666703E+03  0.92135666703E+03  0.00000000000E+00 0.  1.
          1   -1    0    0  501    0  0.00000000000E+00 -0.00000000000E+00 -0.83418367087E+03  0.83418367087E+03  0.00000000000E+00 0. -1.
         23    2    1    2    0    0  0.64295158355E+02  0.82511923567E+03 -0.23866495787E+03  0.86608770131E+03  0.90505932270E+02 0.  0.
         11    1    3    3    0    0  0.70763304945E+02  0.46272909530E+03 -0.16418160417E+03  0.49606578204E+03  0.00000000000E+00 0.  1.
        -11    1    3    3    0    0 -0.64681465904E+01  0.36239014037E+03 -0.74483353703E+02  0.37002191926E+03  0.00000000000E+00 0. -1.
         22    1    1    2    0    0 -0.64295158355E+02 -0.82511923567E+03  0.32583795402E+03  0.88945263659E+03  0.00000000000E+00 0.  1.
<mgrwt>
<rscale>  0 0.17533747E+04</rscale>
<asrwt>0</asrwt>
<pdfrwt beam="1">  1        1 0.12833595E+00 0.17533747E+04</pdfrwt>
<pdfrwt beam="2">  1       -1 0.14174718E+00 0.17533747E+04</pdfrwt>
<totfact> 0.79408029E+00</totfact>
</mgrwt>
</event>
<event>
 6    1  0.9562506E-007  0.2802953E+04  0.7818608E-02  0.8302352E-01
         -2   -1    0    0    0  501 -0.00000000000E+00  0.00000000000E+00  0.72473490065E+03  0.72473490065E+03  0.00000000000E+00 0.  1.
          2   -1    0    0  501    0  0.00000000000E+00 -0.00000000000E+00 -0.27101448368E+04  0.27101448368E+04  0.00000000000E+00 0. -1.
         23    2    1    2    0    0  0.18849231502E+03 -0.13397467512E+04 -0.55190050115E+03  0.14637379338E+04  0.86509337418E+02 0.  0.
         13    1    3    3    0    0  0.47626783702E+02 -0.60796648980E+03 -0.22568111266E+03  0.65024881995E+03  0.00000000000E+00 0. -1.
        -13    1    3    3    0    0  0.14086553131E+03 -0.73178026137E+03 -0.32621938849E+03  0.81348911380E+03  0.00000000000E+00 0.  1.
         22    1    1    2    0    0 -0.18849231502E+03  0.13397467512E+04 -0.14335094350E+04  0.19711418037E+04  0.00000000000E+00 0. -1.
<mgrwt>
<rscale>  0 0.28029531E+04</rscale>
<asrwt>0</asrwt>
<pdfrwt beam="1">  1        2 0.41694537E+00 0.28029531E+04</pdfrwt>
<pdfrwt beam="2">  1       -2 0.11149768E+00 0.28029531E+04</pdfrwt>
<totfact> 0.14479783E+00</totfact>
</mgrwt>
</event>
<event>
 6    1  0.9562506E-007  0.6467462E+03  0.7818608E-02  0.9812904E-01
          2   -1    0    0  501    0  0.00000000000E+00  0.00000000000E+00  0.84431702682E+02  0.84431702682E+02  0.00000000000E+00 0. -1.
         -2   -1    0    0    0  501 -0.00000000000E+00 -0.00000000000E+00 -0.12385178359E+04  0.12385178359E+04  0.00000000000E+00 0.  1.
         23    2    1    2    0    0 -0.19750959258E+03 -0.17248834401E+03 -0.95266370427E+03  0.99229373135E+03  0.91194560461E+02 0.  0.
         13    1    3    3    0    0 -0.20669792407E+03 -0.15709407231E+03 -0.89683526300E+03  0.93365736131E+03  0.00000000000E+00 0.  1.
        -13    1    3    3    0    0  0.91883314834E+01 -0.15394271696E+02 -0.55828441270E+02  0.58636370037E+02  0.00000000000E+00 0. -1.
         22    1    1    2    0    0  0.19750959258E+03  0.17248834401E+03 -0.20142242897E+03  0.33065580726E+03  0.00000000000E+00 0. -1.
<mgrwt>
<rscale>  0 0.64674622E+03</rscale>
<asrwt>0</asrwt>
<pdfrwt beam="1">  1        2 0.12989493E-01 0.64674622E+03</pdfrwt>
<pdfrwt beam="2">  1       -2 0.19054120E+00 0.64674622E+03</pdfrwt>
<totfact> 0.75127161E+01</totfact>
</mgrwt>
</event>
<event>
 6    1  0.9562506E-007  0.1681998E+04  0.7818608E-02  0.8771698E-01
         -1   -1    0    0    0  501 -0.00000000000E+00  0.00000000000E+00  0.27732181923E+03  0.27732181923E+03  0.00000000000E+00 0.  1.
          1   -1    0    0  501    0  0.00000000000E+00 -0.00000000000E+00 -0.25503928121E+04  0.25503928121E+04  0.00000000000E+00 0. -1.
         23    2    1    2    0    0 -0.41245183495E+03 -0.69611732811E+03 -0.15099945951E+04  0.17155179583E+04  0.90677104976E+02 0.  0.
         11    1    3    3    0    0 -0.25375873956E+03 -0.37124038761E+03 -0.90897000402E+03  0.10141200084E+04  0.00000000000E+00 0. -1.
        -11    1    3    3    0    0 -0.15869309539E+03 -0.32487694050E+03 -0.60102459107E+03  0.70139794985E+03  0.00000000000E+00 0.  1.
         22    1    1    2    0    0  0.41245183495E+03  0.69611732811E+03 -0.76307639775E+03  0.11121966730E+04  0.00000000000E+00 0.  1.
<mgrwt>
<rscale>  0 0.16819983E+04</rscale>
<asrwt>0</asrwt>
<pdfrwt beam="1">  1        1 0.39236812E+00 0.16819983E+04</pdfrwt>
<pdfrwt beam="2">  1       -1 0.42664895E-01 0.16819983E+04</pdfrwt>
<totfact> 0.64528472E+00</totfact>
</mgrwt>
</event>
<event>
 6    1  0.9562506E-007  0.3773108E+04  0.7818608E-02  0.8051951E-01
          2   -1    0    0  501    0  0.00000000000E+00  0.00000000000E+00  0.17433470385E+04  0.17433470385E+04  0.00000000000E+00 0. -1.
         -2   -1    0    0    0  501 -0.00000000000E+00 -0.00000000000E+00 -0.20415249843E+04  0.20415249843E+04  0.00000000000E+00 0.  1.
         23    2    1    2    0    0 -0.24501283041E+03  0.15611237603E+04  0.88250453137E+03  0.18122722677E+04  0.91530554416E+02 0.  0.
         11    1    3    3    0    0 -0.18348602572E+03  0.10997838978E+04  0.66821395711E+03  0.12998852396E+04  0.00000000000E+00 0. -1.
        -11    1    3    3    0    0 -0.61526804690E+02  0.46133986244E+03  0.21429057426E+03  0.51238702812E+03  0.00000000000E+00 0.  1.
         22    1    1    2    0    0  0.24501283041E+03 -0.15611237603E+04 -0.11806824772E+04  0.19725997551E+04  0.00000000000E+00 0.  1.
<mgrwt>
<rscale>  0 0.37731083E+04</rscale>
<asrwt>0</asrwt>
<pdfrwt beam="1">  1        2 0.26820724E+00 0.37731083E+04</pdfrwt>
<pdfrwt beam="2">  1       -2 0.31408077E+00 0.37731083E+04</pdfrwt>
<totfact> 0.19414258E-01</totfact>
</mgrwt>
</event>
<event>
 6    1  0.9562506E-007  0.1018084E+04  0.7818608E-02  0.9288930E-01
         -3   -1    0    0    0  501 -0.00000000000E+00  0.00000000000E+00  0.15218980004E+03  0.15218980004E+03  0.00000000000E+00 0.  1.
          3   -1    0    0  501    0  0.00000000000E+00 -0.00000000000E+00 -0.17026365569E+04  0.17026365569E+04  0.00000000000E+00 0. -1.
         23    2    1    2    0    0 -0.34682701756E+03  0.18379549210E+03 -0.13605077173E+04  0.14187683312E+04  0.88614704264E+02 0.  0.
         13    1    3    3    0    0 -0.28352667851E+03  0.10762200950E+03 -0.10382244227E+04  0.10816098309E+04  0.00000000000E+00 0.  1.
        -13    1    3    3    0    0 -0.63300339054E+02  0.76173482608E+02 -0.32228329457E+03  0.33715850031E+03  0.00000000000E+00 0. -1.
         22    1    1    2    0    0  0.34682701756E+03 -0.18379549210E+03 -0.18993903953E+03  0.43605802569E+03  0.00000000000E+00 0.  1.
<mgrwt>
<rscale>  0 0.10180843E+04</rscale>
<asrwt>0</asrwt>
<pdfrwt beam="1">  1        3 0.26194407E+00 0.10180843E+04</pdfrwt>
<pdfrwt beam="2">  1       -3 0.23413817E-01 0.10180843E+04</pdfrwt>
<totfact> 0.28721959E+00</totfact>
</mgrwt>
</event>
<event>
 6    1  0.9562506E-007  0.1074564E+04  0.7818608E-02  0.9230344E-01
         -2   -1    0    0    0  501 -0.00000000000E+00  0.00000000000E+00  0.22111304968E+03  0.22111304968E+03  0.00000000000E+00 0.  1.
          2   -1    0    0  501    0  0.00000000000E+00 -0.00000000000E+00 -0.13055403512E+04  0.13055403512E+04  0.00000000000E+00 0. -1.
         23    2    1    2    0    0 -0.77543780740E+02 -0.20935772859E+03  0.14216135507E+03  0.27991227741E+03  0.91089712486E+02 0.  0.
         11    1    3    3    0    0 -0.90840384800E+02 -0.15115604265E+03  0.79756314064E+02  0.19354894568E+03  0.00000000000E+00 0.  1.
        -11    1    3    3    0    0  0.13296604061E+02 -0.58201685941E+02  0.62405041003E+02  0.86363331736E+02  0.00000000000E+00 0. -1.
         22    1    1    2    0    0  0.77543780740E+02  0.20935772859E+03 -0.12265886566E+04  0.12467411235E+04  0.00000000000E+00 0. -1.
<mgrwt>
<rscale>  0 0.10745641E+04</rscale>
<asrwt>0</asrwt>
<pdfrwt beam="1">  1        2 0.20085236E+00 0.10745641E+04</pdfrwt>
<pdfrwt beam="2">  1       -2 0.34017392E-01 0.10745641E+04</pdfrwt>
<totfact> 0.13184293E+02</totfact>
</mgrwt>
</event>
<event>
 6    1  0.9562506E-007  0.4559399E+04  0.7818608E-02  0.7900320E-01
          1   -1    0    0  501    0  0.00000000000E+00  0.00000000000E+00  0.23188668318E+04  0.23188668318E+04  0.00000000000E+00 0. -1.
         -1   -1    0    0    0  501 -0.00000000000E+00 -0.00000000000E+00 -0.22411937797E+04  0.22411937797E+04  0.00000000000E+00 0.  1.
         23    2    1    2    0    0  0.13495613622E+04  0.30145708537E+03  0.18501949681E+04  0.23119444696E+04  0.98354286776E+02 0.  0.
         11    1    3    3    0    0  0.94153383897E+03  0.20881594402E+03  0.13638740248E+04  0.16704018749E+04  0.00000000000E+00 0.  1.
        -11    1    3    3    0    0  0.40802752325E+03  0.92641141342E+02  0.48632094331E+03  0.64154259461E+03  0.00000000000E+00 0. -1.
         22    1    1    2    0    0 -0.13495613622E+04 -0.30145708537E+03 -0.17725219161E+04  0.22481161419E+04  0.00000000000E+00 0.  1.
<mgrwt>
<rscale>  0 0.45593990E+04</rscale>
<asrwt>0</asrwt>
<pdfrwt beam="1">  1        1 0.35674874E+00 0.45593990E+04</pdfrwt>
<pdfrwt beam="2">  1       -1 0.34479905E+00 0.45593990E+04</pdfrwt>
<totfact> 0.22723097E-02</totfact>
</mgrwt>
</event>
<event>
 6    1  0.9562506E-007  0.1773402E+04  0.7818608E-02  0.8720573E-01
          2   -1    0    0  501    0  0.00000000000E+00  0.00000000000E+00  0.22256329257E+04  0.22256329257E+04  0.00000000000E+00 0. -1.
         -2   -1    0    0    0  501 -0.00000000000E+00 -0.00000000000E+00 -0.35326501880E+03  0.35326501880E+03  0.00000000000E+00 0.  1.
         23    2    1    2    0    0  0.45531448514E+03 -0.42018455950E+03  0.18562969856E+04  0.19591200658E+04  0.91905328087E+02 0.  0.
         13    1    3    3    0    0  0.39162403681E+03 -0.34844062981E+03  0.14559855854E+04  0.15474735162E+04  0.00000000000E+00 0.  1.
        -13    1    3    3    0    0  0.63690448325E+02 -0.71743929689E+02  0.40031140020E+03  0.41164654958E+03  0.00000000000E+00 0. -1.
         22    1    1    2    0    0 -0.45531448514E+03  0.42018455950E+03  0.16070921365E+02  0.61977787870E+03  0.00000000000E+00 0.  1.
<mgrwt>
<rscale>  0 0.17734015E+04</rscale>
<asrwt>0</asrwt>
<pdfrwt beam="1">  1        2 0.34240506E+00 0.17734015E+04</pdfrwt>
<pdfrwt beam="2">  1       -2 0.54348465E-01 0.17734015E+04</pdfrwt>
<totfact> 0.15066194E+01</totfact>
</mgrwt>
</event>
<event>
 6    1  0.9562506E-007  0.1184076E+04  0.7818608E-02  0.9126910E-01
         -2   -1    0    0    0  501 -0.00000000000E+00  0.00000000000E+00  0.58070741075E+03  0.58070741075E+03  0.00000000000E+00 0.  1.
          2   -1    0    0  501    0  0.00000000000E+00 -0.00000000000E+00 -0.60359004686E+03  0.60359004686E+03  0.00000000000E+00 0. -1.
         23    2    1    2    0    0  0.30601911154E+03  0.11575621312E+03 -0.50042250590E+03  0.60542655254E+03  0.95244047578E+02 0.  0.
         13    1    3    3    0    0  0.15038507633E+03  0.63481201604E+01 -0.22163513353E+03  0.26791435614E+03  0.00000000000E+00 0. -1.
        -13    1    3    3    0    0  0.15563403521E+03  0.10940809296E+03 -0.27878737238E+03  0.33751219640E+03  0.00000000000E+00 0.  1.
         22    1    1    2    0    0 -0.30601911154E+03 -0.11575621312E+03  0.47753986980E+03  0.57887090508E+03  0.00000000000E+00 0.  1.
<mgrwt>
<rscale>  0 0.11840764E+04</rscale>
<asrwt>0</asrwt>
<pdfrwt beam="1">  1        2 0.92860007E-01 0.11840764E+04</pdfrwt>
<pdfrwt beam="2">  1       -2 0.89339602E-01 0.11840764E+04</pdfrwt>
<totfact> 0.52303149E+01</totfact>
</mgrwt>
</event>
<event>
 6    1  0.9562506E-007  0.3953321E+04  0.7818608E-02  0.8014030E-01
          2   -1    0    0  501    0  0.00000000000E+00  0.00000000000E+00  0.41984899757E+04  0.41984899757E+04  0.00000000000E+00 0. -1.
         -2   -1    0    0    0  501 -0.00000000000E+00 -0.00000000000E+00 -0.93061733246E+03  0.93061733246E+03  0.00000000000E+00 0.  1.
         23    2    1    2    0    0 -0.34784099666E+03  0.18524962921E+04  0.24026129412E+04  0.30551231657E+04  0.92156069731E+02 0.  0.
         13    1    3    3    0    0 -0.48428826036E+02  0.29144810687E+03  0.32512053365E+03  0.43930708120E+03  0.00000000000E+00 0. -1.
        -13    1    3    3    0    0 -0.29941217063E+03  0.15610481852E+04  0.20774924075E+04  0.26158160845E+04  0.00000000000E+00 0.  1.
         22    1    1    2    0    0  0.34784099666E+03 -0.18524962921E+04  0.86525970204E+03  0.20739841425E+04  0.00000000000E+00 0.  1.
<mgrwt>
<rscale>  0 0.39533214E+04</rscale>
<asrwt>0</asrwt>
<pdfrwt beam="1">  1        2 0.64592152E+00 0.39533214E+04</pdfrwt>
<pdfrwt beam="2">  1       -2 0.14317190E+00 0.39533214E+04</pdfrwt>
<totfact> 0.62270849E-02</totfact>
</mgrwt>
</event>
<event>
 6    1  0.9562506E-007  0.2810073E+04  0.7818608E-02  0.8300148E-01
         -2   -1    0    0    0  501 -0.00000000000E+00  0.00000000000E+00  0.18631641502E+04  0.18631641502E+04  0.00000000000E+00 0.  1.
          2   -1    0    0  501    0  0.00000000000E+00 -0.00000000000E+00 -0.10595563506E+04  0.10595563506E+04  0.00000000000E+00 0. -1.
         23    2    1    2    0    0 -0.81985292910E+03 -0.45769772810E+03  0.14873299203E+04  0.17612034007E+04  0.89672130547E+02 0.  0.
         11    1    3    3    0    0 -0.46580152691E+03 -0.29460196848E+03  0.81032428612E+03  0.97999328109E+03  0.00000000000E+00 0.  1.
        -11    1    3    3    0    0 -0.35405140219E+03 -0.16309575962E+03  0.67700563421E+03  0.78121011959E+03  0.00000000000E+00 0. -1.
         22    1    1    2    0    0  0.81985292910E+03  0.45769772810E+03 -0.68372212067E+03  0.11615171002E+04  0.00000000000E+00 0. -1.
<mgrwt>
<rscale>  0 0.28100729E+04</rscale>
<asrwt>0</asrwt>
<pdfrwt beam="1">  1        2 0.16300867E+00 0.28100729E+04</pdfrwt>
<pdfrwt beam="2">  1       -2 0.28664064E+00 0.28100729E+04</pdfrwt>
<totfact> 0.76997009E-01</totfact>
</mgrwt>
</event>
<event>
 6    1  0.9562506E-007  0.7185467E+03  0.7818608E-02  0.9686030E-01
          2   -1    0    0  501    0  0.00000000000E+00  0.00000000000E+00  0.10024232644E+04  0.10024232644E+04  0.00000000000E+00 0. -1.
         -2   -1    0    0    0  501 -0.00000000000E+00 -0.00000000000E+00 -0.12876529059E+03  0.12876529059E+03  0.00000000000E+00 0.  1.
         23    2    1    2    0    0  0.61548408738E+02  0.20181581020E+03 -0.85049990007E+01  0.22414426805E+03  0.75169741422E+02 0.  0.
         11    1    3    3    0    0  0.25555843280E+02  0.25361088578E+02 -0.24188116595E+02  0.43374542350E+02  0.00000000000E+00 0. -1.
        -11    1    3    3    0    0  0.35992565458E+02  0.17645472163E+03  0.15683117595E+02  0.18076972570E+03  0.00000000000E+00 0.  1.
         22    1    1    2    0    0 -0.61548408738E+02 -0.20181581020E+03  0.88216297279E+03  0.90704428692E+03  0.00000000000E+00 0. -1.
<mgrwt>
<rscale>  0 0.71854665E+03</rscale>
<asrwt>0</asrwt>
<pdfrwt beam="1">  1        2 0.15421896E+00 0.71854665E+03</pdfrwt>
<pdfrwt beam="2">  1       -2 0.19810045E-01 0.71854665E+03</pdfrwt>
<totfact> 0.54827962E+02</totfact>
</mgrwt>
</event>
<event>
 6    1  0.9562506E-007  0.3380320E+04  0.7818608E-02  0.8142753E-01
          2   -1    0    0  501    0  0.00000000000E+00  0.00000000000E+00  0.20374608596E+04  0.20374608596E+04  0.00000000000E+00 0. -1.
         -2   -1    0    0    0  501 -0.00000000000E+00 -0.00000000000E+00 -0.14020593835E+04  0.14020593835E+04  0.00000000000E+00 0.  1.
         23    2    1    2    0    0  0.38087169621E+03  0.13197348124E+04  0.13177636219E+04  0.19057727666E+04  0.93304076093E+02 0.  0.
         13    1    3    3    0    0  0.18647788300E+03  0.62354554678E+03  0.56060533164E+03  0.85898858411E+03  0.00000000000E+00 0. -1.
        -13    1    3    3    0    0  0.19439381321E+03  0.69618926559E+03  0.75715829028E+03  0.10467841825E+04  0.00000000000E+00 0.  1.
         22    1    1    2    0    0 -0.38087169621E+03 -0.13197348124E+04 -0.68236214583E+03  0.15337474766E+04  0.00000000000E+00 0.  1.
<mgrwt>
<rscale>  0 0.33803202E+04</rscale>
<asrwt>0</asrwt>
<pdfrwt beam="1">  1        2 0.31345552E+00 0.33803202E+04</pdfrwt>
<pdfrwt beam="2">  1       -2 0.21570144E+00 0.33803202E+04</pdfrwt>
<totfact> 0.55620101E-01</totfact>
</mgrwt>
</event>
<event>
 6    1  0.9562506E-007  0.1855974E+04  0.7818608E-02  0.8677087E-01
          2   -1    0    0  501    0  0.00000000000E+00  0.00000000000E+00  0.26190115297E+04  0.26190115297E+04  0.00000000000E+00 0. -1.
         -2   -1    0    0    0  501 -0.00000000000E+00 -0.00000000000E+00 -0.32881097731E+03  0.32881097731E+03  0.00000000000E+00 0.  1.
         23    2    1    2    0    0  0.31150836485E+03  0.86844084919E+03  0.10265482096E+04  0.13831998006E+04  0.90628317171E+02 0.  0.
         13    1    3    3    0    0  0.14044005250E+03  0.31368460890E+03  0.43483204717E+03  0.55425657547E+03  0.00000000000E+00 0. -1.
        -13    1    3    3    0    0  0.17106831235E+03  0.55475624029E+03  0.59171616246E+03  0.82894322517E+03  0.00000000000E+00 0.  1.
         22    1    1    2    0    0 -0.31150836485E+03 -0.86844084919E+03  0.12636523428E+04  0.15646227064E+04  0.00000000000E+00 0.  1.
<mgrwt>
<rscale>  0 0.18559739E+04</rscale>
<asrwt>0</asrwt>
<pdfrwt beam="1">  1        2 0.40292484E+00 0.18559739E+04</pdfrwt>
<pdfrwt beam="2">  1       -2 0.50586306E-01 0.18559739E+04</pdfrwt>
<totfact> 0.10314429E+01</totfact>
</mgrwt>
</event>
<event>
 6    1  0.9562506E-007  0.1942354E+04  0.7818608E-02  0.8634057E-01
          2   -1    0    0  501    0  0.00000000000E+00  0.00000000000E+00  0.28614161952E+04  0.28614161952E+04  0.00000000000E+00 0. -1.
         -2   -1    0    0    0  501 -0.00000000000E+00 -0.00000000000E+00 -0.32962164011E+03  0.32962164011E+03  0.00000000000E+00 0.  1.
         23    2    1    2    0    0 -0.12221149651E+03 -0.51533911700E+03 -0.65068575263E+02  0.54071555808E+03  0.87346092485E+02 0.  0.
         13    1    3    3    0    0 -0.55500334107E+02 -0.14295101357E+03  0.14802840166E+02  0.15405973986E+03  0.00000000000E+00 0.  1.
        -13    1    3    3    0    0 -0.66711162405E+02 -0.37238810342E+03 -0.79871415429E+02  0.38665581822E+03  0.00000000000E+00 0. -1.
         22    1    1    2    0    0  0.12221149651E+03  0.51533911700E+03  0.25968631303E+04  0.26503222772E+04  0.00000000000E+00 0. -1.
<mgrwt>
<rscale>  0 0.19423539E+04</rscale>
<asrwt>0</asrwt>
<pdfrwt beam="1">  1        2 0.44021786E+00 0.19423539E+04</pdfrwt>
<pdfrwt beam="2">  1       -2 0.50711024E-01 0.19423539E+04</pdfrwt>
<totfact> 0.72958097E+00</totfact>
</mgrwt>
</event>
<event>
 6    1  0.9562506E-007  0.2911622E+04  0.7818608E-02  0.8269428E-01
         -1   -1    0    0    0  501 -0.00000000000E+00  0.00000000000E+00  0.15648891675E+04  0.15648891675E+04  0.00000000000E+00 0.  1.
          1   -1    0    0  501    0  0.00000000000E+00 -0.00000000000E+00 -0.13543363343E+04  0.13543363343E+04  0.00000000000E+00 0. -1.
         23    2    1    2    0    0 -0.11775595204E+04  0.83938486515E+03  0.26328729456E+03  0.14721614744E+04  0.82011166105E+02 0.  0.
         13    1    3    3    0    0 -0.11461338899E+04  0.80717838708E+03  0.26688244858E+03  0.14270200011E+04  0.00000000000E+00 0.  1.
        -13    1    3    3    0    0 -0.31425630486E+02  0.32206478075E+02 -0.35951540216E+01  0.45141473325E+02  0.00000000000E+00 0. -1.
         22    1    1    2    0    0  0.11775595204E+04 -0.83938486515E+03 -0.52734461379E+02  0.14470640274E+04  0.00000000000E+00 0. -1.
<mgrwt>
<rscale>  0 0.29116224E+04</rscale>
<asrwt>0</asrwt>
<pdfrwt beam="1">  1        1 0.20835944E+00 0.29116224E+04</pdfrwt>
<pdfrwt beam="2">  1       -1 0.24075218E+00 0.29116224E+04</pdfrwt>
<totfact> 0.56875329E-01</totfact>
</mgrwt>
</event>
<event>
 6    1  0.9562506E-007  0.3576496E+04  0.7818608E-02  0.8095897E-01
          1   -1    0    0  501    0  0.00000000000E+00  0.00000000000E+00  0.12401997985E+04  0.12401997985E+04  0.00000000000E+00 0. -1.
         -1   -1    0    0    0  501 -0.00000000000E+00 -0.00000000000E+00 -0.25784807540E+04  0.25784807540E+04  0.00000000000E+00 0.  1.
         23    2    1    2    0    0  0.12341681552E+04 -0.10064773306E+04 -0.15352942983E+04  0.22140055357E+04  0.92327013887E+02 0.  0.
         11    1    3    3    0    0  0.54599956403E+03 -0.43696702775E+03 -0.73743941129E+03  0.10163033959E+04  0.00000000000E+00 0. -1.
        -11    1    3    3    0    0  0.68816859117E+03 -0.56951030289E+03 -0.79785488698E+03  0.11977021398E+04  0.00000000000E+00 0.  1.
         22    1    1    2    0    0 -0.12341681552E+04  0.10064773306E+04  0.19701334276E+03  0.16046750168E+04  0.00000000000E+00 0. -1.
<mgrwt>
<rscale>  0 0.35764962E+04</rscale>
<asrwt>0</asrwt>
<pdfrwt beam="1">  1        1 0.19079997E+00 0.35764962E+04</pdfrwt>
<pdfrwt beam="2">  1       -1 0.39668934E+00 0.35764962E+04</pdfrwt>
<totfact> 0.60972088E-02</totfact>
</mgrwt>
</event>
<event>
 6    1  0.9562506E-007  0.3003920E+04  0.7818608E-02  0.8242612E-01
         -2   -1    0    0    0  501 -0.00000000000E+00  0.00000000000E+00  0.63120296894E+03  0.63120296894E+03  0.00000000000E+00 0.  1.
          2   -1    0    0  501    0  0.00000000000E+00 -0.00000000000E+00 -0.35739439912E+04  0.35739439912E+04  0.00000000000E+00 0. -1.
         23    2    1    2    0    0  0.10971528626E+04 -0.38961119466E+03 -0.14759287090E+03  0.11772112813E+04  0.92203353729E+02 0.  0.
         11    1    3    3    0    0  0.45072415102E+03 -0.20439615388E+03 -0.80900181398E+02  0.50147271848E+03  0.00000000000E+00 0. -1.
        -11    1    3    3    0    0  0.64642871158E+03 -0.18521504078E+03 -0.66692689507E+02  0.67573856285E+03  0.00000000000E+00 0.  1.
         22    1    1    2    0    0 -0.10971528626E+04  0.38961119466E+03 -0.27951481514E+04  0.30279356788E+04  0.00000000000E+00 0. -1.
<mgrwt>
<rscale>  0 0.30039201E+04</rscale>
<asrwt>0</asrwt>
<pdfrwt beam="1">  1        2 0.54983754E+00 0.30039201E+04</pdfrwt>
<pdfrwt beam="2">  1       -2 0.97108149E-01 0.30039201E+04</pdfrwt>
<totfact> 0.54554475E-01</totfact>
</mgrwt>
</event>
<event>
 6    1  0.9562506E-007  0.2282068E+04  0.7818608E-02  0.8485025E-01
          2   -1    0    0  501    0  0.00000000000E+00  0.00000000000E+00  0.11623734775E+04  0.11623734775E+04  0.00000000000E+00 0. -1.
         -2   -1    0    0    0  501 -0.00000000000E+00 -0.00000000000E+00 -0.11200861226E+04  0.11200861226E+04  0.00000000000E+00 0.  1.
         23    2    1    2    0    0 -0.87827263933E+03 -0.43056358547E+03  0.60535291429E+03  0.11538362553E+04  0.90211546049E+02 0.  0.
         11    1    3    3    0    0 -0.62082958911E+03 -0.29987251987E+03  0.37750070966E+03  0.78604051593E+03  0.00000000000E+00 0. -1.
        -11    1    3    3    0    0 -0.25744305022E+03 -0.13069106560E+03  0.22785220462E+03  0.36779573935E+03  0.00000000000E+00 0.  1.
         22    1    1    2    0    0  0.87827263933E+03  0.43056358547E+03 -0.56306555940E+03  0.11286233448E+04  0.00000000000E+00 0.  1.
<mgrwt>
<rscale>  0 0.22820678E+04</rscale>
<asrwt>0</asrwt>
<pdfrwt beam="1">  1        2 0.17882669E+00 0.22820678E+04</pdfrwt>
<pdfrwt beam="2">  1       -2 0.17232094E+00 0.22820678E+04</pdfrwt>
<totfact> 0.37178249E+00</totfact>
</mgrwt>
</event>
<event>
 6    1  0.9562506E-007  0.2401642E+04  0.7818608E-02  0.8438889E-01
          1   -1    0    0  501    0  0.00000000000E+00  0.00000000000E+00  0.14289928465E+04  0.14289928465E+04  0.00000000000E+00 0. -1.
         -1   -1    0    0    0  501 -0.00000000000E+00 -0.00000000000E+00 -0.10090821824E+04  0.10090821824E+04  0.00000000000E+00 0.  1.
         23    2    1    2    0    0  0.90319283702E+03 -0.31195076778E+03  0.94556442414E+03  0.13474869041E+04  0.92511049242E+02 0.  0.
         13    1    3    3    0    0  0.63649657164E+03 -0.19723755036E+03  0.70897818662E+03  0.97297513128E+03  0.00000000000E+00 0. -1.
        -13    1    3    3    0    0  0.26669626538E+03 -0.11471321743E+03  0.23658623752E+03  0.37451177285E+03  0.00000000000E+00 0.  1.
         22    1    1    2    0    0 -0.90319283702E+03  0.31195076778E+03 -0.52565376007E+03  0.10905881247E+04  0.00000000000E+00 0.  1.
<mgrwt>
<rscale>  0 0.24016421E+04</rscale>
<asrwt>0</asrwt>
<pdfrwt beam="1">  1        1 0.21984505E+00 0.24016421E+04</pdfrwt>
<pdfrwt beam="2">  1       -1 0.15524341E+00 0.24016421E+04</pdfrwt>
<totfact> 0.20873636E+00</totfact>
</mgrwt>
</event>
<event>
 6    1  0.9562506E-007  0.1613853E+04  0.7818608E-02  0.8812083E-01
          2   -1    0    0  501    0  0.00000000000E+00  0.00000000000E+00  0.17595712382E+04  0.17595712382E+04  0.00000000000E+00 0. -1.
         -2   -1    0    0    0  501 -0.00000000000E+00 -0.00000000000E+00 -0.37005058866E+03  0.37005058866E+03  0.00000000000E+00 0.  1.
         23    2    1    2    0    0 -0.54360705752E+03  0.47639385097E+03  0.11625815432E+04  0.13720196277E+04  0.91554792017E+02 0.  0.
         13    1    3    3    0    0 -0.31221227491E+03  0.33162881353E+03  0.74122379248E+03  0.86998096825E+03  0.00000000000E+00 0.  1.
        -13    1    3    3    0    0 -0.23139478261E+03  0.14476503744E+03  0.42135775073E+03  0.50203865945E+03  0.00000000000E+00 0. -1.
         22    1    1    2    0    0  0.54360705752E+03 -0.47639385097E+03  0.22693910636E+03  0.75760219919E+03  0.00000000000E+00 0.  1.
<mgrwt>
<rscale>  0 0.16138530E+04</rscale>
<asrwt>0</asrwt>
<pdfrwt beam="1">  1        2 0.27070326E+00 0.16138530E+04</pdfrwt>
<pdfrwt beam="2">  1       -2 0.56930861E-01 0.16138530E+04</pdfrwt>
<totfact> 0.25177261E+01</totfact>
</mgrwt>
</event>
<event>
 6    1  0.9562506E-007  0.2848947E+04  0.7818608E-02  0.8288231E-01
         -1   -1    0    0    0  501 -0.00000000000E+00  0.00000000000E+00  0.17632471486E+04  0.17632471486E+04  0.00000000000E+00 0.  1.
          1   -1    0    0  501    0  0.00000000000E+00 -0.00000000000E+00 -0.11507884714E+04  0.11507884714E+04  0.00000000000E+00 0. -1.
         23    2    1    2    0    0 -0.46209175536E+02  0.63686394652E+03 -0.99418594695E+03  0.11851521877E+04  0.91918641512E+02 0.  0.
         13    1    3    3    0    0 -0.36155646304E+02  0.11429825333E+03 -0.22930707446E+03  0.25875288573E+03  0.00000000000E+00 0. -1.
        -13    1    3    3    0    0 -0.10053529232E+02  0.52256569319E+03 -0.76487887249E+03  0.92639930199E+03  0.00000000000E+00 0.  1.
         22    1    1    2    0    0  0.46209175536E+02 -0.63686394652E+03  0.16066446241E+04  0.17288834323E+04  0.00000000000E+00 0.  1.
<mgrwt>
<rscale>  0 0.28489468E+04</rscale>
<asrwt>0</asrwt>
<pdfrwt beam="1">  1        1 0.17704438E+00 0.28489468E+04</pdfrwt>
<pdfrwt beam="2">  1       -1 0.27126879E+00 0.28489468E+04</pdfrwt>
<totfact> 0.50771077E-01</totfact>
</mgrwt>
</event>
<event>
 6    1  0.9562506E-007  0.3389391E+04  0.7818608E-02  0.8140515E-01
          1   -1    0    0  501    0  0.00000000000E+00  0.00000000000E+00  0.18097734626E+04  0.18097734626E+04  0.00000000000E+00 0. -1.
         -1   -1    0    0    0  501 -0.00000000000E+00 -0.00000000000E+00 -0.15869350653E+04  0.15869350653E+04  0.00000000000E+00 0.  1.
         23    2    1    2    0    0 -0.19573074909E+03  0.12260688590E+04 -0.10424999510E+04  0.16239602352E+04  0.94261999384E+02 0.  0.
         13    1    3    3    0    0 -0.17549768880E+03  0.93592401633E+03 -0.83741915652E+03  0.12680788804E+04  0.00000000000E+00 0.  1.
        -13    1    3    3    0    0 -0.20233060297E+02  0.29014484270E+03 -0.20508079452E+03  0.35588135488E+03  0.00000000000E+00 0. -1.
         22    1    1    2    0    0  0.19573074909E+03 -0.12260688590E+04  0.12653383483E+04  0.17727482926E+04  0.00000000000E+00 0. -1.
<mgrwt>
<rscale>  0 0.33893911E+04</rscale>
<asrwt>0</asrwt>
<pdfrwt beam="1">  1        1 0.27842669E+00 0.33893911E+04</pdfrwt>
<pdfrwt beam="2">  1       -1 0.24414386E+00 0.33893911E+04</pdfrwt>
<totfact> 0.25159825E-01</totfact>
</mgrwt>
</event>
<event>
 6    1  0.9562506E-007  0.2186491E+04  0.7818608E-02  0.8524072E-01
         -2   -1    0    0    0  501 -0.00000000000E+00  0.00000000000E+00  0.31583495574E+03  0.31583495574E+03  0.00000000000E+00 0.  1.
          2   -1    0    0  501    0  0.00000000000E+00 -0.00000000000E+00 -0.37842107557E+04  0.37842107557E+04  0.00000000000E+00 0. -1.
         23    2    1    2    0    0  0.27760687476E+03 -0.69347613514E+03 -0.32291472819E+04  0.33156956552E+04  0.92036853685E+02 0.  0.
         13    1    3    3    0    0  0.22890032492E+03 -0.61728933724E+03 -0.29364461590E+04  0.30093450333E+04  0.00000000000E+00 0.  1.
        -13    1    3    3    0    0  0.48706549845E+02 -0.76186797893E+02 -0.29270112290E+03  0.30635062187E+03  0.00000000000E+00 0. -1.
         22    1    1    2    0    0 -0.27760687476E+03  0.69347613514E+03 -0.23922851804E+03  0.78435005626E+03  0.00000000000E+00 0.  1.
<mgrwt>
<rscale>  0 0.21864913E+04</rscale>
<asrwt>0</asrwt>
<pdfrwt beam="1">  1        2 0.58218627E+00 0.21864913E+04</pdfrwt>
<pdfrwt beam="2">  1       -2 0.48589993E-01 0.21864913E+04</pdfrwt>
<totfact> 0.18635883E+00</totfact>
</mgrwt>
</event>
<event>
 6    1  0.9562506E-007  0.2705958E+04  0.7818608E-02  0.8333074E-01
          1   -1    0    0  501    0  0.00000000000E+00  0.00000000000E+00  0.12039821321E+04  0.12039821321E+04  0.00000000000E+00 0. -1.
         -1   -1    0    0    0  501 -0.00000000000E+00 -0.00000000000E+00 -0.15204152128E+04  0.15204152128E+04  0.00000000000E+00 0.  1.
         23    2    1    2    0    0 -0.35091882341E+03  0.11443016602E+04  0.47350838304E+03  0.12903200017E+04  0.90250805603E+02 0.  0.
         13    1    3    3    0    0 -0.41723117253E+02  0.16033612439E+03  0.33738859636E+02  0.16907631989E+03  0.00000000000E+00 0.  1.
        -13    1    3    3    0    0 -0.30919570615E+03  0.98396553581E+03  0.43976952340E+03  0.11212436818E+04  0.00000000000E+00 0. -1.
         22    1    1    2    0    0  0.35091882341E+03 -0.11443016602E+04 -0.78994146376E+03  0.14340773432E+04  0.00000000000E+00 0.  1.
<mgrwt>
<rscale>  0 0.27059584E+04</rscale>
<asrwt>0</asrwt>
<pdfrwt beam="1">  1        1 0.18522802E+00 0.27059584E+04</pdfrwt>
<pdfrwt beam="2">  1       -1 0.23391003E+00 0.27059584E+04</pdfrwt>
<totfact> 0.82372860E-01</totfact>
</mgrwt>
</event>
<event>
 6    1  0.9562506E-007  0.2475830E+04  0.7818608E-02  0.8411647E-01
          3   -1    0    0  501    0  0.00000000000E+00  0.00000000000E+00  0.51377104010E+03  0.51377104010E+03  0.00000000000E+00 0. -1.
         -3   -1    0    0    0  501 -0.00000000000E+00 -0.00000000000E+00 -0.29827162626E+04  0.29827162626E+04  0.00000000000E+00 0.  1.
         23    2    1    2    0    0 -0.89822816374E+02 -0.48701710596E+03 -0.28358258028E+04  0.28801633943E+04  0.90440003309E+02 0.  0.
         11    1    3    3    0    0 -0.72088376562E+02 -0.29837926884E+03 -0.15117438357E+04  0.15425940318E+04  0.00000000000E+00 0. -1.
        -11    1    3    3    0    0 -0.17734439811E+02 -0.18863783712E+03 -0.13240819671E+04  0.13375693626E+04  0.00000000000E+00 0.  1.
         22    1    1    2    0    0  0.89822816374E+02  0.48701710596E+03  0.36688058032E+03  0.61632390839E+03  0.00000000000E+00 0. -1.
<mgrwt>
<rscale>  0 0.24758297E+04</rscale>
<asrwt>0</asrwt>
<pdfrwt beam="1">  1        3 0.79041700E-01 0.24758297E+04</pdfrwt>
<pdfrwt beam="2">  1       -3 0.45887942E+00 0.24758297E+04</pdfrwt>
<totfact> 0.17551728E-02</totfact>
</mgrwt>
</event>
<event>
 6    1  0.9562506E-007  0.1197874E+04  0.7818608E-02  0.9114720E-01
         -2   -1    0    0    0  501 -0.00000000000E+00  0.00000000000E+00  0.83479804237E+03  0.83479804237E+03  0.00000000000E+00 0.  1.
          2   -1    0    0  501    0  0.00000000000E+00 -0.00000000000E+00 -0.42971505592E+03  0.42971505592E+03  0.00000000000E+00 0. -1.
         23    2    1    2    0    0 -0.16770848450E+03 -0.35087625909E+03 -0.27230161661E+03  0.48343039753E+03  0.91194812824E+02 0.  0.
         11    1    3    3    0    0 -0.12064692599E+03 -0.25663466223E+03 -0.14596660794E+03  0.31894087422E+03  0.00000000000E+00 0.  1.
        -11    1    3    3    0    0 -0.47061558508E+02 -0.94241596855E+02 -0.12633500866E+03  0.16448952332E+03  0.00000000000E+00 0. -1.
         22    1    1    2    0    0  0.16770848450E+03  0.35087625909E+03  0.67738460305E+03  0.78108270076E+03  0.00000000000E+00 0.  1.
<mgrwt>
<rscale>  0 0.11978736E+04</rscale>
<asrwt>0</asrwt>
<pdfrwt beam="1">  1        2 0.66110009E-01 0.11978736E+04</pdfrwt>
<pdfrwt beam="2">  1       -2 0.12843047E+00 0.11978736E+04</pdfrwt>
<totfact> 0.32383374E+01</totfact>
</mgrwt>
</event>
<event>
 6    1  0.1177976E-006  0.2397020E+04  0.7818608E-02  0.8440620E-01
         -1   -1    0    0    0  501 -0.00000000000E+00  0.00000000000E+00  0.14454250904E+04  0.14454250904E+04  0.00000000000E+00 0.  1.
          1   -1    0    0  501    0  0.00000000000E+00 -0.00000000000E+00 -0.99377461617E+03  0.99377461617E+03  0.00000000000E+00 0. -1.
         23    2    1    2    0    0  0.71710122687E+03  0.58666690708E+03  0.99699643008E+03  0.13641115981E+04  0.91576968470E+02 0.  0.
         11    1    3    3    0    0  0.46513527143E+03  0.35654517176E+03  0.68779481532E+03  0.90362436234E+03  0.00000000000E+00 0.  1.
        -11    1    3    3    0    0  0.25196595544E+03  0.23012173531E+03  0.30920161476E+03  0.46048723580E+03  0.00000000000E+00 0. -1.
         22    1    1    2    0    0 -0.71710122687E+03 -0.58666690708E+03 -0.54534595581E+03  0.10750881085E+04  0.00000000000E+00 0. -1.
<mgrwt>
<rscale>  0 0.23970205E+04</rscale>
<asrwt>0</asrwt>
<pdfrwt beam="1">  1        1 0.15288840E+00 0.23970205E+04</pdfrwt>
<pdfrwt beam="2">  1       -1 0.22237309E+00 0.23970205E+04</pdfrwt>
<totfact> 0.14551598E+00</totfact>
</mgrwt>
</event>
<event>
 6    1  0.9562506E-007  0.2700701E+04  0.7818608E-02  0.8334778E-01
          2   -1    0    0  501    0  0.00000000000E+00  0.00000000000E+00  0.50363232701E+03  0.50363232701E+03  0.00000000000E+00 0. -1.
         -2   -1    0    0    0  501 -0.00000000000E+00 -0.00000000000E+00 -0.36205899505E+04  0.36205899505E+04  0.00000000000E+00 0.  1.
         23    2    1    2    0    0 -0.54745642347E+03  0.57530850491E+03 -0.32251302615E+04  0.33227300872E+04  0.91551175429E+02 0.  0.
         11    1    3    3    0    0 -0.28144384180E+03  0.26070260806E+03 -0.17170724400E+04  0.17594073576E+04  0.00000000000E+00 0. -1.
        -11    1    3    3    0    0 -0.26601258167E+03  0.31460589684E+03 -0.15080578215E+04  0.15633227296E+04  0.00000000000E+00 0.  1.
         22    1    1    2    0    0  0.54745642347E+03 -0.57530850491E+03  0.10817263800E+03  0.80149219025E+03  0.00000000000E+00 0. -1.
<mgrwt>
<rscale>  0 0.27007008E+04</rscale>
<asrwt>0</asrwt>
<pdfrwt beam="1">  1        2 0.77481896E-01 0.27007008E+04</pdfrwt>
<pdfrwt beam="2">  1       -2 0.55701384E+00 0.27007008E+04</pdfrwt>
<totfact> 0.41689882E-02</totfact>
</mgrwt>
</event>
<event>
 6    1  0.9562506E-007  0.1821510E+04  0.7818608E-02  0.8694943E-01
          2   -1    0    0  501    0  0.00000000000E+00  0.00000000000E+00  0.99249348026E+03  0.99249348026E+03  0.00000000000E+00 0. -1.
         -2   -1    0    0    0  501 -0.00000000000E+00 -0.00000000000E+00 -0.83574844614E+03  0.83574844614E+03  0.00000000000E+00 0.  1.
         23    2    1    2    0    0  0.67785795971E+03  0.51020957862E+03  0.40481364167E+03  0.94430569469E+03  0.89632208988E+02 0.  0.
         13    1    3    3    0    0  0.50457013397E+03  0.34159942901E+03  0.31874379549E+03  0.68766183343E+03  0.00000000000E+00 0. -1.
        -13    1    3    3    0    0  0.17328782574E+03  0.16861014961E+03  0.86069846181E+02  0.25664386126E+03  0.00000000000E+00 0.  1.
         22    1    1    2    0    0 -0.67785795971E+03 -0.51020957862E+03 -0.24806860755E+03  0.88393623170E+03  0.00000000000E+00 0.  1.
<mgrwt>
<rscale>  0 0.18215102E+04</rscale>
<asrwt>0</asrwt>
<pdfrwt beam="1">  1        2 0.15269130E+00 0.18215102E+04</pdfrwt>
<pdfrwt beam="2">  1       -2 0.12857668E+00 0.18215102E+04</pdfrwt>
<totfact> 0.10720074E+01</totfact>
</mgrwt>
</event>
<event>
 6    1  0.9562506E-007  0.2219420E+04  0.7818608E-02  0.8510388E-01
         -1   -1    0    0    0  501 -0.00000000000E+00  0.00000000000E+00  0.18165793323E+04  0.18165793323E+04  0.00000000000E+00 0.  1.
          1   -1    0    0  501    0  0.00000000000E+00 -0.00000000000E+00 -0.67789863028E+03  0.67789863028E+03  0.00000000000E+00 0. -1.
         23    2    1    2    0    0 -0.44203966775E+03 -0.11542044428E+03  0.17045352368E+04  0.17672143919E+04  0.94262329755E+02 0.  0.
         13    1    3    3    0    0 -0.25333035263E+03 -0.47757861755E+02  0.79127842316E+03  0.83221308803E+03  0.00000000000E+00 0. -1.
        -13    1    3    3    0    0 -0.18870931512E+03 -0.67662582528E+02  0.91325681360E+03  0.93500130389E+03  0.00000000000E+00 0.  1.
         22    1    1    2    0    0  0.44203966775E+03  0.11542044428E+03 -0.56585453470E+03  0.72726357070E+03  0.00000000000E+00 0. -1.
<mgrwt>
<rscale>  0 0.22194203E+04</rscale>
<asrwt>0</asrwt>
<pdfrwt beam="1">  1        1 0.10429210E+00 0.22194203E+04</pdfrwt>
<pdfrwt beam="2">  1       -1 0.27947374E+00 0.22194203E+04</pdfrwt>
<totfact> 0.11678886E+00</totfact>
</mgrwt>
</event>
<event>
 6    1  0.9562506E-007  0.1965525E+04  0.7818608E-02  0.8622911E-01
          2   -1    0    0  501    0  0.00000000000E+00  0.00000000000E+00  0.11952679655E+04  0.11952679655E+04  0.00000000000E+00 0. -1.
         -2   -1    0    0    0  501 -0.00000000000E+00 -0.00000000000E+00 -0.80803817652E+03  0.80803817652E+03  0.00000000000E+00 0.  1.
         23    2    1    2    0    0  0.58529198316E+03  0.13319692296E+03  0.98440668444E+03  0.11565899143E+04  0.91299418019E+02 0.  0.
         11    1    3    3    0    0  0.33199649458E+03  0.11428300049E+03  0.61746679763E+03  0.71031508698E+03  0.00000000000E+00 0. -1.
        -11    1    3    3    0    0  0.25329548858E+03  0.18913922467E+02  0.36693988681E+03  0.44627482735E+03  0.00000000000E+00 0.  1.
         22    1    1    2    0    0 -0.58529198316E+03 -0.13319692296E+03 -0.59717689543E+03  0.84671622771E+03  0.00000000000E+00 0.  1.
<mgrwt>
<rscale>  0 0.19655250E+04</rscale>
<asrwt>0</asrwt>
<pdfrwt beam="1">  1        2 0.18388738E+00 0.19655250E+04</pdfrwt>
<pdfrwt beam="2">  1       -2 0.12431357E+00 0.19655250E+04</pdfrwt>
<totfact> 0.86362748E+00</totfact>
</mgrwt>
</event>
<event>
 6    1  0.9562506E-007  0.2819260E+04  0.7818608E-02  0.8297314E-01
         -1   -1    0    0    0  501 -0.00000000000E+00  0.00000000000E+00  0.10371063840E+04  0.10371063840E+04  0.00000000000E+00 0.  1.
          1   -1    0    0  501    0  0.00000000000E+00 -0.00000000000E+00 -0.19159627638E+04  0.19159627638E+04  0.00000000000E+00 0. -1.
         23    2    1    2    0    0 -0.10675076700E+04  0.49390832806E+03  0.37086187168E+03  0.12368775005E+04  0.93858198728E+02 0.  0.
         13    1    3    3    0    0 -0.17482729544E+03  0.43800199822E+02  0.56075504213E+02  0.18875249113E+03  0.00000000000E+00 0.  1.
        -13    1    3    3    0    0 -0.89268037455E+03  0.45010812823E+03  0.31478636747E+03  0.10481250094E+04  0.00000000000E+00 0. -1.
         22    1    1    2    0    0  0.10675076700E+04 -0.49390832806E+03 -0.12497182515E+04  0.17161916472E+04  0.00000000000E+00 0. -1.
<mgrwt>
<rscale>  0 0.28192603E+04</rscale>
<asrwt>0</asrwt>
<pdfrwt beam="1">  1        1 0.29476350E+00 0.28192603E+04</pdfrwt>
<pdfrwt beam="2">  1       -1 0.15955483E+00 0.28192603E+04</pdfrwt>
<totfact> 0.86501214E-01</totfact>
</mgrwt>
</event>
<event>
 6    1  0.9562506E-007  0.2256624E+04  0.7818608E-02  0.8495223E-01
          1   -1    0    0  501    0  0.00000000000E+00  0.00000000000E+00  0.12979543722E+04  0.12979543722E+04  0.00000000000E+00 0. -1.
         -1   -1    0    0    0  501 -0.00000000000E+00 -0.00000000000E+00 -0.98084150880E+03  0.98084150880E+03  0.00000000000E+00 0.  1.
         23    2    1    2    0    0 -0.27775515744E+03  0.79046168486E+03 -0.60234852177E+03  0.10348558336E+04  0.78263988930E+02 0.  0.
         13    1    3    3    0    0 -0.10068911097E+03  0.20327729577E+03 -0.18900725601E+03  0.29526885862E+03  0.00000000000E+00 0. -1.
        -13    1    3    3    0    0 -0.17706604647E+03  0.58718438908E+03 -0.41334126576E+03  0.73958697499E+03  0.00000000000E+00 0.  1.
         22    1    1    2    0    0  0.27775515744E+03 -0.79046168486E+03  0.91946138516E+03  0.12439400474E+04  0.00000000000E+00 0. -1.
<mgrwt>
<rscale>  0 0.22566236E+04</rscale>
<asrwt>0</asrwt>
<pdfrwt beam="1">  1        1 0.19968529E+00 0.22566236E+04</pdfrwt>
<pdfrwt beam="2">  1       -1 0.15089869E+00 0.22566236E+04</pdfrwt>
<totfact> 0.28272207E+00</totfact>
</mgrwt>
</event>
<event>
 6    1  0.9562506E-007  0.3886578E+04  0.7818608E-02  0.8027826E-01
         -2   -1    0    0    0  501 -0.00000000000E+00  0.00000000000E+00  0.13311304365E+04  0.13311304365E+04  0.00000000000E+00 0.  1.
          2   -1    0    0  501    0  0.00000000000E+00 -0.00000000000E+00 -0.28369669082E+04  0.28369669082E+04  0.00000000000E+00 0. -1.
         23    2    1    2    0    0 -0.85476308240E+03 -0.11443927938E+04  0.65772189942E+03  0.15755619797E+04  0.97686546573E+02 0.  0.
         13    1    3    3    0    0 -0.56456940935E+03 -0.77600795759E+03  0.49004905039E+03  0.10775319206E+04  0.00000000000E+00 0.  1.
        -13    1    3    3    0    0 -0.29019367304E+03 -0.36838483621E+03  0.16767284903E+03  0.49803005905E+03  0.00000000000E+00 0. -1.
         22    1    1    2    0    0  0.85476308240E+03  0.11443927938E+04 -0.21635583712E+04  0.25925353650E+04  0.00000000000E+00 0. -1.
<mgrwt>
<rscale>  0 0.38865784E+04</rscale>
<asrwt>0</asrwt>
<pdfrwt beam="1">  1        2 0.43645644E+00 0.38865784E+04</pdfrwt>
<pdfrwt beam="2">  1       -2 0.20478930E+00 0.38865784E+04</pdfrwt>
<totfact> 0.21626765E-01</totfact>
</mgrwt>
</event>
<event>
 6    1  0.9562506E-007  0.2208925E+04  0.7818608E-02  0.8514723E-01
         -1   -1    0    0    0  501 -0.00000000000E+00  0.00000000000E+00  0.11145621727E+04  0.11145621727E+04  0.00000000000E+00 0.  1.
          1   -1    0    0  501    0  0.00000000000E+00 -0.00000000000E+00 -0.10944539079E+04  0.10944539079E+04  0.00000000000E+00 0. -1.
         23    2    1    2    0    0 -0.84281234922E+03  0.68931509539E+03 -0.16377940366E+03  0.11047957080E+04  0.90895030757E+02 0.  0.
         13    1    3    3    0    0 -0.35409217498E+03  0.33558761018E+03 -0.10140332881E+03  0.49827998914E+03  0.00000000000E+00 0.  1.
        -13    1    3    3    0    0 -0.48872017424E+03  0.35372748521E+03 -0.62376074850E+02  0.60651571885E+03  0.00000000000E+00 0. -1.
         22    1    1    2    0    0  0.84281234922E+03 -0.68931509539E+03  0.18388766840E+03  0.11042203726E+04  0.00000000000E+00 0.  1.
<mgrwt>
<rscale>  0 0.22089246E+04</rscale>
<asrwt>0</asrwt>
<pdfrwt beam="1">  1        1 0.16837752E+00 0.22089246E+04</pdfrwt>
<pdfrwt beam="2">  1       -1 0.17147110E+00 0.22089246E+04</pdfrwt>
<totfact> 0.27993127E+00</totfact>
</mgrwt>
</event>
<event>
 6    1  0.9562506E-007  0.2816416E+04  0.7818608E-02  0.8298190E-01
         -2   -1    0    0    0  501 -0.00000000000E+00  0.00000000000E+00  0.66378343361E+03  0.66378343361E+03  0.00000000000E+00 0.  1.
          2   -1    0    0  501    0  0.00000000000E+00 -0.00000000000E+00 -0.29874952885E+04  0.29874952885E+04  0.00000000000E+00 0. -1.
         23    2    1    2    0    0 -0.12458208818E+03 -0.12290908010E+04 -0.20353279045E+04  0.23826770523E+04  0.91680766934E+02 0.  0.
         13    1    3    3    0    0 -0.51929074203E+02 -0.64755291567E+03 -0.98570359885E+03  0.11805223387E+04  0.00000000000E+00 0. -1.
        -13    1    3    3    0    0 -0.72653013974E+02 -0.58153788533E+03 -0.10496243057E+04  0.12021547137E+04  0.00000000000E+00 0.  1.
         22    1    1    2    0    0  0.12458208818E+03  0.12290908010E+04 -0.28838395039E+03  0.12686016698E+04  0.00000000000E+00 0.  1.
<mgrwt>
<rscale>  0 0.28164161E+04</rscale>
<asrwt>0</asrwt>
<pdfrwt beam="1">  1        2 0.45961467E+00 0.28164161E+04</pdfrwt>
<pdfrwt beam="2">  1       -2 0.10212053E+00 0.28164161E+04</pdfrwt>
<totfact> 0.12099552E+00</totfact>
</mgrwt>
</event>
<event>
 6    1  0.9562506E-007  0.2109988E+04  0.7818608E-02  0.8556856E-01
          2   -1    0    0  501    0  0.00000000000E+00  0.00000000000E+00  0.17391228257E+04  0.17391228257E+04  0.00000000000E+00 0. -1.
         -2   -1    0    0    0  501 -0.00000000000E+00 -0.00000000000E+00 -0.63998469294E+03  0.63998469294E+03  0.00000000000E+00 0.  1.
         23    2    1    2    0    0 -0.49813999938E+03 -0.34787247039E+03  0.15203546374E+04  0.16397956369E+04  0.91064771552E+02 0.  0.
         13    1    3    3    0    0 -0.12735239697E+03 -0.65955473165E+02  0.27435931065E+03  0.30958325018E+03  0.00000000000E+00 0.  1.
        -13    1    3    3    0    0 -0.37078760241E+03 -0.28191699722E+03  0.12459953268E+04  0.13302123867E+04  0.00000000000E+00 0. -1.
         22    1    1    2    0    0  0.49813999938E+03  0.34787247039E+03 -0.42121650469E+03  0.73931188172E+03  0.00000000000E+00 0.  1.
<mgrwt>
<rscale>  0 0.21099877E+04</rscale>
<asrwt>0</asrwt>
<pdfrwt beam="1">  1        2 0.26755736E+00 0.21099877E+04</pdfrwt>
<pdfrwt beam="2">  1       -2 0.98459184E-01 0.21099877E+04</pdfrwt>
<totfact> 0.73599233E+00</totfact>
</mgrwt>
</event>
<event>
 6    1  0.9562506E-007  0.1027325E+04  0.7818608E-02  0.9279073E-01
          2   -1    0    0  501    0  0.00000000000E+00  0.00000000000E+00  0.85101715652E+03  0.85101715652E+03  0.00000000000E+00 0. -1.
         -2   -1    0    0    0  501 -0.00000000000E+00 -0.00000000000E+00 -0.31003989748E+03  0.31003989748E+03  0.00000000000E+00 0.  1.
         23    2    1    2    0    0  0.35790252110E+03  0.31354517798E+03  0.71426174320E+02  0.49256396173E+03  0.10541709903E+03 0.  0.
         13    1    3    3    0    0  0.24045538480E+03  0.16650020522E+03  0.82981032715E+02  0.30401802942E+03  0.00000000000E+00 0. -1.
        -13    1    3    3    0    0  0.11744713630E+03  0.14704497276E+03 -0.11554858396E+02  0.18854593231E+03  0.00000000000E+00 0.  1.
         22    1    1    2    0    0 -0.35790252110E+03 -0.31354517798E+03  0.46955108472E+03  0.66849309227E+03  0.00000000000E+00 0. -1.
<mgrwt>
<rscale>  0 0.10273252E+04</rscale>
<asrwt>0</asrwt>
<pdfrwt beam="1">  1        2 0.13092572E+00 0.10273252E+04</pdfrwt>
<pdfrwt beam="2">  1       -2 0.47698446E-01 0.10273252E+04</pdfrwt>
<totfact> 0.13154437E+02</totfact>
</mgrwt>
</event>
<event>
 6    1  0.9562506E-007  0.1232401E+04  0.7818608E-02  0.9084959E-01
          2   -1    0    0  501    0  0.00000000000E+00  0.00000000000E+00  0.11300775020E+04  0.11300775020E+04  0.00000000000E+00 0. -1.
         -2   -1    0    0    0  501 -0.00000000000E+00 -0.00000000000E+00 -0.33599754749E+03  0.33599754749E+03  0.00000000000E+00 0.  1.
         23    2    1    2    0    0 -0.28315249234E+03 -0.22077911240E+03 -0.19063115910E+03  0.41794589348E+03  0.97055554560E+02 0.  0.
         11    1    3    3    0    0 -0.56816301220E+02 -0.97793397333E+02 -0.74165473636E+02  0.13524850508E+03  0.00000000000E+00 0.  1.
        -11    1    3    3    0    0 -0.22633619112E+03 -0.12298571507E+03 -0.11646568546E+03  0.28269738841E+03  0.00000000000E+00 0. -1.
         22    1    1    2    0    0  0.28315249234E+03  0.22077911240E+03  0.98471111364E+03  0.10481291560E+04  0.00000000000E+00 0. -1.
<mgrwt>
<rscale>  0 0.12324013E+04</rscale>
<asrwt>0</asrwt>
<pdfrwt beam="1">  1        2 0.17385808E+00 0.12324013E+04</pdfrwt>
<pdfrwt beam="2">  1       -2 0.51691931E-01 0.12324013E+04</pdfrwt>
<totfact> 0.72652302E+01</totfact>
</mgrwt>
</event>
<event>
 6    1  0.9562506E-007  0.1324230E+04  0.7818608E-02  0.9010568E-01
         -1   -1    0    0    0  501 -0.00000000000E+00  0.00000000000E+00  0.32851589071E+03  0.32851589071E+03  0.00000000000E+00 0.  1.
          1   -1    0    0  501    0  0.00000000000E+00 -0.00000000000E+00 -0.13344751490E+04  0.13344751490E+04  0.00000000000E+00 0. -1.
         23    2    1    2    0    0  0.23433683624E+01 -0.23206619456E+03 -0.12795414827E+04  0.13042328432E+04  0.99682964097E+02 0.  0.
         13    1    3    3    0    0  0.11164057447E+02 -0.85913250420E+02 -0.25578067580E+03  0.27005458131E+03  0.00000000000E+00 0. -1.
        -13    1    3    3    0    0 -0.88206890845E+01 -0.14615294414E+03 -0.10237608069E+04  0.10341782619E+04  0.00000000000E+00 0.  1.
         22    1    1    2    0    0 -0.23433683624E+01  0.23206619456E+03  0.27358222442E+03  0.35875819649E+03  0.00000000000E+00 0.  1.
<mgrwt>
<rscale>  0 0.13242300E+04</rscale>
<asrwt>0</asrwt>
<pdfrwt beam="1">  1        1 0.20530387E+00 0.13242300E+04</pdfrwt>
<pdfrwt beam="2">  1       -1 0.50540905E-01 0.13242300E+04</pdfrwt>
<totfact> 0.32958648E+01</totfact>
</mgrwt>
</event>
<event>
 6    1  0.9562506E-007  0.1081966E+04  0.7818608E-02  0.9222950E-01
         -1   -1    0    0    0  501 -0.00000000000E+00  0.00000000000E+00  0.31952820906E+03  0.31952820906E+03  0.00000000000E+00 0.  1.
          1   -1    0    0  501    0  0.00000000000E+00 -0.00000000000E+00 -0.91592065347E+03  0.91592065347E+03  0.00000000000E+00 0. -1.
         23    2    1    2    0    0 -0.28315344407E+02  0.24733233529E+03 -0.84381101720E+03  0.88446311784E+03  0.91010610654E+02 0.  0.
         13    1    3    3    0    0 -0.43918482582E+02  0.47963046894E+02 -0.19973387359E+03  0.21005453396E+03  0.00000000000E+00 0. -1.
        -13    1    3    3    0    0  0.15603138175E+02  0.19936928840E+03 -0.64407714361E+03  0.67440858387E+03  0.00000000000E+00 0.  1.
         22    1    1    2    0    0  0.28315344407E+02 -0.24733233529E+03  0.24741857280E+03  0.35098574469E+03  0.00000000000E+00 0.  1.
<mgrwt>
<rscale>  0 0.10819658E+04</rscale>
<asrwt>0</asrwt>
<pdfrwt beam="1">  1        1 0.14091087E+00 0.10819658E+04</pdfrwt>
<pdfrwt beam="2">  1       -1 0.49158187E-01 0.10819658E+04</pdfrwt>
<totfact> 0.73008818E+01</totfact>
</mgrwt>
</event>
<event>
 6    1  0.9562506E-007  0.7382926E+03  0.7818608E-02  0.9653899E-01
         -2   -1    0    0    0  501 -0.00000000000E+00  0.00000000000E+00  0.15428907737E+03  0.15428907737E+03  0.00000000000E+00 0.  1.
          2   -1    0    0  501    0  0.00000000000E+00 -0.00000000000E+00 -0.88320571677E+03  0.88320571677E+03  0.00000000000E+00 0. -1.
         23    2    1    2    0    0  0.17898130780E+03  0.13163521546E+03 -0.77426432590E+03  0.81073820402E+03  0.91918717451E+02 0.  0.
         11    1    3    3    0    0  0.11206653406E+02 -0.61866722055E+01 -0.13503075316E+03  0.13563616145E+03  0.00000000000E+00 0.  1.
        -11    1    3    3    0    0  0.16777465439E+03  0.13782188767E+03 -0.63923357274E+03  0.67510204257E+03  0.00000000000E+00 0. -1.
         22    1    1    2    0    0 -0.17898130780E+03 -0.13163521546E+03  0.45347686492E+02  0.22675659012E+03  0.00000000000E+00 0.  1.
<mgrwt>
<rscale>  0 0.73829261E+03</rscale>
<asrwt>0</asrwt>
<pdfrwt beam="1">  1        2 0.13587780E+00 0.73829261E+03</pdfrwt>
<pdfrwt beam="2">  1       -2 0.23736781E-01 0.73829261E+03</pdfrwt>
<totfact> 0.47654206E+02</totfact>
</mgrwt>
</event>
<event>
 6    1  0.9562506E-007  0.1445460E+04  0.7818608E-02  0.8921554E-01
          1   -1    0    0  501    0  0.00000000000E+00  0.00000000000E+00  0.34563045059E+03  0.34563045059E+03  0.00000000000E+00 0. -1.
         -1   -1    0    0    0  501 -0.00000000000E+00 -0.00000000000E+00 -0.15112636306E+04  0.15112636306E+04  0.00000000000E+00 0.  1.
         23    2    1    2    0    0  0.35327534315E+03 -0.35401514149E+03  0.79763238240E+02  0.51482760478E+03  0.92493783514E+02 0.  0.
         13    1    3    3    0    0  0.23317276485E+03 -0.23891028410E+03  0.87560977040E+01  0.33395258850E+03  0.00000000000E+00 0. -1.
        -13    1    3    3    0    0  0.12010257830E+03 -0.11510485739E+03  0.71007140536E+02  0.18087501629E+03  0.00000000000E+00 0.  1.
         22    1    1    2    0    0 -0.35327534315E+03  0.35401514149E+03 -0.12453964182E+04  0.13420664764E+04  0.00000000000E+00 0.  1.
<mgrwt>
<rscale>  0 0.14454601E+04</rscale>
<asrwt>0</asrwt>
<pdfrwt beam="1">  1        1 0.53173916E-01 0.14454601E+04</pdfrwt>
<pdfrwt beam="2">  1       -1 0.23250209E+00 0.14454601E+04</pdfrwt>
<totfact> 0.64298146E+00</totfact>
</mgrwt>
</event>
<event>
 6    1  0.9562506E-007  0.3783322E+04  0.7818608E-02  0.8049743E-01
         -2   -1    0    0    0  501 -0.00000000000E+00  0.00000000000E+00  0.13473135136E+04  0.13473135136E+04  0.00000000000E+00 0.  1.
          2   -1    0    0  501    0  0.00000000000E+00 -0.00000000000E+00 -0.26559385848E+04  0.26559385848E+04  0.00000000000E+00 0. -1.
         23    2    1    2    0    0  0.29540042007E+03  0.21247877636E+03 -0.26177793595E+04  0.26444682344E+04  0.89637207273E+02 0.  0.
         13    1    3    3    0    0  0.14975346214E+03  0.14334162476E+03 -0.17055108513E+04  0.17180629164E+04  0.00000000000E+00 0.  1.
        -13    1    3    3    0    0  0.14564695793E+03  0.69137151602E+02 -0.91226850817E+03  0.92640531793E+03  0.00000000000E+00 0. -1.
         22    1    1    2    0    0 -0.29540042007E+03 -0.21247877636E+03  0.13091542883E+04  0.13587838641E+04  0.00000000000E+00 0.  1.
<mgrwt>
<rscale>  0 0.37833223E+04</rscale>
<asrwt>0</asrwt>
<pdfrwt beam="1">  1        2 0.40860593E+00 0.37833223E+04</pdfrwt>
<pdfrwt beam="2">  1       -2 0.20727900E+00 0.37833223E+04</pdfrwt>
<totfact> 0.26997311E-01</totfact>
</mgrwt>
</event>
<event>
 6    1  0.9562506E-007  0.2426628E+04  0.7818608E-02  0.8429601E-01
          1   -1    0    0  501    0  0.00000000000E+00  0.00000000000E+00  0.22859731754E+04  0.22859731754E+04  0.00000000000E+00 0. -1.
         -1   -1    0    0    0  501 -0.00000000000E+00 -0.00000000000E+00 -0.64398416475E+03  0.64398416475E+03  0.00000000000E+00 0.  1.
         23    2    1    2    0    0 -0.36210095405E+03 -0.10395976197E+04  0.14331123151E+04  0.18094620097E+04  0.91986655902E+02 0.  0.
         13    1    3    3    0    0 -0.30990550065E+03 -0.93971686422E+03  0.12470431041E+04  0.15919251577E+04  0.00000000000E+00 0. -1.
        -13    1    3    3    0    0 -0.52195453401E+02 -0.99880755445E+02  0.18606921106E+03  0.21753685197E+03  0.00000000000E+00 0.  1.
         22    1    1    2    0    0  0.36210095405E+03  0.10395976197E+04  0.20887669553E+03  0.11204953305E+04  0.00000000000E+00 0.  1.
<mgrwt>
<rscale>  0 0.24266277E+04</rscale>
<asrwt>0</asrwt>
<pdfrwt beam="1">  1        1 0.35168818E+00 0.24266277E+04</pdfrwt>
<pdfrwt beam="2">  1       -1 0.99074488E-01 0.24266277E+04</pdfrwt>
<totfact> 0.16558673E+00</totfact>
</mgrwt>
</event>
<event>
 6    1  0.9562506E-007  0.1286421E+04  0.7818608E-02  0.9040403E-01
         -1   -1    0    0    0  501 -0.00000000000E+00  0.00000000000E+00  0.17694783255E+03  0.17694783255E+03  0.00000000000E+00 0.  1.
          1   -1    0    0  501    0  0.00000000000E+00 -0.00000000000E+00 -0.23380889011E+04  0.23380889011E+04  0.00000000000E+00 0. -1.
         23    2    1    2    0    0  0.46618192670E+03 -0.18282035036E+03 -0.29944576173E+03  0.58717307542E+03  0.65996871111E+02 0.  0.
         13    1    3    3    0    0  0.22956762368E+03 -0.12468257194E+03 -0.14698891414E+03  0.29975453035E+03  0.00000000000E+00 0. -1.
        -13    1    3    3    0    0  0.23661430302E+03 -0.58137778425E+02 -0.15245684759E+03  0.28741854507E+03  0.00000000000E+00 0.  1.
         22    1    1    2    0    0 -0.46618192670E+03  0.18282035036E+03 -0.18616953068E+04  0.19278636582E+04  0.00000000000E+00 0. -1.
<mgrwt>
<rscale>  0 0.12864210E+04</rscale>
<asrwt>0</asrwt>
<pdfrwt beam="1">  1        1 0.35970599E+00 0.12864210E+04</pdfrwt>
<pdfrwt beam="2">  1       -1 0.27222743E-01 0.12864210E+04</pdfrwt>
<totfact> 0.20913061E+01</totfact>
</mgrwt>
</event>
<event>
 6    1  0.9740582E-007  0.2325908E+04  0.7818608E-02  0.8467776E-01
          2   -1    0    0  501    0  0.00000000000E+00  0.00000000000E+00  0.11319752782E+04  0.11319752782E+04  0.00000000000E+00 0. -1.
         -2   -1    0    0    0  501 -0.00000000000E+00 -0.00000000000E+00 -0.11947800428E+04  0.11947800428E+04  0.00000000000E+00 0.  1.
         23    2    1    2    0    0  0.35953639684E+03  0.55935174410E+02  0.10716903972E+04  0.11353383341E+04  0.89875808219E+02 0.  0.
         13    1    3    3    0    0  0.12123534399E+03 -0.18642300300E+02  0.29457808068E+03  0.31909526729E+03  0.00000000000E+00 0.  1.
        -13    1    3    3    0    0  0.23830105285E+03  0.74577474710E+02  0.77711231656E+03  0.81624306679E+03  0.00000000000E+00 0. -1.
         22    1    1    2    0    0 -0.35953639684E+03 -0.55935174410E+02 -0.11344951618E+04  0.11914169869E+04  0.00000000000E+00 0.  1.
<mgrwt>
<rscale>  0 0.23259075E+04</rscale>
<asrwt>0</asrwt>
<pdfrwt beam="1">  1        2 0.17415004E+00 0.23259075E+04</pdfrwt>
<pdfrwt beam="2">  1       -2 0.18381231E+00 0.23259075E+04</pdfrwt>
<totfact> 0.32155834E+00</totfact>
</mgrwt>
</event>
<event>
 6    1  0.9562506E-007  0.2448890E+04  0.7818608E-02  0.8421423E-01
         -1   -1    0    0    0  501 -0.00000000000E+00  0.00000000000E+00  0.89188511365E+03  0.89188511365E+03  0.00000000000E+00 0.  1.
          1   -1    0    0  501    0  0.00000000000E+00 -0.00000000000E+00 -0.16810078592E+04  0.16810078592E+04  0.00000000000E+00 0. -1.
         23    2    1    2    0    0  0.61217933381E+03  0.63819320198E+03 -0.12821475566E+04  0.15604071388E+04  0.94413887831E+02 0.  0.
         13    1    3    3    0    0  0.45459170344E+02  0.69686227737E+02 -0.84170981642E+02  0.11835311849E+03  0.00000000000E+00 0.  1.
        -13    1    3    3    0    0  0.56672016347E+03  0.56850697425E+03 -0.11979765750E+04  0.14420540203E+04  0.00000000000E+00 0. -1.
         22    1    1    2    0    0 -0.61217933381E+03 -0.63819320198E+03  0.49302481105E+03  0.10124858340E+04  0.00000000000E+00 0.  1.
<mgrwt>
<rscale>  0 0.24488903E+04</rscale>
<asrwt>0</asrwt>
<pdfrwt beam="1">  1        1 0.25861659E+00 0.24488903E+04</pdfrwt>
<pdfrwt beam="2">  1       -1 0.13721310E+00 0.24488903E+04</pdfrwt>
<totfact> 0.19355390E+00</totfact>
</mgrwt>
</event>
<event>
 6    1  0.9562506E-007  0.7656200E+03  0.7818608E-02  0.9611159E-01
          2   -1    0    0  501    0  0.00000000000E+00  0.00000000000E+00  0.12236976671E+04  0.12236976671E+04  0.00000000000E+00 0. -1.
         -2   -1    0    0    0  501 -0.00000000000E+00 -0.00000000000E+00 -0.11975464368E+03  0.11975464368E+03  0.00000000000E+00 0.  1.
         23    2    1    2    0    0  0.19066850198E+03 -0.28711528217E+03  0.82917580883E+03  0.90267267748E+03  0.92172543770E+02 0.  0.
         11    1    3    3    0    0  0.10506262579E+03 -0.87841763654E+02  0.37882720194E+03  0.40282053040E+03  0.00000000000E+00 0.  1.
        -11    1    3    3    0    0  0.85605876189E+02 -0.19927351851E+03  0.45034860689E+03  0.49985214708E+03  0.00000000000E+00 0. -1.
         22    1    1    2    0    0 -0.19066850198E+03  0.28711528217E+03  0.27476721455E+03  0.44077963326E+03  0.00000000000E+00 0.  1.
<mgrwt>
<rscale>  0 0.76561995E+03</rscale>
<asrwt>0</asrwt>
<pdfrwt beam="1">  1        2 0.18826117E+00 0.76561995E+03</pdfrwt>
<pdfrwt beam="2">  1       -2 0.18423792E-01 0.76561995E+03</pdfrwt>
<totfact> 0.45494917E+02</totfact>
</mgrwt>
</event>
<event>
 6    1  0.9562506E-007  0.1434088E+04  0.7818608E-02  0.8929507E-01
         -2   -1    0    0    0  501 -0.00000000000E+00  0.00000000000E+00  0.27872389977E+03  0.27872389977E+03  0.00000000000E+00 0.  1.
          2   -1    0    0  501    0  0.00000000000E+00 -0.00000000000E+00 -0.18446647551E+04  0.18446647551E+04  0.00000000000E+00 0. -1.
         23    2    1    2    0    0 -0.52381694948E+03 -0.18024084556E+03 -0.14533740244E+04  0.15581079720E+04  0.92376613760E+02 0.  0.
         11    1    3    3    0    0 -0.43085516798E+03 -0.15124706925E+03 -0.10870716733E+04  0.11790829804E+04  0.00000000000E+00 0.  1.
        -11    1    3    3    0    0 -0.92961781498E+02 -0.28993776310E+02 -0.36630235103E+03  0.37902499160E+03  0.00000000000E+00 0. -1.
         22    1    1    2    0    0  0.52381694948E+03  0.18024084556E+03 -0.11256683095E+03  0.56528068285E+03  0.00000000000E+00 0.  1.
<mgrwt>
<rscale>  0 0.14340881E+04</rscale>
<asrwt>0</asrwt>
<pdfrwt beam="1">  1        2 0.28379458E+00 0.14340881E+04</pdfrwt>
<pdfrwt beam="2">  1       -2 0.42880600E-01 0.14340881E+04</pdfrwt>
<totfact> 0.40803453E+01</totfact>
</mgrwt>
</event>
<event>
 6    1  0.9562506E-007  0.1562656E+04  0.7818608E-02  0.8843824E-01
          2   -1    0    0  501    0  0.00000000000E+00  0.00000000000E+00  0.17270733831E+04  0.17270733831E+04  0.00000000000E+00 0. -1.
         -2   -1    0    0    0  501 -0.00000000000E+00 -0.00000000000E+00 -0.35347279950E+03  0.35347279950E+03  0.00000000000E+00 0.  1.
         23    2    1    2    0    0 -0.37163785855E+03  0.64564105607E+03  0.99084792638E+03  0.12430101130E+04  0.91254899497E+02 0.  0.
         11    1    3    3    0    0 -0.20624732901E+03  0.26788364934E+03  0.45485560181E+03  0.56673911882E+03  0.00000000000E+00 0.  1.
        -11    1    3    3    0    0 -0.16539052954E+03  0.37775740673E+03  0.53599232458E+03  0.67627099421E+03  0.00000000000E+00 0. -1.
         22    1    1    2    0    0  0.37163785855E+03 -0.64564105607E+03  0.38275265718E+03  0.83753606953E+03  0.00000000000E+00 0.  1.
<mgrwt>
<rscale>  0 0.15626560E+04</rscale>
<asrwt>0</asrwt>
<pdfrwt beam="1">  1        2 0.26570359E+00 0.15626560E+04</pdfrwt>
<pdfrwt beam="2">  1       -2 0.54380432E-01 0.15626560E+04</pdfrwt>
<totfact> 0.28992671E+01</totfact>
</mgrwt>
</event>
<event>
 6    1  0.9562506E-007  0.3137133E+04  0.7818608E-02  0.8205620E-01
         -2   -1    0    0    0  501 -0.00000000000E+00  0.00000000000E+00  0.51361167003E+03  0.51361167003E+03  0.00000000000E+00 0.  1.
          2   -1    0    0  501    0  0.00000000000E+00 -0.00000000000E+00 -0.47903897966E+04  0.47903897966E+04  0.00000000000E+00 0. -1.
         23    2    1    2    0    0 -0.11240483227E+04 -0.99962163204E+03 -0.28842873736E+04  0.32541823195E+04  0.88661580083E+02 0.  0.
         13    1    3    3    0    0 -0.38540567003E+03 -0.39565572199E+03 -0.10227631577E+04  0.11623792228E+04  0.00000000000E+00 0.  1.
        -13    1    3    3    0    0 -0.73864265266E+03 -0.60396591005E+03 -0.18615242160E+04  0.20918030967E+04  0.00000000000E+00 0. -1.
         22    1    1    2    0    0  0.11240483227E+04  0.99962163204E+03 -0.13924907530E+04  0.20498191472E+04  0.00000000000E+00 0.  1.
<mgrwt>
<rscale>  0 0.31371325E+04</rscale>
<asrwt>0</asrwt>
<pdfrwt beam="1">  1        2 0.73698304E+00 0.31371325E+04</pdfrwt>
<pdfrwt beam="2">  1       -2 0.79017180E-01 0.31371325E+04</pdfrwt>
<totfact> 0.73231461E-02</totfact>
</mgrwt>
</event>
<event>
 6    1  0.9562506E-007  0.2079127E+04  0.7818608E-02  0.8570494E-01
          2   -1    0    0  501    0  0.00000000000E+00  0.00000000000E+00  0.92252733659E+03  0.92252733659E+03  0.00000000000E+00 0. -1.
         -2   -1    0    0    0  501 -0.00000000000E+00 -0.00000000000E+00 -0.11714476428E+04  0.11714476428E+04  0.00000000000E+00 0.  1.
         23    2    1    2    0    0 -0.30362210397E+03 -0.63960542361E+03  0.63921295170E+03  0.95816594450E+03  0.90594147946E+02 0.  0.
         13    1    3    3    0    0 -0.76693694699E+02 -0.12119685897E+03  0.88522319926E+02  0.16854317713E+03  0.00000000000E+00 0. -1.
        -13    1    3    3    0    0 -0.22692840928E+03 -0.51840856464E+03  0.55069063177E+03  0.78962276737E+03  0.00000000000E+00 0.  1.
         22    1    1    2    0    0  0.30362210397E+03  0.63960542361E+03 -0.88813325796E+03  0.11358090349E+04  0.00000000000E+00 0.  1.
<mgrwt>
<rscale>  0 0.20791272E+04</rscale>
<asrwt>0</asrwt>
<pdfrwt beam="1">  1        2 0.14192728E+00 0.20791272E+04</pdfrwt>
<pdfrwt beam="2">  1       -2 0.18022271E+00 0.20791272E+04</pdfrwt>
<totfact> 0.47212794E+00</totfact>
</mgrwt>
</event>
<event>
 6    1  0.9562506E-007  0.2515081E+04  0.7818608E-02  0.8397633E-01
          1   -1    0    0  501    0  0.00000000000E+00  0.00000000000E+00  0.18168192567E+04  0.18168192567E+04  0.00000000000E+00 0. -1.
         -1   -1    0    0    0  501 -0.00000000000E+00 -0.00000000000E+00 -0.87042664744E+03  0.87042664744E+03  0.00000000000E+00 0.  1.
         23    2    1    2    0    0 -0.82389842605E+03 -0.77938631720E+03  0.10500499369E+04  0.15483883672E+04  0.93005472710E+02 0.  0.
         11    1    3    3    0    0 -0.15056731180E+03 -0.17101243158E+03  0.17005800264E+03  0.28431583037E+03  0.00000000000E+00 0.  1.
        -11    1    3    3    0    0 -0.67333111425E+03 -0.60837388562E+03  0.87999193424E+03  0.12640725369E+04  0.00000000000E+00 0. -1.
         22    1    1    2    0    0  0.82389842605E+03  0.77938631720E+03 -0.10365732758E+03  0.11388575369E+04  0.00000000000E+00 0.  1.
<mgrwt>
<rscale>  0 0.25150808E+04</rscale>
<asrwt>0</asrwt>
<pdfrwt beam="1">  1        1 0.27951065E+00 0.25150808E+04</pdfrwt>
<pdfrwt beam="2">  1       -1 0.13391179E+00 0.25150808E+04</pdfrwt>
<totfact> 0.16556604E+00</totfact>
</mgrwt>
</event>
<event>
 6    1  0.9562506E-007  0.1568484E+04  0.7818608E-02  0.8840147E-01
          2   -1    0    0  501    0  0.00000000000E+00  0.00000000000E+00  0.95939491388E+03  0.95939491388E+03  0.00000000000E+00 0. -1.
         -2   -1    0    0    0  501 -0.00000000000E+00 -0.00000000000E+00 -0.64106639270E+03  0.64106639270E+03  0.00000000000E+00 0.  1.
         23    2    1    2    0    0  0.47898586388E+03  0.35410844713E+03  0.67441187444E+03  0.90647600082E+03  0.10975934383E+03 0.  0.
         13    1    3    3    0    0  0.29681430663E+03  0.28308182362E+03  0.45827123237E+03  0.61501753951E+03  0.00000000000E+00 0.  1.
        -13    1    3    3    0    0  0.18217155725E+03  0.71026623514E+02  0.21614064206E+03  0.29145846131E+03  0.00000000000E+00 0. -1.
         22    1    1    2    0    0 -0.47898586388E+03 -0.35410844713E+03 -0.35608335326E+03  0.69398530575E+03  0.00000000000E+00 0.  1.
<mgrwt>
<rscale>  0 0.15684844E+04</rscale>
<asrwt>0</asrwt>
<pdfrwt beam="1">  1        2 0.14759922E+00 0.15684844E+04</pdfrwt>
<pdfrwt beam="2">  1       -2 0.98625599E-01 0.15684844E+04</pdfrwt>
<totfact> 0.21963690E+01</totfact>
</mgrwt>
</event>
<event>
 6    1  0.9562506E-007  0.6210685E+03  0.7818608E-02  0.9862635E-01
         -2   -1    0    0    0  501 -0.00000000000E+00  0.00000000000E+00  0.97531772779E+02  0.97531772779E+02  0.00000000000E+00 0.  1.
          2   -1    0    0  501    0  0.00000000000E+00 -0.00000000000E+00 -0.98871914286E+03  0.98871914286E+03  0.00000000000E+00 0. -1.
         23    2    1    2    0    0 -0.19483063365E+03  0.20343451503E+03 -0.25758490888E+03  0.39285589362E+03  0.92958002125E+02 0.  0.
         13    1    3    3    0    0 -0.36530170110E+02  0.98652937434E+02 -0.72788447058E+02  0.12792581216E+03  0.00000000000E+00 0.  1.
        -13    1    3    3    0    0 -0.15830046354E+03  0.10478157759E+03 -0.18479646182E+03  0.26493008146E+03  0.00000000000E+00 0. -1.
         22    1    1    2    0    0  0.19483063365E+03 -0.20343451503E+03 -0.63360246120E+03  0.69339502201E+03  0.00000000000E+00 0.  1.
<mgrwt>
<rscale>  0 0.62106853E+03</rscale>
<asrwt>0</asrwt>
<pdfrwt beam="1">  1        2 0.15211064E+00 0.62106853E+03</pdfrwt>
<pdfrwt beam="2">  1       -2 0.15004888E-01 0.62106853E+03</pdfrwt>
<totfact> 0.90387658E+02</totfact>
</mgrwt>
</event>
<event>
 6    1  0.9562506E-007  0.1820496E+04  0.7818608E-02  0.8695475E-01
          2   -1    0    0  501    0  0.00000000000E+00  0.00000000000E+00  0.10570362965E+04  0.10570362965E+04  0.00000000000E+00 0. -1.
         -2   -1    0    0    0  501 -0.00000000000E+00 -0.00000000000E+00 -0.78384381195E+03  0.78384381195E+03  0.00000000000E+00 0.  1.
         23    2    1    2    0    0 -0.65830511266E+03 -0.32505981007E+03  0.67718578130E+03  0.10028824441E+04  0.90349946854E+02 0.  0.
         13    1    3    3    0    0 -0.26696023341E+03 -0.18143163705E+03  0.28829556435E+03  0.43278116592E+03  0.00000000000E+00 0. -1.
        -13    1    3    3    0    0 -0.39134487924E+03 -0.14362817302E+03  0.38889021695E+03  0.57010127822E+03  0.00000000000E+00 0.  1.
         22    1    1    2    0    0  0.65830511266E+03  0.32505981007E+03 -0.40399329679E+03  0.83799766427E+03  0.00000000000E+00 0.  1.
<mgrwt>
<rscale>  0 0.18204959E+04</rscale>
<asrwt>0</asrwt>
<pdfrwt beam="1">  1        2 0.16262097E+00 0.18204959E+04</pdfrwt>
<pdfrwt beam="2">  1       -2 0.12059136E+00 0.18204959E+04</pdfrwt>
<totfact> 0.11456766E+01</totfact>
</mgrwt>
</event>
<event>
 6    1  0.9562506E-007  0.1466197E+04  0.7818608E-02  0.8907248E-01
          2   -1    0    0  501    0  0.00000000000E+00  0.00000000000E+00  0.92526192026E+03  0.92526192026E+03  0.00000000000E+00 0. -1.
         -2   -1    0    0    0  501 -0.00000000000E+00 -0.00000000000E+00 -0.58084494424E+03  0.58084494424E+03  0.00000000000E+00 0.  1.
         23    2    1    2    0    0 -0.39675931827E+03  0.91975470508E+02 -0.44983060381E+03  0.61352260412E+03  0.90470823098E+02 0.  0.
         11    1    3    3    0    0 -0.14740999436E+03  0.72617352385E+02 -0.14436980918E+03  0.21873643525E+03  0.00000000000E+00 0.  1.
        -11    1    3    3    0    0 -0.24934932390E+03  0.19358118123E+02 -0.30546079463E+03  0.39478616886E+03  0.00000000000E+00 0. -1.
         22    1    1    2    0    0  0.39675931827E+03 -0.91975470508E+02  0.79424757983E+03  0.89258426038E+03  0.00000000000E+00 0. -1.
<mgrwt>
<rscale>  0 0.14661974E+04</rscale>
<asrwt>0</asrwt>
<pdfrwt beam="1">  1        2 0.14234799E+00 0.14661974E+04</pdfrwt>
<pdfrwt beam="2">  1       -2 0.89360761E-01 0.14661974E+04</pdfrwt>
<totfact> 0.29349648E+01</totfact>
</mgrwt>
</event>
<event>
 6    1  0.9562506E-007  0.8722718E+03  0.7818608E-02  0.9460923E-01
         -2   -1    0    0    0  501 -0.00000000000E+00  0.00000000000E+00  0.85339529407E+02  0.85339529407E+02  0.00000000000E+00 0.  1.
          2   -1    0    0  501    0  0.00000000000E+00 -0.00000000000E+00 -0.22289148331E+04  0.22289148331E+04  0.00000000000E+00 0. -1.
         23    2    1    2    0    0 -0.13588544689E+03  0.28954358143E+03 -0.18505820398E+04  0.18804970653E+04  0.96514176131E+02 0.  0.
         13    1    3    3    0    0  0.78289761578E+00  0.70966840600E+02 -0.27744687818E+03  0.28638029891E+03  0.00000000000E+00 0.  1.
        -13    1    3    3    0    0 -0.13666834451E+03  0.21857674083E+03 -0.15731351617E+04  0.15941167664E+04  0.00000000000E+00 0. -1.
         22    1    1    2    0    0  0.13588544689E+03 -0.28954358143E+03 -0.29299326387E+03  0.43375729722E+03  0.00000000000E+00 0.  1.
<mgrwt>
<rscale>  0 0.87227185E+03</rscale>
<asrwt>0</asrwt>
<pdfrwt beam="1">  1        2 0.34290991E+00 0.87227185E+03</pdfrwt>
<pdfrwt beam="2">  1       -2 0.13129161E-01 0.87227185E+03</pdfrwt>
<totfact> 0.22213314E+02</totfact>
</mgrwt>
</event>
<event>
 6    1  0.9562506E-007  0.1308548E+04  0.7818608E-02  0.9022814E-01
          3   -1    0    0  501    0  0.00000000000E+00  0.00000000000E+00  0.59673725515E+03  0.59673725515E+03  0.00000000000E+00 0. -1.
         -3   -1    0    0    0  501 -0.00000000000E+00 -0.00000000000E+00 -0.71735791617E+03  0.71735791617E+03  0.00000000000E+00 0.  1.
         23    2    1    2    0    0  0.10917190815E+03 -0.37399572606E+03  0.46317713976E+03  0.61223252035E+03  0.92218694052E+02 0.  0.
         11    1    3    3    0    0  0.43812233991E+02 -0.27776233339E+03  0.29309401051E+03  0.40617179209E+03  0.00000000000E+00 0.  1.
        -11    1    3    3    0    0  0.65359674156E+02 -0.96233392664E+02  0.17008312926E+03  0.20606072825E+03  0.00000000000E+00 0. -1.
         22    1    1    2    0    0 -0.10917190815E+03  0.37399572606E+03 -0.58379780078E+03  0.70186265097E+03  0.00000000000E+00 0.  1.
<mgrwt>
<rscale>  0 0.13085476E+04</rscale>
<asrwt>0</asrwt>
<pdfrwt beam="1">  1        3 0.91805733E-01 0.13085476E+04</pdfrwt>
<pdfrwt beam="2">  1       -3 0.11036275E+00 0.13085476E+04</pdfrwt>
<totfact> 0.18936977E+00</totfact>
</mgrwt>
</event>
<event>
 6    1  0.9562506E-007  0.9320936E+03  0.7818608E-02  0.9386329E-01
          1   -1    0    0  501    0  0.00000000000E+00  0.00000000000E+00  0.27971365867E+04  0.27971365867E+04  0.00000000000E+00 0. -1.
         -1   -1    0    0    0  501 -0.00000000000E+00 -0.00000000000E+00 -0.77650705202E+02  0.77650705202E+02  0.00000000000E+00 0.  1.
         23    2    1    2    0    0  0.10773113502E+03 -0.24284317188E+03  0.25364431216E+04  0.25521676156E+04  0.97144353020E+02 0.  0.
         11    1    3    3    0    0  0.11415853966E+03 -0.15043548283E+03  0.18164229330E+04  0.18262133715E+04  0.00000000000E+00 0.  1.
        -11    1    3    3    0    0 -0.64274046316E+01 -0.92407689047E+02  0.72002018868E+03  0.72595424417E+03  0.00000000000E+00 0. -1.
         22    1    1    2    0    0 -0.10773113502E+03  0.24284317188E+03  0.18304275984E+03  0.32261967626E+03  0.00000000000E+00 0.  1.
<mgrwt>
<rscale>  0 0.93209362E+03</rscale>
<asrwt>0</asrwt>
<pdfrwt beam="1">  1        1 0.43032863E+00 0.93209362E+03</pdfrwt>
<pdfrwt beam="2">  1       -1 0.11946264E-01 0.93209362E+03</pdfrwt>
<totfact> 0.40965701E+01</totfact>
</mgrwt>
</event>
<event>
 6    1  0.9562506E-007  0.5281947E+04  0.7818608E-02  0.7786427E-01
         -2   -1    0    0    0  501 -0.00000000000E+00  0.00000000000E+00  0.20360514759E+04  0.20360514759E+04  0.00000000000E+00 0.  1.
          2   -1    0    0  501    0  0.00000000000E+00 -0.00000000000E+00 -0.34256210950E+04  0.34256210950E+04  0.00000000000E+00 0. -1.
         23    2    1    2    0    0  0.10140743428E+04 -0.56805631278E+03 -0.31462035424E+04  0.33553018800E+04  0.91756356231E+02 0.  0.
         13    1    3    3    0    0  0.58304715297E+03 -0.29258409431E+03 -0.18621310908E+04  0.19730893629E+04  0.00000000000E+00 0.  1.
        -13    1    3    3    0    0  0.43102718981E+03 -0.27547221846E+03 -0.12840724516E+04  0.13822125171E+04  0.00000000000E+00 0. -1.
         22    1    1    2    0    0 -0.10140743428E+04  0.56805631278E+03  0.17566339232E+04  0.21063706909E+04  0.00000000000E+00 0.  1.
<mgrwt>
<rscale>  0 0.52819469E+04</rscale>
<asrwt>0</asrwt>
<pdfrwt beam="1">  1        2 0.52701862E+00 0.52819469E+04</pdfrwt>
<pdfrwt beam="2">  1       -2 0.31323869E+00 0.52819469E+04</pdfrwt>
<totfact> 0.17152152E-02</totfact>
</mgrwt>
</event>
<event>
 6    1  0.9562506E-007  0.1973345E+04  0.7818608E-02  0.8619185E-01
          1   -1    0    0  501    0  0.00000000000E+00  0.00000000000E+00  0.11662411573E+04  0.11662411573E+04  0.00000000000E+00 0. -1.
         -1   -1    0    0    0  501 -0.00000000000E+00 -0.00000000000E+00 -0.83475235485E+03  0.83475235485E+03  0.00000000000E+00 0.  1.
         23    2    1    2    0    0 -0.60705561117E+03  0.74510687480E+03 -0.49565196784E+02  0.96711589836E+03  0.95685329080E+02 0.  0.
         13    1    3    3    0    0 -0.47720218422E+03  0.61558915201E+03 -0.72618865057E+02  0.78226940900E+03  0.00000000000E+00 0. -1.
        -13    1    3    3    0    0 -0.12985342695E+03  0.12951772279E+03  0.23053668273E+02  0.18484648935E+03  0.00000000000E+00 0.  1.
         22    1    1    2    0    0  0.60705561117E+03 -0.74510687480E+03  0.38105399921E+03  0.10338776138E+04  0.00000000000E+00 0. -1.
<mgrwt>
<rscale>  0 0.19733449E+04</rscale>
<asrwt>0</asrwt>
<pdfrwt beam="1">  1        1 0.17942172E+00 0.19733449E+04</pdfrwt>
<pdfrwt beam="2">  1       -1 0.12842344E+00 0.19733449E+04</pdfrwt>
<totfact> 0.55025254E+00</totfact>
</mgrwt>
</event>
<event>
 6    1  0.9562506E-007  0.2238236E+04  0.7818608E-02  0.8502680E-01
          2   -1    0    0  501    0  0.00000000000E+00  0.00000000000E+00  0.15150677822E+04  0.15150677822E+04  0.00000000000E+00 0. -1.
         -2   -1    0    0    0  501 -0.00000000000E+00 -0.00000000000E+00 -0.82664593741E+03  0.82664593741E+03  0.00000000000E+00 0.  1.
         23    2    1    2    0    0 -0.58300977878E+03  0.83637468166E+03 -0.13313194842E+03  0.10323727994E+04  0.92986401562E+02 0.  0.
         11    1    3    3    0    0 -0.33197872659E+03  0.40457055161E+03 -0.90216213243E+02  0.53106136300E+03  0.00000000000E+00 0. -1.
        -11    1    3    3    0    0 -0.25103105218E+03  0.43180413005E+03 -0.42915735178E+02  0.50131143635E+03  0.00000000000E+00 0.  1.
         22    1    1    2    0    0  0.58300977878E+03 -0.83637468166E+03  0.82155379316E+03  0.13093409202E+04  0.00000000000E+00 0. -1.
<mgrwt>
<rscale>  0 0.22382356E+04</rscale>
<asrwt>0</asrwt>
<pdfrwt beam="1">  1        2 0.23308735E+00 0.22382356E+04</pdfrwt>
<pdfrwt beam="2">  1       -2 0.12717630E+00 0.22382356E+04</pdfrwt>
<totfact> 0.52079656E+00</totfact>
</mgrwt>
</event>
<event>
 6    1  0.9562506E-007  0.1612918E+04  0.7818608E-02  0.8812651E-01
          2   -1    0    0  501    0  0.00000000000E+00  0.00000000000E+00  0.60328436799E+03  0.60328436799E+03  0.00000000000E+00 0. -1.
         -2   -1    0    0    0  501 -0.00000000000E+00 -0.00000000000E+00 -0.10780590265E+04  0.10780590265E+04  0.00000000000E+00 0.  1.
         23    2    1    2    0    0  0.62446181932E+03  0.47657597477E+02 -0.76346188215E+03  0.99173182021E+03  0.91837614008E+02 0.  0.
         13    1    3    3    0    0  0.14082351320E+03  0.42680696926E+02 -0.21416606239E+03  0.25984611993E+03  0.00000000000E+00 0. -1.
        -13    1    3    3    0    0  0.48363830611E+03  0.49769005511E+01 -0.54929581975E+03  0.73188570028E+03  0.00000000000E+00 0.  1.
         22    1    1    2    0    0 -0.62446181932E+03 -0.47657597477E+02  0.28868722359E+03  0.68961157433E+03  0.00000000000E+00 0. -1.
<mgrwt>
<rscale>  0 0.16129180E+04</rscale>
<asrwt>0</asrwt>
<pdfrwt beam="1">  1        2 0.92812980E-01 0.16129180E+04</pdfrwt>
<pdfrwt beam="2">  1       -2 0.16585523E+00 0.16129180E+04</pdfrwt>
<totfact> 0.10763340E+01</totfact>
</mgrwt>
</event>
<event>
 6    1  0.9562506E-007  0.3385336E+04  0.7818608E-02  0.8141515E-01
         -1   -1    0    0    0  501 -0.00000000000E+00  0.00000000000E+00  0.16207462254E+04  0.16207462254E+04  0.00000000000E+00 0.  1.
          1   -1    0    0  501    0  0.00000000000E+00 -0.00000000000E+00 -0.17677818381E+04  0.17677818381E+04  0.00000000000E+00 0. -1.
         23    2    1    2    0    0  0.75601976564E+02 -0.68003915389E+03 -0.16219455344E+04  0.17626350207E+04  0.89476197781E+02 0.  0.
         11    1    3    3    0    0  0.92027746743E+02 -0.60043677155E+03 -0.13928147145E+04  0.15195151371E+04  0.00000000000E+00 0. -1.
        -11    1    3    3    0    0 -0.16425770179E+02 -0.79602382337E+02 -0.22913081983E+03  0.24311988359E+03  0.00000000000E+00 0.  1.
         22    1    1    2    0    0 -0.75601976564E+02  0.68003915389E+03  0.14749099217E+04  0.16258930428E+04  0.00000000000E+00 0.  1.
<mgrwt>
<rscale>  0 0.33853365E+04</rscale>
<asrwt>0</asrwt>
<pdfrwt beam="1">  1        1 0.27196643E+00 0.33853365E+04</pdfrwt>
<pdfrwt beam="2">  1       -1 0.24934558E+00 0.33853365E+04</pdfrwt>
<totfact> 0.24852306E-01</totfact>
</mgrwt>
</event>
<event>
 6    1  0.1030094E-006  0.3366502E+04  0.7818608E-02  0.8146177E-01
          2   -1    0    0  501    0  0.00000000000E+00  0.00000000000E+00  0.23292146909E+04  0.23292146909E+04  0.00000000000E+00 0. -1.
         -2   -1    0    0    0  501 -0.00000000000E+00 -0.00000000000E+00 -0.12164334020E+04  0.12164334020E+04  0.00000000000E+00 0.  1.
         23    2    1    2    0    0 -0.11393557294E+04  0.30465666199E+03 -0.70631182117E+03  0.13776889367E+04  0.90571837026E+02 0.  0.
         11    1    3    3    0    0 -0.73019934749E+03  0.15176426324E+03 -0.45942985247E+03  0.87595620211E+03  0.00000000000E+00 0. -1.
        -11    1    3    3    0    0 -0.40915638196E+03  0.15289239875E+03 -0.24688196870E+03  0.50173273459E+03  0.00000000000E+00 0.  1.
         22    1    1    2    0    0  0.11393557294E+04 -0.30465666199E+03  0.18190931101E+04  0.21679591563E+04  0.00000000000E+00 0. -1.
<mgrwt>
<rscale>  0 0.33665024E+04</rscale>
<asrwt>0</asrwt>
<pdfrwt beam="1">  1        2 0.35834072E+00 0.33665024E+04</pdfrwt>
<pdfrwt beam="2">  1       -2 0.18714360E+00 0.33665024E+04</pdfrwt>
<totfact> 0.58729311E-01</totfact>
</mgrwt>
</event>
<event>
 6    1  0.9562506E-007  0.2714596E+04  0.7818608E-02  0.8330284E-01
         -1   -1    0    0    0  501 -0.00000000000E+00  0.00000000000E+00  0.10356552308E+04  0.10356552308E+04  0.00000000000E+00 0.  1.
          1   -1    0    0  501    0  0.00000000000E+00 -0.00000000000E+00 -0.17788337356E+04  0.17788337356E+04  0.00000000000E+00 0. -1.
         23    2    1    2    0    0  0.91961631392E+03  0.97571655999E+03 -0.16377253395E+03  0.13538629879E+04  0.91687385928E+02 0.  0.
         13    1    3    3    0    0  0.32504876514E+03  0.40043284143E+03 -0.86245891117E+02  0.52291635464E+03  0.00000000000E+00 0. -1.
        -13    1    3    3    0    0  0.59456754878E+03  0.57528371856E+03 -0.77526642833E+02  0.83094663322E+03  0.00000000000E+00 0.  1.
         22    1    1    2    0    0 -0.91961631392E+03 -0.97571655999E+03 -0.57940597087E+03  0.14606259786E+04  0.00000000000E+00 0. -1.
<mgrwt>
<rscale>  0 0.27145964E+04</rscale>
<asrwt>0</asrwt>
<pdfrwt beam="1">  1        1 0.27366673E+00 0.27145964E+04</pdfrwt>
<pdfrwt beam="2">  1       -1 0.15933158E+00 0.27145964E+04</pdfrwt>
<totfact> 0.10858850E+00</totfact>
</mgrwt>
</event>
<event>
 6    1  0.9562506E-007  0.3220691E+04  0.7818608E-02  0.8183374E-01
          1   -1    0    0  501    0  0.00000000000E+00  0.00000000000E+00  0.29467835300E+04  0.29467835300E+04  0.00000000000E+00 0. -1.
         -1   -1    0    0    0  501 -0.00000000000E+00 -0.00000000000E+00 -0.88001454451E+03  0.88001454451E+03  0.00000000000E+00 0.  1.
         23    2    1    2    0    0 -0.84440559217E+03 -0.13361302906E+04  0.67611723771E+03  0.17215244008E+04  0.90811815563E+02 0.  0.
         13    1    3    3    0    0 -0.25336413404E+03 -0.43851088641E+03  0.17629398826E+03  0.53625064309E+03  0.00000000000E+00 0. -1.
        -13    1    3    3    0    0 -0.59104145814E+03 -0.89761940422E+03  0.49982324945E+03  0.11852737577E+04  0.00000000000E+00 0.  1.
         22    1    1    2    0    0  0.84440559217E+03  0.13361302906E+04  0.13906517478E+04  0.21052736737E+04  0.00000000000E+00 0. -1.
<mgrwt>
<rscale>  0 0.32206908E+04</rscale>
<asrwt>0</asrwt>
<pdfrwt beam="1">  1        1 0.45335131E+00 0.32206908E+04</pdfrwt>
<pdfrwt beam="2">  1       -1 0.13538685E+00 0.32206908E+04</pdfrwt>
<totfact> 0.24938130E-01</totfact>
</mgrwt>
</event>
<event>
 6    1  0.9562506E-007  0.2179676E+04  0.7818608E-02  0.8526935E-01
          1   -1    0    0  501    0  0.00000000000E+00  0.00000000000E+00  0.41231338545E+03  0.41231338545E+03  0.00000000000E+00 0. -1.
         -1   -1    0    0    0  501 -0.00000000000E+00 -0.00000000000E+00 -0.28806894427E+04  0.28806894427E+04  0.00000000000E+00 0.  1.
         23    2    1    2    0    0 -0.15585622641E+03  0.10765242299E+04 -0.12573095384E+04  0.16651583350E+04  0.93431389167E+02 0.  0.
         13    1    3    3    0    0 -0.75599873541E+02  0.76292470283E+03 -0.92172192987E+03  0.11988914709E+04  0.00000000000E+00 0.  1.
        -13    1    3    3    0    0 -0.80256352868E+02  0.31359952702E+03 -0.33558760850E+03  0.46626686404E+03  0.00000000000E+00 0. -1.
         22    1    1    2    0    0  0.15585622641E+03 -0.10765242299E+04 -0.12110665188E+04  0.16278444931E+04  0.00000000000E+00 0. -1.
<mgrwt>
<rscale>  0 0.21796760E+04</rscale>
<asrwt>0</asrwt>
<pdfrwt beam="1">  1        1 0.63432830E-01 0.21796760E+04</pdfrwt>
<pdfrwt beam="2">  1       -1 0.44318298E+00 0.21796760E+04</pdfrwt>
<totfact> 0.18977226E-01</totfact>
</mgrwt>
</event>
<event>
 6    1  0.9562506E-007  0.1912555E+04  0.7818608E-02  0.8648632E-01
          2   -1    0    0  501    0  0.00000000000E+00  0.00000000000E+00  0.38920725950E+04  0.38920725950E+04  0.00000000000E+00 0. -1.
         -2   -1    0    0    0  501 -0.00000000000E+00 -0.00000000000E+00 -0.23495610556E+03  0.23495610556E+03  0.00000000000E+00 0.  1.
         23    2    1    2    0    0 -0.84805409190E+03 -0.38557982361E+02  0.89361100504E+03  0.12360695132E+04  0.92977160106E+02 0.  0.
         13    1    3    3    0    0 -0.49011830437E+03 -0.43957983072E+02  0.57524125677E+03  0.75700116251E+03  0.00000000000E+00 0. -1.
        -13    1    3    3    0    0 -0.35793578752E+03  0.54000007110E+01  0.31836974827E+03  0.47906835067E+03  0.00000000000E+00 0.  1.
         22    1    1    2    0    0  0.84805409190E+03  0.38557982361E+02  0.27635054844E+04  0.28909591873E+04  0.00000000000E+00 0. -1.
<mgrwt>
<rscale>  0 0.19125545E+04</rscale>
<asrwt>0</asrwt>
<pdfrwt beam="1">  1        2 0.59878035E+00 0.19125545E+04</pdfrwt>
<pdfrwt beam="2">  1       -2 0.36147096E-01 0.19125545E+04</pdfrwt>
<totfact> 0.28399992E+00</totfact>
</mgrwt>
</event>
<event>
 6    1  0.9562506E-007  0.2333680E+04  0.7818608E-02  0.8464759E-01
          2   -1    0    0  501    0  0.00000000000E+00  0.00000000000E+00  0.24875467249E+04  0.24875467249E+04  0.00000000000E+00 0. -1.
         -2   -1    0    0    0  501 -0.00000000000E+00 -0.00000000000E+00 -0.54733284302E+03  0.54733284302E+03  0.00000000000E+00 0.  1.
         23    2    1    2    0    0  0.23203307208E+03 -0.65822667193E+03 -0.24256657234E+03  0.74323557081E+03  0.80367117171E+02 0.  0.
         11    1    3    3    0    0  0.79381951433E+02 -0.23504665137E+03 -0.12724773439E+03  0.27881967012E+03  0.00000000000E+00 0. -1.
        -11    1    3    3    0    0  0.15265112064E+03 -0.42318002055E+03 -0.11531883794E+03  0.46441590069E+03  0.00000000000E+00 0.  1.
         22    1    1    2    0    0 -0.23203307208E+03  0.65822667193E+03  0.21827804542E+04  0.22916439971E+04  0.00000000000E+00 0. -1.
<mgrwt>
<rscale>  0 0.23336804E+04</rscale>
<asrwt>0</asrwt>
<pdfrwt beam="1">  1        2 0.38269949E+00 0.23336804E+04</pdfrwt>
<pdfrwt beam="2">  1       -2 0.84205054E-01 0.23336804E+04</pdfrwt>
<totfact> 0.39389850E+00</totfact>
</mgrwt>
</event>
<event>
 6    1  0.9562506E-007  0.6872333E+04  0.7818608E-02  0.7590747E-01
         -1   -1    0    0    0  501 -0.00000000000E+00  0.00000000000E+00  0.25359556973E+04  0.25359556973E+04  0.00000000000E+00 0.  1.
          1   -1    0    0  501    0  0.00000000000E+00 -0.00000000000E+00 -0.46559326422E+04  0.46559326422E+04  0.00000000000E+00 0. -1.
         23    2    1    2    0    0  0.15671149702E+03  0.33817633511E+04 -0.44796169709E+03  0.34161080433E+04  0.90788905098E+02 0.  0.
         11    1    3    3    0    0  0.37305904045E+02  0.10692391674E+04 -0.10086671672E+03  0.10746339945E+04  0.00000000000E+00 0. -1.
        -11    1    3    3    0    0  0.11940559298E+03  0.23125241837E+04 -0.34709498037E+03  0.23414740488E+04  0.00000000000E+00 0.  1.
         22    1    1    2    0    0 -0.15671149702E+03 -0.33817633511E+04 -0.16720152478E+04  0.37757802962E+04  0.00000000000E+00 0. -1.
<mgrwt>
<rscale>  0 0.68723326E+04</rscale>
<asrwt>0</asrwt>
<pdfrwt beam="1">  1        1 0.71629733E+00 0.68723326E+04</pdfrwt>
<pdfrwt beam="2">  1       -1 0.39014703E+00 0.68723326E+04</pdfrwt>
<totfact> 0.11376667E-04</totfact>
</mgrwt>
</event>
<event>
 6    1  0.9562506E-007  0.1792877E+04  0.7818608E-02  0.8710096E-01
          2   -1    0    0  501    0  0.00000000000E+00  0.00000000000E+00  0.90774575337E+03  0.90774575337E+03  0.00000000000E+00 0. -1.
         -2   -1    0    0    0  501 -0.00000000000E+00 -0.00000000000E+00 -0.88527249755E+03  0.88527249755E+03  0.00000000000E+00 0.  1.
         23    2    1    2    0    0 -0.55764893306E+03  0.38125941599E+03  0.59703681405E+03  0.90619563208E+03  0.91686920815E+02 0.  0.
         11    1    3    3    0    0 -0.34540190201E+03  0.18567497012E+03  0.32014441809E+03  0.50623128793E+03  0.00000000000E+00 0. -1.
        -11    1    3    3    0    0 -0.21224703106E+03  0.19558444588E+03  0.27689239595E+03  0.39996434416E+03  0.00000000000E+00 0.  1.
         22    1    1    2    0    0  0.55764893306E+03 -0.38125941599E+03 -0.57456355823E+03  0.88682261883E+03  0.00000000000E+00 0.  1.
<mgrwt>
<rscale>  0 0.17928774E+04</rscale>
<asrwt>0</asrwt>
<pdfrwt beam="1">  1        2 0.13965319E+00 0.17928774E+04</pdfrwt>
<pdfrwt beam="2">  1       -2 0.13619577E+00 0.17928774E+04</pdfrwt>
<totfact> 0.10553511E+01</totfact>
</mgrwt>
</event>
<event>
 6    1  0.9562506E-007  0.2464730E+04  0.7818608E-02  0.8415659E-01
          2   -1    0    0  501    0  0.00000000000E+00  0.00000000000E+00  0.14698832464E+04  0.14698832464E+04  0.00000000000E+00 0. -1.
         -2   -1    0    0    0  501 -0.00000000000E+00 -0.00000000000E+00 -0.10332274164E+04  0.10332274164E+04  0.00000000000E+00 0.  1.
         23    2    1    2    0    0  0.58495198051E+03  0.57118140115E+02  0.13168312780E+04  0.14447439396E+04  0.88369309911E+02 0.  0.
         13    1    3    3    0    0  0.29563847635E+03  0.16034709501E+02  0.76546297534E+03  0.82072698702E+03  0.00000000000E+00 0.  1.
        -13    1    3    3    0    0  0.28931350416E+03  0.41083430614E+02  0.55136830264E+03  0.62401695259E+03  0.00000000000E+00 0. -1.
         22    1    1    2    0    0 -0.58495198051E+03 -0.57118140115E+02 -0.88017544798E+03  0.10583667231E+04  0.00000000000E+00 0.  1.
<mgrwt>
<rscale>  0 0.24647301E+04</rscale>
<asrwt>0</asrwt>
<pdfrwt beam="1">  1        2 0.22613588E+00 0.24647301E+04</pdfrwt>
<pdfrwt beam="2">  1       -2 0.15895806E+00 0.24647301E+04</pdfrwt>
<totfact> 0.30284463E+00</totfact>
</mgrwt>
</event>
<event>
 6    1  0.9562506E-007  0.1660977E+04  0.7818608E-02  0.8783939E-01
         -3   -1    0    0    0  501 -0.00000000000E+00  0.00000000000E+00  0.14029484680E+04  0.14029484680E+04  0.00000000000E+00 0.  1.
          3   -1    0    0  501    0  0.00000000000E+00 -0.00000000000E+00 -0.49161555299E+03  0.49161555299E+03  0.00000000000E+00 0. -1.
         23    2    1    2    0    0 -0.40391778096E+02 -0.64064858697E+03  0.10536013124E+04  0.12370669453E+04  0.90536146636E+02 0.  0.
         13    1    3    3    0    0 -0.24453551566E+02 -0.31223930382E+03  0.60012536057E+03  0.67693560066E+03  0.00000000000E+00 0.  1.
        -13    1    3    3    0    0 -0.15938226530E+02 -0.32840928315E+03  0.45347595181E+03  0.56013134459E+03  0.00000000000E+00 0. -1.
         22    1    1    2    0    0  0.40391778096E+02  0.64064858697E+03 -0.14226839737E+03  0.65749707575E+03  0.00000000000E+00 0. -1.
<mgrwt>
<rscale>  0 0.16609772E+04</rscale>
<asrwt>0</asrwt>
<pdfrwt beam="1">  1        3 0.75633163E-01 0.16609772E+04</pdfrwt>
<pdfrwt beam="2">  1       -3 0.21583822E+00 0.16609772E+04</pdfrwt>
<totfact> 0.48055376E-01</totfact>
</mgrwt>
</event>
<event>
 6    1  0.9562506E-007  0.2566601E+04  0.7818608E-02  0.8379635E-01
         -1   -1    0    0    0  501 -0.00000000000E+00  0.00000000000E+00  0.11115093049E+04  0.11115093049E+04  0.00000000000E+00 0.  1.
          1   -1    0    0  501    0  0.00000000000E+00 -0.00000000000E+00 -0.14816430237E+04  0.14816430237E+04  0.00000000000E+00 0. -1.
         23    2    1    2    0    0  0.86245541470E+03  0.71793755684E+03  0.44035572099E+03  0.12088991691E+04  0.90886534035E+02 0.  0.
         13    1    3    3    0    0  0.51771634761E+03  0.40250682069E+03  0.21496830264E+03  0.69011109861E+03  0.00000000000E+00 0. -1.
        -13    1    3    3    0    0  0.34473906709E+03  0.31543073615E+03  0.22538741835E+03  0.51878807045E+03  0.00000000000E+00 0.  1.
         22    1    1    2    0    0 -0.86245541470E+03 -0.71793755684E+03 -0.81048943979E+03  0.13842531596E+04  0.00000000000E+00 0. -1.
<mgrwt>
<rscale>  0 0.25666009E+04</rscale>
<asrwt>0</asrwt>
<pdfrwt beam="1">  1        1 0.22794508E+00 0.25666009E+04</pdfrwt>
<pdfrwt beam="2">  1       -1 0.17100143E+00 0.25666009E+04</pdfrwt>
<totfact> 0.14396529E+00</totfact>
</mgrwt>
</event>
<event>
 6    1  0.9562506E-007  0.1519059E+04  0.7818608E-02  0.8871877E-01
          1   -1    0    0  501    0  0.00000000000E+00  0.00000000000E+00  0.16063135594E+04  0.16063135594E+04  0.00000000000E+00 0. -1.
         -1   -1    0    0    0  501 -0.00000000000E+00 -0.00000000000E+00 -0.35913578689E+03  0.35913578689E+03  0.00000000000E+00 0.  1.
         23    2    1    2    0    0 -0.92201005397E+02  0.75113565317E+03  0.61630810178E+03  0.98020707342E+03  0.90908941298E+02 0.  0.
         13    1    3    3    0    0 -0.10078703997E+03  0.49946214341E+03  0.43418588928E+03  0.66943098716E+03  0.00000000000E+00 0. -1.
        -13    1    3    3    0    0  0.85860345705E+01  0.25167350975E+03  0.18212221250E+03  0.31077608626E+03  0.00000000000E+00 0.  1.
         22    1    1    2    0    0  0.92201005397E+02 -0.75113565317E+03  0.63086967077E+03  0.98524227292E+03  0.00000000000E+00 0. -1.
<mgrwt>
<rscale>  0 0.15190585E+04</rscale>
<asrwt>0</asrwt>
<pdfrwt beam="1">  1        1 0.24712516E+00 0.15190585E+04</pdfrwt>
<pdfrwt beam="2">  1       -1 0.55251660E-01 0.15190585E+04</pdfrwt>
<totfact> 0.17670159E+01</totfact>
</mgrwt>
</event>
<event>
 6    1  0.9562506E-007  0.1861344E+04  0.7818608E-02  0.8674341E-01
          2   -1    0    0  501    0  0.00000000000E+00  0.00000000000E+00  0.16381814099E+04  0.16381814099E+04  0.00000000000E+00 0. -1.
         -2   -1    0    0    0  501 -0.00000000000E+00 -0.00000000000E+00 -0.52872652880E+03  0.52872652880E+03  0.00000000000E+00 0.  1.
         23    2    1    2    0    0 -0.81957903897E+03  0.31146723337E+03  0.20105947476E+03  0.90440888807E+03  0.93855664973E+02 0.  0.
         13    1    3    3    0    0 -0.53990869388E+03  0.19808813974E+03  0.17677014353E+03  0.60165437958E+03  0.00000000000E+00 0. -1.
        -13    1    3    3    0    0 -0.27967034510E+03  0.11337909363E+03  0.24289331231E+02  0.30275450849E+03  0.00000000000E+00 0.  1.
         22    1    1    2    0    0  0.81957903897E+03 -0.31146723337E+03  0.90839540638E+03  0.12624990507E+04  0.00000000000E+00 0. -1.
<mgrwt>
<rscale>  0 0.18613436E+04</rscale>
<asrwt>0</asrwt>
<pdfrwt beam="1">  1        2 0.25202791E+00 0.18613436E+04</pdfrwt>
<pdfrwt beam="2">  1       -2 0.81342544E-01 0.18613436E+04</pdfrwt>
<totfact> 0.13278735E+01</totfact>
</mgrwt>
</event>
<event>
 6    1  0.9562506E-007  0.2516919E+04  0.7818608E-02  0.8396983E-01
         -2   -1    0    0    0  501 -0.00000000000E+00  0.00000000000E+00  0.93406054462E+03  0.93406054462E+03  0.00000000000E+00 0.  1.
          2   -1    0    0  501    0  0.00000000000E+00 -0.00000000000E+00 -0.16955215683E+04  0.16955215683E+04  0.00000000000E+00 0. -1.
         23    2    1    2    0    0  0.87181566372E+03 -0.56736239037E+03 -0.11182117921E+04  0.15299304662E+04  0.91252318801E+02 0.  0.
         13    1    3    3    0    0  0.58145239334E+03 -0.33311587219E+03 -0.68618311587E+03  0.95911435112E+03  0.00000000000E+00 0.  1.
        -13    1    3    3    0    0  0.29036327038E+03 -0.23424651818E+03 -0.43202867627E+03  0.57081611503E+03  0.00000000000E+00 0. -1.
         22    1    1    2    0    0 -0.87181566372E+03  0.56736239037E+03  0.35675076844E+03  0.10996516468E+04  0.00000000000E+00 0.  1.
<mgrwt>
<rscale>  0 0.25169186E+04</rscale>
<asrwt>0</asrwt>
<pdfrwt beam="1">  1        2 0.26084947E+00 0.25169186E+04</pdfrwt>
<pdfrwt beam="2">  1       -2 0.14370162E+00 0.25169186E+04</pdfrwt>
<totfact> 0.29477551E+00</totfact>
</mgrwt>
</event>
<event>
 6    1  0.9562506E-007  0.4269319E+04  0.7818608E-02  0.7952316E-01
         -1   -1    0    0    0  501 -0.00000000000E+00  0.00000000000E+00  0.16768324801E+04  0.16768324801E+04  0.00000000000E+00 0.  1.
          1   -1    0    0  501    0  0.00000000000E+00 -0.00000000000E+00 -0.27174875795E+04  0.27174875795E+04  0.00000000000E+00 0. -1.
         23    2    1    2    0    0  0.50534656913E+03 -0.20586681376E+04 -0.27027047096E+03  0.21388861476E+04  0.91094288465E+02 0.  0.
         11    1    3    3    0    0  0.34078030883E+03 -0.12072203029E+04 -0.17183186256E+03  0.12661114752E+04  0.00000000000E+00 0. -1.
        -11    1    3    3    0    0  0.16456626030E+03 -0.85144783468E+03 -0.98438608400E+02  0.87277467243E+03  0.00000000000E+00 0.  1.
         22    1    1    2    0    0 -0.50534656913E+03  0.20586681376E+04 -0.77038462842E+03  0.22554339120E+04  0.00000000000E+00 0.  1.
<mgrwt>
<rscale>  0 0.42693191E+04</rscale>
<asrwt>0</asrwt>
<pdfrwt beam="1">  1        1 0.41807501E+00 0.42693191E+04</pdfrwt>
<pdfrwt beam="2">  1       -1 0.25797423E+00 0.42693191E+04</pdfrwt>
<totfact> 0.45167366E-02</totfact>
</mgrwt>
</event>
<event>
 6    1  0.9562506E-007  0.4366073E+04  0.7818608E-02  0.7934512E-01
         -1   -1    0    0    0  501 -0.00000000000E+00  0.00000000000E+00  0.20689348723E+04  0.20689348723E+04  0.00000000000E+00 0.  1.
          1   -1    0    0  501    0  0.00000000000E+00 -0.00000000000E+00 -0.23034311419E+04  0.23034311419E+04  0.00000000000E+00 0. -1.
         23    2    1    2    0    0 -0.12914361065E+04 -0.87257527923E+03 -0.16467963021E+04  0.22690861429E+04  0.87287043541E+02 0.  0.
         11    1    3    3    0    0 -0.29502184796E+02 -0.33883208658E+02 -0.35463057934E+02  0.57237044077E+02  0.00000000000E+00 0. -1.
        -11    1    3    3    0    0 -0.12619339217E+04 -0.83869207057E+03 -0.16113332442E+04  0.22118490988E+04  0.00000000000E+00 0.  1.
         22    1    1    2    0    0  0.12914361065E+04  0.87257527923E+03  0.14123000325E+04  0.21032798713E+04  0.00000000000E+00 0.  1.
<mgrwt>
<rscale>  0 0.43660733E+04</rscale>
<asrwt>0</asrwt>
<pdfrwt beam="1">  1        1 0.35437402E+00 0.43660733E+04</pdfrwt>
<pdfrwt beam="2">  1       -1 0.31829768E+00 0.43660733E+04</pdfrwt>
<totfact> 0.35309040E-02</totfact>
</mgrwt>
</event>
<event>
 6    1  0.9562506E-007  0.4425702E+04  0.7818608E-02  0.7923775E-01
          2   -1    0    0  501    0  0.00000000000E+00  0.00000000000E+00  0.29362989052E+04  0.29362989052E+04  0.00000000000E+00 0. -1.
         -2   -1    0    0    0  501 -0.00000000000E+00 -0.00000000000E+00 -0.16676465104E+04  0.16676465104E+04  0.00000000000E+00 0.  1.
         23    2    1    2    0    0 -0.20142137170E+03  0.21797666511E+04  0.30469045747E+03  0.22120474581E+04  0.91457421644E+02 0.  0.
         11    1    3    3    0    0 -0.10523962786E+03  0.14639875012E+04  0.17297865701E+03  0.14779230016E+04  0.00000000000E+00 0. -1.
        -11    1    3    3    0    0 -0.96181743845E+02  0.71577914990E+03  0.13171180047E+03  0.73412445652E+03  0.00000000000E+00 0.  1.
         22    1    1    2    0    0  0.20142137170E+03 -0.21797666511E+04  0.96396193729E+03  0.23918979574E+04  0.00000000000E+00 0. -1.
<mgrwt>
<rscale>  0 0.44257016E+04</rscale>
<asrwt>0</asrwt>
<pdfrwt beam="1">  1        2 0.45173829E+00 0.44257016E+04</pdfrwt>
<pdfrwt beam="2">  1       -2 0.25656100E+00 0.44257016E+04</pdfrwt>
<totfact> 0.85138849E-02</totfact>
</mgrwt>
</event>
<event>
 6    1  0.9562506E-007  0.4370282E+04  0.7818608E-02  0.7933749E-01
         -1   -1    0    0    0  501 -0.00000000000E+00  0.00000000000E+00  0.15856500215E+04  0.15856500215E+04  0.00000000000E+00 0.  1.
          1   -1    0    0  501    0  0.00000000000E+00 -0.00000000000E+00 -0.30112832967E+04  0.30112832967E+04  0.00000000000E+00 0. -1.
         23    2    1    2    0    0  0.10197646412E+04  0.58225281711E+03 -0.26502309090E+04  0.29002961645E+04  0.95161463407E+02 0.  0.
         11    1    3    3    0    0  0.99569589623E+03  0.56645566444E+03 -0.25401209314E+04  0.27864846463E+04  0.00000000000E+00 0. -1.
        -11    1    3    3    0    0  0.24068745001E+02  0.15797152673E+02 -0.11010997758E+03  0.11381151823E+03  0.00000000000E+00 0.  1.
         22    1    1    2    0    0 -0.10197646412E+04 -0.58225281711E+03  0.12245976338E+04  0.16966371537E+04  0.00000000000E+00 0.  1.
<mgrwt>
<rscale>  0 0.43702821E+04</rscale>
<asrwt>0</asrwt>
<pdfrwt beam="1">  1        1 0.46327435E+00 0.43702821E+04</pdfrwt>
<pdfrwt beam="2">  1       -1 0.24394616E+00 0.43702821E+04</pdfrwt>
<totfact> 0.34006542E-02</totfact>
</mgrwt>
</event>
<event>
 6    1  0.9562506E-007  0.3016195E+04  0.7818608E-02  0.8239121E-01
         -2   -1    0    0    0  501 -0.00000000000E+00  0.00000000000E+00  0.13679711139E+04  0.13679711139E+04  0.00000000000E+00 0.  1.
          2   -1    0    0  501    0  0.00000000000E+00 -0.00000000000E+00 -0.16625778730E+04  0.16625778730E+04  0.00000000000E+00 0. -1.
         23    2    1    2    0    0 -0.10838817667E+04 -0.10465109892E+04 -0.17318038279E+03  0.15190168836E+04  0.86231739794E+02 0.  0.
         11    1    3    3    0    0 -0.77055712585E+03 -0.77548344451E+03 -0.94172732478E+02  0.10972699579E+04  0.00000000000E+00 0. -1.
        -11    1    3    3    0    0 -0.31332464083E+03 -0.27102754468E+03 -0.79007650316E+02  0.42174692570E+03  0.00000000000E+00 0.  1.
         22    1    1    2    0    0  0.10838817667E+04  0.10465109892E+04 -0.12142637632E+03  0.15115321034E+04  0.00000000000E+00 0. -1.
<mgrwt>
<rscale>  0 0.30161953E+04</rscale>
<asrwt>0</asrwt>
<pdfrwt beam="1">  1        2 0.25578121E+00 0.30161953E+04</pdfrwt>
<pdfrwt beam="2">  1       -2 0.21045709E+00 0.30161953E+04</pdfrwt>
<totfact> 0.10005293E+00</totfact>
</mgrwt>
</event>
<event>
 6    1  0.9562506E-007  0.3360209E+04  0.7818608E-02  0.8147742E-01
         -2   -1    0    0    0  501 -0.00000000000E+00  0.00000000000E+00  0.16439612554E+04  0.16439612554E+04  0.00000000000E+00 0.  1.
          2   -1    0    0  501    0  0.00000000000E+00 -0.00000000000E+00 -0.17170422440E+04  0.17170422440E+04  0.00000000000E+00 0. -1.
         23    2    1    2    0    0 -0.65759175732E+03 -0.14288503304E+04 -0.62368935688E+03  0.16945072464E+04  0.91248058596E+02 0.  0.
         11    1    3    3    0    0 -0.14199529909E+03 -0.30851972325E+03 -0.17567545447E+03  0.38237278918E+03  0.00000000000E+00 0. -1.
        -11    1    3    3    0    0 -0.51559645823E+03 -0.11203306071E+04 -0.44801390241E+03  0.13121344572E+04  0.00000000000E+00 0.  1.
         22    1    1    2    0    0  0.65759175732E+03  0.14288503304E+04  0.55060836829E+03  0.16664962530E+04  0.00000000000E+00 0.  1.
<mgrwt>
<rscale>  0 0.33602089E+04</rscale>
<asrwt>0</asrwt>
<pdfrwt beam="1">  1        2 0.26416034E+00 0.33602089E+04</pdfrwt>
<pdfrwt beam="2">  1       -2 0.25291712E+00 0.33602089E+04</pdfrwt>
<totfact> 0.49174888E-01</totfact>
</mgrwt>
</event>
<event>
 6    1  0.9562506E-007  0.3658664E+04  0.7818608E-02  0.8077185E-01
          2   -1    0    0  501    0  0.00000000000E+00  0.00000000000E+00  0.21632703282E+04  0.21632703282E+04  0.00000000000E+00 0. -1.
         -2   -1    0    0    0  501 -0.00000000000E+00 -0.00000000000E+00 -0.15469430823E+04  0.15469430823E+04  0.00000000000E+00 0.  1.
         23    2    1    2    0    0  0.17084719793E+04 -0.52500200252E+03 -0.76146876483E+02  0.17934390323E+04  0.12697089874E+03 0.  0.
         13    1    3    3    0    0  0.47160011698E+03 -0.12378991050E+03 -0.73735740206E+02  0.49312024057E+03  0.00000000000E+00 0.  1.
        -13    1    3    3    0    0  0.12368718623E+04 -0.40121209202E+03 -0.24111362767E+01  0.13003187917E+04  0.00000000000E+00 0. -1.
         22    1    1    2    0    0 -0.17084719793E+04  0.52500200252E+03  0.69247412242E+03  0.19167743782E+04  0.00000000000E+00 0. -1.
<mgrwt>
<rscale>  0 0.36586643E+04</rscale>
<asrwt>0</asrwt>
<pdfrwt beam="1">  1        2 0.33281082E+00 0.36586643E+04</pdfrwt>
<pdfrwt beam="2">  1       -2 0.23799124E+00 0.36586643E+04</pdfrwt>
<totfact> 0.33486719E-01</totfact>
</mgrwt>
</event>
<event>
 6    1  0.9562506E-007  0.2582849E+04  0.7818608E-02  0.8374050E-01
         -2   -1    0    0    0  501 -0.00000000000E+00  0.00000000000E+00  0.64013218744E+03  0.64013218744E+03  0.00000000000E+00 0.  1.
          2   -1    0    0  501    0  0.00000000000E+00 -0.00000000000E+00 -0.26053634191E+04  0.26053634191E+04  0.00000000000E+00 0. -1.
         23    2    1    2    0    0  0.71192042620E+03  0.10865781627E+03  0.36075738445E+03  0.81057050367E+03  0.90782358981E+02 0.  0.
         11    1    3    3    0    0  0.19734129168E+03  0.12545702255E+02  0.14086482587E+03  0.24278360573E+03  0.00000000000E+00 0.  1.
        -11    1    3    3    0    0  0.51457913452E+03  0.96112114020E+02  0.21989255859E+03  0.56778689793E+03  0.00000000000E+00 0. -1.
         22    1    1    2    0    0 -0.71192042620E+03 -0.10865781627E+03 -0.23259886162E+04  0.24349251029E+04  0.00000000000E+00 0. -1.
<mgrwt>
<rscale>  0 0.25828488E+04</rscale>
<asrwt>0</asrwt>
<pdfrwt beam="1">  1        2 0.40082515E+00 0.25828488E+04</pdfrwt>
<pdfrwt beam="2">  1       -2 0.98481874E-01 0.25828488E+04</pdfrwt>
<totfact> 0.22915281E+00</totfact>
</mgrwt>
</event>
<event>
 6    1  0.9562506E-007  0.1635267E+04  0.7818608E-02  0.8799170E-01
          1   -1    0    0  501    0  0.00000000000E+00  0.00000000000E+00  0.69263180582E+03  0.69263180582E+03  0.00000000000E+00 0. -1.
         -1   -1    0    0    0  501 -0.00000000000E+00 -0.00000000000E+00 -0.96519456385E+03  0.96519456385E+03  0.00000000000E+00 0.  1.
         23    2    1    2    0    0  0.75723202916E+03 -0.27897762683E+03 -0.20364673839E+02  0.81234855451E+03  0.90920799709E+02 0.  0.
         11    1    3    3    0    0  0.36378678070E+03 -0.15480821311E+03 -0.51034250906E+02  0.39863629968E+03  0.00000000000E+00 0.  1.
        -11    1    3    3    0    0  0.39344524846E+03 -0.12416941372E+03  0.30669577067E+02  0.41371225483E+03  0.00000000000E+00 0. -1.
         22    1    1    2    0    0 -0.75723202916E+03  0.27897762683E+03 -0.25219808419E+03  0.84547781516E+03  0.00000000000E+00 0.  1.
<mgrwt>
<rscale>  0 0.16352669E+04</rscale>
<asrwt>0</asrwt>
<pdfrwt beam="1">  1        1 0.10655874E+00 0.16352669E+04</pdfrwt>
<pdfrwt beam="2">  1       -1 0.14849147E+00 0.16352669E+04</pdfrwt>
<totfact> 0.94978262E+00</totfact>
</mgrwt>
</event>
<event>
 6    1  0.1186361E-006  0.2231530E+04  0.7818608E-02  0.8505418E-01
          2   -1    0    0  501    0  0.00000000000E+00  0.00000000000E+00  0.17537597527E+04  0.17537597527E+04  0.00000000000E+00 0. -1.
         -2   -1    0    0    0  501 -0.00000000000E+00 -0.00000000000E+00 -0.70986443700E+03  0.70986443700E+03  0.00000000000E+00 0.  1.
         23    2    1    2    0    0  0.37101153286E+03 -0.29841772861E+03  0.16345707873E+04  0.17049409811E+04  0.91101000690E+02 0.  0.
         11    1    3    3    0    0  0.13621225814E+03 -0.56398916881E+02  0.51652508240E+03  0.53715247169E+03  0.00000000000E+00 0.  1.
        -11    1    3    3    0    0  0.23479927472E+03 -0.24201881173E+03  0.11180457049E+04  0.11677885095E+04  0.00000000000E+00 0. -1.
         22    1    1    2    0    0 -0.37101153286E+03  0.29841772861E+03 -0.59067547156E+03  0.75868320857E+03  0.00000000000E+00 0.  1.
<mgrwt>
<rscale>  0 0.22315301E+04</rscale>
<asrwt>0</asrwt>
<pdfrwt beam="1">  1        2 0.26980919E+00 0.22315301E+04</pdfrwt>
<pdfrwt beam="2">  1       -2 0.10920991E+00 0.22315301E+04</pdfrwt>
<totfact> 0.55803607E+00</totfact>
</mgrwt>
</event>
<event>
 6    1  0.9562506E-007  0.3175847E+04  0.7818608E-02  0.8195225E-01
         -1   -1    0    0    0  501 -0.00000000000E+00  0.00000000000E+00  0.16950674019E+04  0.16950674019E+04  0.00000000000E+00 0.  1.
          1   -1    0    0  501    0  0.00000000000E+00 -0.00000000000E+00 -0.14875521723E+04  0.14875521723E+04  0.00000000000E+00 0. -1.
         23    2    1    2    0    0 -0.67548575054E+03  0.67795118260E+03 -0.11644035463E+04  0.15098793275E+04  0.89449202733E+02 0.  0.
         13    1    3    3    0    0 -0.19082230284E+03  0.18439999437E+03 -0.38751766833E+03  0.46966632034E+03  0.00000000000E+00 0.  1.
        -13    1    3    3    0    0 -0.48466344770E+03  0.49355118822E+03 -0.77688587795E+03  0.10402130072E+04  0.00000000000E+00 0. -1.
         22    1    1    2    0    0  0.67548575054E+03 -0.67795118260E+03  0.13719187759E+04  0.16727402467E+04  0.00000000000E+00 0.  1.
<mgrwt>
<rscale>  0 0.31758471E+04</rscale>
<asrwt>0</asrwt>
<pdfrwt beam="1">  1        1 0.22885418E+00 0.31758471E+04</pdfrwt>
<pdfrwt beam="2">  1       -1 0.26077960E+00 0.31758471E+04</pdfrwt>
<totfact> 0.33178522E-01</totfact>
</mgrwt>
</event>
<event>
 6    1  0.9562506E-007  0.2338134E+04  0.7818608E-02  0.8463036E-01
         -1   -1    0    0    0  501 -0.00000000000E+00  0.00000000000E+00  0.24012594719E+04  0.24012594719E+04  0.00000000000E+00 0.  1.
          1   -1    0    0  501    0  0.00000000000E+00 -0.00000000000E+00 -0.56916678960E+03  0.56916678960E+03  0.00000000000E+00 0. -1.
         23    2    1    2    0    0  0.59168096455E+03  0.52191842070E+02 -0.35908135521E+03  0.70017208744E+03  0.92147599987E+02 0.  0.
         11    1    3    3    0    0  0.50776141487E+03  0.28760395655E+02 -0.27097824525E+03  0.57626211414E+03  0.00000000000E+00 0. -1.
        -11    1    3    3    0    0  0.83919549673E+02  0.23431446416E+02 -0.88103109963E+02  0.12390997330E+03  0.00000000000E+00 0.  1.
         22    1    1    2    0    0 -0.59168096455E+03 -0.52191842070E+02  0.21911740375E+04  0.22702541741E+04  0.00000000000E+00 0.  1.
<mgrwt>
<rscale>  0 0.23381336E+04</rscale>
<asrwt>0</asrwt>
<pdfrwt beam="1">  1        1 0.87564123E-01 0.23381336E+04</pdfrwt>
<pdfrwt beam="2">  1       -1 0.36942453E+00 0.23381336E+04</pdfrwt>
<totfact> 0.38397887E-01</totfact>
</mgrwt>
</event>
<event>
 6    1  0.9562506E-007  0.1377796E+04  0.7818608E-02  0.8970050E-01
         -2   -1    0    0    0  501 -0.00000000000E+00  0.00000000000E+00  0.89732697669E+03  0.89732697669E+03  0.00000000000E+00 0.  1.
          2   -1    0    0  501    0  0.00000000000E+00 -0.00000000000E+00 -0.52888234685E+03  0.52888234685E+03  0.00000000000E+00 0. -1.
         23    2    1    2    0    0 -0.31134091727E+03 -0.43262555451E+03  0.63190341103E+03  0.83164345960E+03  0.90724229683E+02 0.  0.
         11    1    3    3    0    0 -0.96213914882E+02 -0.17146608587E+03  0.29213330152E+03  0.35213577194E+03  0.00000000000E+00 0. -1.
        -11    1    3    3    0    0 -0.21512700239E+03 -0.26115946864E+03  0.33977010951E+03  0.47950768767E+03  0.00000000000E+00 0.  1.
         22    1    1    2    0    0  0.31134091727E+03  0.43262555451E+03 -0.26345878119E+03  0.59456586394E+03  0.00000000000E+00 0. -1.
<mgrwt>
<rscale>  0 0.13777959E+04</rscale>
<asrwt>0</asrwt>
<pdfrwt beam="1">  1        2 0.81366515E-01 0.13777959E+04</pdfrwt>
<pdfrwt beam="2">  1       -2 0.13805030E+00 0.13777959E+04</pdfrwt>
<totfact> 0.20923088E+01</totfact>
</mgrwt>
</event>
<event>
 6    1  0.9562506E-007  0.1790212E+04  0.7818608E-02  0.8711522E-01
         -2   -1    0    0    0  501 -0.00000000000E+00  0.00000000000E+00  0.47883037599E+03  0.47883037599E+03  0.00000000000E+00 0.  1.
          2   -1    0    0  501    0  0.00000000000E+00 -0.00000000000E+00 -0.16732744206E+04  0.16732744206E+04  0.00000000000E+00 0. -1.
         23    2    1    2    0    0 -0.20343071144E+03  0.73737303670E+03 -0.45719116397E+02  0.77200624566E+03  0.93810213315E+02 0.  0.
         11    1    3    3    0    0 -0.45670581080E+02  0.27483693054E+03 -0.51221223166E+02  0.28327505020E+03  0.00000000000E+00 0. -1.
        -11    1    3    3    0    0 -0.15776013036E+03  0.46253610616E+03  0.55021067687E+01  0.48873119546E+03  0.00000000000E+00 0.  1.
         22    1    1    2    0    0  0.20343071144E+03 -0.73737303670E+03 -0.11487249282E+04  0.13800985510E+04  0.00000000000E+00 0. -1.
<mgrwt>
<rscale>  0 0.17902119E+04</rscale>
<asrwt>0</asrwt>
<pdfrwt beam="1">  1        2 0.25742683E+00 0.17902119E+04</pdfrwt>
<pdfrwt beam="2">  1       -2 0.73666214E-01 0.17902119E+04</pdfrwt>
<totfact> 0.15930793E+01</totfact>
</mgrwt>
</event>
<event>
 6    1  0.9562506E-007  0.2194477E+03  0.7818608E-02  0.1134295E+00
         -1   -1    0    0    0  501 -0.00000000000E+00  0.00000000000E+00  0.22779741654E+03  0.22779741654E+03  0.00000000000E+00 0.  1.
          1   -1    0    0  501    0  0.00000000000E+00 -0.00000000000E+00 -0.52851010908E+02  0.52851010908E+02  0.00000000000E+00 0. -1.
         23    2    1    2    0    0 -0.12423034860E+02  0.42673970895E+02  0.20385057968E+03  0.22763096934E+03  0.91024171407E+02 0.  0.
         11    1    3    3    0    0  0.32034197644E+01  0.85998176745E+01  0.18579732860E+03  0.18602383202E+03  0.00000000000E+00 0.  1.
        -11    1    3    3    0    0 -0.15626454625E+02  0.34074153221E+02  0.18053251076E+02  0.41607137324E+02  0.00000000000E+00 0. -1.
         22    1    1    2    0    0  0.12423034860E+02 -0.42673970895E+02 -0.28904174046E+02  0.53017458109E+02  0.00000000000E+00 0. -1.
<mgrwt>
<rscale>  0 0.21944770E+03</rscale>
<asrwt>0</asrwt>
<pdfrwt beam="1">  1        1 0.81309248E-02 0.21944770E+03</pdfrwt>
<pdfrwt beam="2">  1       -1 0.35045756E-01 0.21944770E+03</pdfrwt>
<totfact> 0.65036691E+03</totfact>
</mgrwt>
</event>
<event>
 6    1  0.9562506E-007  0.4971797E+04  0.7818608E-02  0.7832873E-01
          1   -1    0    0  501    0  0.00000000000E+00  0.00000000000E+00  0.33539355061E+04  0.33539355061E+04  0.00000000000E+00 0. -1.
         -1   -1    0    0    0  501 -0.00000000000E+00 -0.00000000000E+00 -0.18425196208E+04  0.18425196208E+04  0.00000000000E+00 0.  1.
         23    2    1    2    0    0 -0.21682913040E+04  0.28939819237E+03 -0.47641345855E+03  0.22406635252E+04  0.91459044283E+02 0.  0.
         11    1    3    3    0    0 -0.19092248891E+04  0.22652307193E+03 -0.40781446033E+03  0.19653918218E+04  0.00000000000E+00 0. -1.
        -11    1    3    3    0    0 -0.25906641488E+03  0.62875120441E+02 -0.68598998219E+02  0.27527170331E+03  0.00000000000E+00 0.  1.
         22    1    1    2    0    0  0.21682913040E+04 -0.28939819237E+03  0.19878293439E+04  0.29557916018E+04  0.00000000000E+00 0. -1.
<mgrwt>
<rscale>  0 0.49717973E+04</rscale>
<asrwt>0</asrwt>
<pdfrwt beam="1">  1        1 0.51599008E+00 0.49717973E+04</pdfrwt>
<pdfrwt beam="2">  1       -1 0.28346456E+00 0.49717973E+04</pdfrwt>
<totfact> 0.99239082E-03</totfact>
</mgrwt>
</event>
<event>
 6    1  0.9562506E-007  0.2441048E+04  0.7818608E-02  0.8424294E-01
         -1   -1    0    0    0  501 -0.00000000000E+00  0.00000000000E+00  0.98547650293E+03  0.98547650293E+03  0.00000000000E+00 0.  1.
          1   -1    0    0  501    0  0.00000000000E+00 -0.00000000000E+00 -0.15116328457E+04  0.15116328457E+04  0.00000000000E+00 0. -1.
         23    2    1    2    0    0 -0.84960736286E+02 -0.12148728012E+04 -0.21545421199E+03  0.12402600881E+04  0.93221879369E+02 0.  0.
         11    1    3    3    0    0 -0.82210486778E+02 -0.65735500633E+03 -0.14657103210E+03  0.67849630502E+03  0.00000000000E+00 0.  1.
        -11    1    3    3    0    0 -0.27502495082E+01 -0.55751779486E+03 -0.68883179883E+02  0.56176378303E+03  0.00000000000E+00 0. -1.
         22    1    1    2    0    0  0.84960736286E+02  0.12148728012E+04 -0.31070213082E+03  0.12568492606E+04  0.00000000000E+00 0.  1.
<mgrwt>
<rscale>  0 0.24410478E+04</rscale>
<asrwt>0</asrwt>
<pdfrwt beam="1">  1        1 0.23255890E+00 0.24410478E+04</pdfrwt>
<pdfrwt beam="2">  1       -1 0.15161177E+00 0.24410478E+04</pdfrwt>
<totfact> 0.19435801E+00</totfact>
</mgrwt>
</event>
<event>
 6    1  0.9562506E-007  0.5285847E+03  0.7818608E-02  0.1006576E+00
          2   -1    0    0  501    0  0.00000000000E+00  0.00000000000E+00  0.44234713406E+03  0.44234713406E+03  0.00000000000E+00 0. -1.
         -2   -1    0    0    0  501 -0.00000000000E+00 -0.00000000000E+00 -0.15790865346E+03  0.15790865346E+03  0.00000000000E+00 0.  1.
         23    2    1    2    0    0  0.58079829896E+02  0.18278456557E+03  0.34034184273E+03  0.40048429319E+03  0.88156877953E+02 0.  0.
         13    1    3    3    0    0  0.37419300771E+02  0.13965566210E+03  0.31446481049E+03  0.34610984537E+03  0.00000000000E+00 0.  1.
        -13    1    3    3    0    0  0.20660529125E+02  0.43128903470E+02  0.25877032237E+02  0.54374447819E+02  0.00000000000E+00 0. -1.
         22    1    1    2    0    0 -0.58079829896E+02 -0.18278456557E+03 -0.55903362118E+02  0.19977149433E+03  0.00000000000E+00 0.  1.
<mgrwt>
<rscale>  0 0.52858468E+03</rscale>
<asrwt>0</asrwt>
<pdfrwt beam="1">  1        2 0.68053405E-01 0.52858468E+03</pdfrwt>
<pdfrwt beam="2">  1       -2 0.24293639E-01 0.52858468E+03</pdfrwt>
<totfact> 0.10726606E+03</totfact>
</mgrwt>
</event>
<event>
 6    1  0.9562506E-007  0.1526623E+04  0.7818608E-02  0.8866940E-01
          2   -1    0    0  501    0  0.00000000000E+00  0.00000000000E+00  0.78483357815E+03  0.78483357815E+03  0.00000000000E+00 0. -1.
         -2   -1    0    0    0  501 -0.00000000000E+00 -0.00000000000E+00 -0.74237937986E+03  0.74237937986E+03  0.00000000000E+00 0.  1.
         23    2    1    2    0    0  0.41857155769E+03  0.45152174381E+03 -0.42530232006E+03  0.75399229449E+03  0.92456923323E+02 0.  0.
         13    1    3    3    0    0  0.20607624486E+03  0.23459839825E+03 -0.16049924524E+03  0.35108949697E+03  0.00000000000E+00 0. -1.
        -13    1    3    3    0    0  0.21249531283E+03  0.21692334556E+03 -0.26480307482E+03  0.40290279753E+03  0.00000000000E+00 0.  1.
         22    1    1    2    0    0 -0.41857155769E+03 -0.45152174381E+03  0.46775651834E+03  0.77322066352E+03  0.00000000000E+00 0. -1.
<mgrwt>
<rscale>  0 0.15266228E+04</rscale>
<asrwt>0</asrwt>
<pdfrwt beam="1">  1        2 0.12074363E+00 0.15266228E+04</pdfrwt>
<pdfrwt beam="2">  1       -2 0.11421221E+00 0.15266228E+04</pdfrwt>
<totfact> 0.20430131E+01</totfact>
</mgrwt>
</event>
<event>
 6    1  0.9562506E-007  0.1251850E+04  0.7818608E-02  0.9068645E-01
          2   -1    0    0  501    0  0.00000000000E+00  0.00000000000E+00  0.38056271277E+04  0.38056271277E+04  0.00000000000E+00 0. -1.
         -2   -1    0    0    0  501 -0.00000000000E+00 -0.00000000000E+00 -0.10294812871E+03  0.10294812871E+03  0.00000000000E+00 0.  1.
         23    2    1    2    0    0  0.51716235133E+03  0.46931703123E+02  0.78934187187E+03  0.94931982663E+03  0.92130668906E+02 0.  0.
         13    1    3    3    0    0  0.28475007586E+03  0.40619228383E+02  0.51345248695E+03  0.58852866011E+03  0.00000000000E+00 0. -1.
        -13    1    3    3    0    0  0.23241227547E+03  0.63124747401E+01  0.27588938492E+03  0.36079116652E+03  0.00000000000E+00 0.  1.
         22    1    1    2    0    0 -0.51716235133E+03 -0.46931703123E+02  0.29133371272E+04  0.29592554298E+04  0.00000000000E+00 0. -1.
<mgrwt>
<rscale>  0 0.12518501E+04</rscale>
<asrwt>0</asrwt>
<pdfrwt beam="1">  1        2 0.58548099E+00 0.12518501E+04</pdfrwt>
<pdfrwt beam="2">  1       -2 0.15838177E-01 0.12518501E+04</pdfrwt>
<totfact> 0.15790164E+01</totfact>
</mgrwt>
</event>
<event>
 6    1  0.9562506E-007  0.4290071E+04  0.7818608E-02  0.7948457E-01
         -1   -1    0    0    0  501 -0.00000000000E+00  0.00000000000E+00  0.19417609704E+04  0.19417609704E+04  0.00000000000E+00 0.  1.
          1   -1    0    0  501    0  0.00000000000E+00 -0.00000000000E+00 -0.23695904349E+04  0.23695904349E+04  0.00000000000E+00 0. -1.
         23    2    1    2    0    0 -0.12932108149E+04  0.17080751946E+04 -0.29984451412E+03  0.21651232652E+04  0.89089497244E+02 0.  0.
         11    1    3    3    0    0 -0.26260976201E+03  0.40362306851E+03 -0.81905217154E+02  0.48845054318E+03  0.00000000000E+00 0.  1.
        -11    1    3    3    0    0 -0.10306010529E+04  0.13044521261E+04 -0.21793929696E+03  0.16766727220E+04  0.00000000000E+00 0. -1.
         22    1    1    2    0    0  0.12932108149E+04 -0.17080751946E+04 -0.12798495042E+03  0.21462281402E+04  0.00000000000E+00 0. -1.
<mgrwt>
<rscale>  0 0.42900714E+04</rscale>
<asrwt>0</asrwt>
<pdfrwt beam="1">  1        1 0.36455238E+00 0.42900714E+04</pdfrwt>
<pdfrwt beam="2">  1       -1 0.29873245E+00 0.42900714E+04</pdfrwt>
<totfact> 0.42891483E-02</totfact>
</mgrwt>
</event>
<event>
 6    1  0.1001469E-006  0.3946439E+04  0.7818608E-02  0.8015440E-01
         -1   -1    0    0    0  501 -0.00000000000E+00  0.00000000000E+00  0.15924926519E+04  0.15924926519E+04  0.00000000000E+00 0.  1.
          1   -1    0    0  501    0  0.00000000000E+00 -0.00000000000E+00 -0.24449686213E+04  0.24449686213E+04  0.00000000000E+00 0. -1.
         23    2    1    2    0    0 -0.73200103940E+03 -0.46589994605E+03  0.13854405103E+04  0.16372199412E+04  0.90307511943E+02 0.  0.
         13    1    3    3    0    0 -0.36574764783E+03 -0.21300725949E+03  0.75418178738E+03  0.86483154597E+03  0.00000000000E+00 0.  1.
        -13    1    3    3    0    0 -0.36625339156E+03 -0.25289268656E+03  0.63125872296E+03  0.77238839522E+03  0.00000000000E+00 0. -1.
         22    1    1    2    0    0  0.73200103940E+03  0.46589994605E+03 -0.22379164798E+04  0.24002413320E+04  0.00000000000E+00 0. -1.
<mgrwt>
<rscale>  0 0.39464387E+04</rscale>
<asrwt>0</asrwt>
<pdfrwt beam="1">  1        1 0.37614902E+00 0.39464387E+04</pdfrwt>
<pdfrwt beam="2">  1       -1 0.24499887E+00 0.39464387E+04</pdfrwt>
<totfact> 0.87406839E-02</totfact>
</mgrwt>
</event>
<event>
 6    1  0.9562506E-007  0.7663556E+03  0.7818608E-02  0.9610035E-01
         -1   -1    0    0    0  501 -0.00000000000E+00  0.00000000000E+00  0.18200914704E+03  0.18200914704E+03  0.00000000000E+00 0.  1.
          1   -1    0    0  501    0  0.00000000000E+00 -0.00000000000E+00 -0.80669142901E+03  0.80669142901E+03  0.00000000000E+00 0. -1.
         23    2    1    2    0    0 -0.17069850978E+03 -0.64202376003E+02  0.10691293044E+03  0.23471683541E+03  0.10198868468E+03 0.  0.
         13    1    3    3    0    0 -0.15579301398E+03 -0.37633704511E+02  0.46216886605E+02  0.16680455487E+03  0.00000000000E+00 0. -1.
        -13    1    3    3    0    0 -0.14905495807E+02 -0.26568671493E+02  0.60696043836E+02  0.67912280535E+02  0.00000000000E+00 0.  1.
         22    1    1    2    0    0  0.17069850978E+03  0.64202376003E+02 -0.73159521241E+03  0.75398374064E+03  0.00000000000E+00 0. -1.
<mgrwt>
<rscale>  0 0.76635558E+03</rscale>
<asrwt>0</asrwt>
<pdfrwt beam="1">  1        1 0.12410637E+00 0.76635558E+03</pdfrwt>
<pdfrwt beam="2">  1       -1 0.28001408E-01 0.76635558E+03</pdfrwt>
<totfact> 0.25374214E+02</totfact>
</mgrwt>
</event>
<event>
 6    1  0.9562506E-007  0.1498236E+04  0.7818608E-02  0.8885627E-01
          2   -1    0    0  501    0  0.00000000000E+00  0.00000000000E+00  0.16566830122E+04  0.16566830122E+04  0.00000000000E+00 0. -1.
         -2   -1    0    0    0  501 -0.00000000000E+00 -0.00000000000E+00 -0.33873590083E+03  0.33873590083E+03  0.00000000000E+00 0.  1.
         23    2    1    2    0    0  0.36323890874E+03 -0.25694439451E+03 -0.13662565272E+03  0.47431903047E+03  0.91373119624E+02 0.  0.
         11    1    3    3    0    0  0.31019207468E+03 -0.18190753817E+03 -0.87375535551E+02  0.37005940043E+03  0.00000000000E+00 0. -1.
        -11    1    3    3    0    0  0.53046834058E+02 -0.75036856340E+02 -0.49250117170E+02  0.10425963003E+03  0.00000000000E+00 0.  1.
         22    1    1    2    0    0 -0.36323890874E+03  0.25694439451E+03  0.14545727641E+04  0.15210998826E+04  0.00000000000E+00 0. -1.
<mgrwt>
<rscale>  0 0.14982363E+04</rscale>
<asrwt>0</asrwt>
<pdfrwt beam="1">  1        2 0.25487430E+00 0.14982363E+04</pdfrwt>
<pdfrwt beam="2">  1       -2 0.52113217E-01 0.14982363E+04</pdfrwt>
<totfact> 0.34819950E+01</totfact>
</mgrwt>
</event>
<event>
 6    1  0.9562506E-007  0.2206440E+04  0.7818608E-02  0.8515752E-01
          1   -1    0    0  501    0  0.00000000000E+00  0.00000000000E+00  0.92349485429E+03  0.92349485429E+03  0.00000000000E+00 0. -1.
         -1   -1    0    0    0  501 -0.00000000000E+00 -0.00000000000E+00 -0.13179226804E+04  0.13179226804E+04  0.00000000000E+00 0.  1.
         23    2    1    2    0    0 -0.94157775073E+02  0.21363267362E+03  0.89552966702E+03  0.93050375417E+03  0.96743197027E+02 0.  0.
         13    1    3    3    0    0 -0.81172533567E+02  0.13275881451E+03  0.72248374219E+03  0.73905117602E+03  0.00000000000E+00 0.  1.
        -13    1    3    3    0    0 -0.12985241506E+02  0.80873859105E+02  0.17304592483E+03  0.19145257815E+03  0.00000000000E+00 0. -1.
         22    1    1    2    0    0  0.94157775073E+02 -0.21363267362E+03 -0.12899574932E+04  0.13109137806E+04  0.00000000000E+00 0.  1.
<mgrwt>
<rscale>  0 0.22064404E+04</rscale>
<asrwt>0</asrwt>
<pdfrwt beam="1">  1        1 0.14207613E+00 0.22064404E+04</pdfrwt>
<pdfrwt beam="2">  1       -1 0.20275733E+00 0.22064404E+04</pdfrwt>
<totfact> 0.22854040E+00</totfact>
</mgrwt>
</event>
<event>
 6    1  0.9562506E-007  0.2856423E+04  0.7818608E-02  0.8285962E-01
          1   -1    0    0  501    0  0.00000000000E+00  0.00000000000E+00  0.21917409167E+04  0.21917409167E+04  0.00000000000E+00 0. -1.
         -1   -1    0    0    0  501 -0.00000000000E+00 -0.00000000000E+00 -0.93067038963E+03  0.93067038963E+03  0.00000000000E+00 0.  1.
         23    2    1    2    0    0  0.46942463831E+02 -0.12633425678E+04  0.13543433547E+04  0.18547607793E+04  0.87484784795E+02 0.  0.
         11    1    3    3    0    0  0.36208094818E+02 -0.69172527433E+03  0.80351057793E+03  0.10608600898E+04  0.00000000000E+00 0.  1.
        -11    1    3    3    0    0  0.10734369012E+02 -0.57161729342E+03  0.55083277680E+03  0.79390068952E+03  0.00000000000E+00 0. -1.
         22    1    1    2    0    0 -0.46942463831E+02  0.12633425678E+04 -0.93272827612E+02  0.12676505271E+04  0.00000000000E+00 0.  1.
<mgrwt>
<rscale>  0 0.28564232E+04</rscale>
<asrwt>0</asrwt>
<pdfrwt beam="1">  1        1 0.33719091E+00 0.28564232E+04</pdfrwt>
<pdfrwt beam="2">  1       -1 0.14318006E+00 0.28564232E+04</pdfrwt>
<totfact> 0.75110718E-01</totfact>
</mgrwt>
</event>
<event>
 6    1  0.9562506E-007  0.2213836E+04  0.7818608E-02  0.8512691E-01
         -1   -1    0    0    0  501 -0.00000000000E+00  0.00000000000E+00  0.91042294223E+03  0.91042294223E+03  0.00000000000E+00 0.  1.
          1   -1    0    0  501    0  0.00000000000E+00 -0.00000000000E+00 -0.13458227927E+04  0.13458227927E+04  0.00000000000E+00 0. -1.
         23    2    1    2    0    0  0.89118113959E+03 -0.62136403565E+03 -0.11855405821E+02  0.10901895678E+04  0.89864646755E+02 0.  0.
         11    1    3    3    0    0  0.79512902616E+03 -0.51842356675E+03 -0.47804115115E+01  0.94921863400E+03  0.00000000000E+00 0. -1.
        -11    1    3    3    0    0  0.96052113427E+02 -0.10294046890E+03 -0.70749943090E+01  0.14097093379E+03  0.00000000000E+00 0.  1.
         22    1    1    2    0    0 -0.89118113959E+03  0.62136403565E+03 -0.42354444467E+03  0.11660561672E+04  0.00000000000E+00 0. -1.
<mgrwt>
<rscale>  0 0.22138364E+04</rscale>
<asrwt>0</asrwt>
<pdfrwt beam="1">  1        1 0.20704966E+00 0.22138364E+04</pdfrwt>
<pdfrwt beam="2">  1       -1 0.14006507E+00 0.22138364E+04</pdfrwt>
<totfact> 0.31989383E+00</totfact>
</mgrwt>
</event>
<event>
 6    1  0.9562506E-007  0.2897306E+04  0.7818608E-02  0.8273679E-01
         -2   -1    0    0    0  501 -0.00000000000E+00  0.00000000000E+00  0.58039843035E+03  0.58039843035E+03  0.00000000000E+00 0.  1.
          2   -1    0    0  501    0  0.00000000000E+00 -0.00000000000E+00 -0.36157850175E+04  0.36157850175E+04  0.00000000000E+00 0. -1.
         23    2    1    2    0    0  0.30663347323E+02 -0.13920793085E+04 -0.20905510940E+04  0.25134656607E+04  0.90998399629E+02 0.  0.
         13    1    3    3    0    0  0.12170154103E+02 -0.62077155711E+03 -0.10141053608E+04  0.11890816295E+04  0.00000000000E+00 0. -1.
        -13    1    3    3    0    0  0.18493193220E+02 -0.77130775141E+03 -0.10764457332E+04  0.13243840312E+04  0.00000000000E+00 0.  1.
         22    1    1    2    0    0 -0.30663347323E+02  0.13920793085E+04 -0.94483549311E+03  0.16827177871E+04  0.00000000000E+00 0.  1.
<mgrwt>
<rscale>  0 0.28973063E+04</rscale>
<asrwt>0</asrwt>
<pdfrwt beam="1">  1        2 0.55627461E+00 0.28973063E+04</pdfrwt>
<pdfrwt beam="2">  1       -2 0.89292068E-01 0.28973063E+04</pdfrwt>
<totfact> 0.62458288E-01</totfact>
</mgrwt>
</event>
<event>
 6    1  0.9562506E-007  0.1935109E+04  0.7818608E-02  0.8637575E-01
          1   -1    0    0  501    0  0.00000000000E+00  0.00000000000E+00  0.98102767245E+03  0.98102767245E+03  0.00000000000E+00 0. -1.
         -1   -1    0    0    0  501 -0.00000000000E+00 -0.00000000000E+00 -0.95426632600E+03  0.95426632600E+03  0.00000000000E+00 0.  1.
         23    2    1    2    0    0 -0.61567527529E+03 -0.35884063669E+02  0.75630061005E+03  0.98000804767E+03  0.89896886049E+02 0.  0.
         13    1    3    3    0    0 -0.39940262474E+03 -0.29420217073E+02  0.42188705731E+03  0.58170155144E+03  0.00000000000E+00 0. -1.
        -13    1    3    3    0    0 -0.21627265055E+03 -0.64638465961E+01  0.33441355274E+03  0.39830649624E+03  0.00000000000E+00 0.  1.
         22    1    1    2    0    0  0.61567527529E+03  0.35884063669E+02 -0.72953926359E+03  0.95528595078E+03  0.00000000000E+00 0.  1.
<mgrwt>
<rscale>  0 0.19351090E+04</rscale>
<asrwt>0</asrwt>
<pdfrwt beam="1">  1        1 0.15092733E+00 0.19351090E+04</pdfrwt>
<pdfrwt beam="2">  1       -1 0.14681020E+00 0.19351090E+04</pdfrwt>
<totfact> 0.54001374E+00</totfact>
</mgrwt>
</event>
<event>
 6    1  0.9562506E-007  0.9739076E+03  0.7818608E-02  0.9337635E-01
          2   -1    0    0  501    0  0.00000000000E+00  0.00000000000E+00  0.49480352866E+03  0.49480352866E+03  0.00000000000E+00 0. -1.
         -2   -1    0    0    0  501 -0.00000000000E+00 -0.00000000000E+00 -0.47922856701E+03  0.47922856701E+03  0.00000000000E+00 0.  1.
         23    2    1    2    0    0 -0.38974075605E+03 -0.27222365328E+03 -0.73238013581E+02  0.49040897907E+03  0.95569795380E+02 0.  0.
         13    1    3    3    0    0 -0.19171664559E+03 -0.10021808330E+03  0.59725032926E+01  0.21641304770E+03  0.00000000000E+00 0. -1.
        -13    1    3    3    0    0 -0.19802411046E+03 -0.17200556998E+03 -0.79210516874E+02  0.27399593138E+03  0.00000000000E+00 0.  1.
         22    1    1    2    0    0  0.38974075605E+03  0.27222365328E+03  0.88812975234E+02  0.48362311659E+03  0.00000000000E+00 0.  1.
<mgrwt>
<rscale>  0 0.97390756E+03</rscale>
<asrwt>0</asrwt>
<pdfrwt beam="1">  1        2 0.76123620E-01 0.97390756E+03</pdfrwt>
<pdfrwt beam="2">  1       -2 0.73727472E-01 0.97390756E+03</pdfrwt>
<totfact> 0.10343509E+02</totfact>
</mgrwt>
</event>
<event>
 6    1  0.9562506E-007  0.1628735E+04  0.7818608E-02  0.8803087E-01
          2   -1    0    0  501    0  0.00000000000E+00  0.00000000000E+00  0.15672539071E+04  0.15672539071E+04  0.00000000000E+00 0. -1.
         -2   -1    0    0    0  501 -0.00000000000E+00 -0.00000000000E+00 -0.42315686488E+03  0.42315686488E+03  0.00000000000E+00 0.  1.
         23    2    1    2    0    0 -0.31998067791E+03  0.56074867063E+03 -0.27617571128E+02  0.65259843798E+03  0.91078456132E+02 0.  0.
         11    1    3    3    0    0 -0.12299973709E+03  0.18634629889E+03  0.31277862712E+02  0.22545993686E+03  0.00000000000E+00 0.  1.
        -11    1    3    3    0    0 -0.19698094083E+03  0.37440237174E+03 -0.58895433840E+02  0.42713850112E+03  0.00000000000E+00 0. -1.
         22    1    1    2    0    0  0.31998067791E+03 -0.56074867063E+03  0.11717146133E+04  0.13378123340E+04  0.00000000000E+00 0. -1.
<mgrwt>
<rscale>  0 0.16287348E+04</rscale>
<asrwt>0</asrwt>
<pdfrwt beam="1">  1        2 0.24111598E+00 0.16287348E+04</pdfrwt>
<pdfrwt beam="2">  1       -2 0.65101057E-01 0.16287348E+04</pdfrwt>
<totfact> 0.24217319E+01</totfact>
</mgrwt>
</event>
<event>
 6    1  0.9562506E-007  0.2465495E+04  0.7818608E-02  0.8415382E-01
          2   -1    0    0  501    0  0.00000000000E+00  0.00000000000E+00  0.48708627067E+04  0.48708627067E+04  0.00000000000E+00 0. -1.
         -2   -1    0    0    0  501 -0.00000000000E+00 -0.00000000000E+00 -0.31199129656E+03  0.31199129656E+03  0.00000000000E+00 0.  1.
         23    2    1    2    0    0  0.36029758345E+03 -0.99926105316E+03  0.97464700032E+03  0.14445386580E+04  0.91750520936E+02 0.  0.
         13    1    3    3    0    0  0.20458262836E+03 -0.48638467023E+03  0.53329206037E+03  0.75021631608E+03  0.00000000000E+00 0. -1.
        -13    1    3    3    0    0  0.15571495509E+03 -0.51287638293E+03  0.44135493995E+03  0.69432234187E+03  0.00000000000E+00 0.  1.
         22    1    1    2    0    0 -0.36029758345E+03  0.99926105316E+03  0.35842244098E+04  0.37383153453E+04  0.00000000000E+00 0. -1.
<mgrwt>
<rscale>  0 0.24654953E+04</rscale>
<asrwt>0</asrwt>
<pdfrwt beam="1">  1        2 0.74936344E+00 0.24654953E+04</pdfrwt>
<pdfrwt beam="2">  1       -2 0.47998664E-01 0.24654953E+04</pdfrwt>
<totfact> 0.18311236E-01</totfact>
</mgrwt>
</event>
<event>
 6    1  0.9562506E-007  0.1447018E+04  0.7818608E-02  0.8920470E-01
         -2   -1    0    0    0  501 -0.00000000000E+00  0.00000000000E+00  0.62455464959E+03  0.62455464959E+03  0.00000000000E+00 0.  1.
          2   -1    0    0  501    0  0.00000000000E+00 -0.00000000000E+00 -0.83814177688E+03  0.83814177688E+03  0.00000000000E+00 0. -1.
         23    2    1    2    0    0  0.61311637027E+02 -0.29150254402E+03  0.55604211072E+03  0.63743161200E+03  0.91669957383E+02 0.  0.
         13    1    3    3    0    0  0.61333465187E+02 -0.16005380016E+03  0.23801015988E+03  0.29330504446E+03  0.00000000000E+00 0. -1.
        -13    1    3    3    0    0 -0.21828159404E-01 -0.13144874386E+03  0.31803195084E+03  0.34412656754E+03  0.00000000000E+00 0.  1.
         22    1    1    2    0    0 -0.61311637027E+02  0.29150254402E+03 -0.76962923801E+03  0.82526481447E+03  0.00000000000E+00 0. -1.
<mgrwt>
<rscale>  0 0.14470181E+04</rscale>
<asrwt>0</asrwt>
<pdfrwt beam="1">  1        2 0.12894489E+00 0.14470181E+04</pdfrwt>
<pdfrwt beam="2">  1       -2 0.96085331E-01 0.14470181E+04</pdfrwt>
<totfact> 0.28487431E+01</totfact>
</mgrwt>
</event>
<event>
 6    1  0.9562506E-007  0.1197976E+04  0.7818608E-02  0.9114630E-01
          2   -1    0    0  501    0  0.00000000000E+00  0.00000000000E+00  0.13781615684E+04  0.13781615684E+04  0.00000000000E+00 0. -1.
         -2   -1    0    0    0  501 -0.00000000000E+00 -0.00000000000E+00 -0.26033692511E+03  0.26033692511E+03  0.00000000000E+00 0.  1.
         23    2    1    2    0    0 -0.50929599947E+03  0.13788841341E+03  0.93949282797E+03  0.10815443967E+04  0.93251694854E+02 0.  0.
         13    1    3    3    0    0 -0.13072553585E+03  0.64814172695E+01  0.17668298266E+03  0.21988190206E+03  0.00000000000E+00 0. -1.
        -13    1    3    3    0    0 -0.37857046362E+03  0.13140699614E+03  0.76280984531E+03  0.86166249464E+03  0.00000000000E+00 0.  1.
         22    1    1    2    0    0  0.50929599947E+03 -0.13788841341E+03  0.17833181537E+03  0.55695409685E+03  0.00000000000E+00 0. -1.
<mgrwt>
<rscale>  0 0.11979755E+04</rscale>
<asrwt>0</asrwt>
<pdfrwt beam="1">  1        2 0.21202485E+00 0.11979755E+04</pdfrwt>
<pdfrwt beam="2">  1       -2 0.40051835E-01 0.11979755E+04</pdfrwt>
<totfact> 0.86659769E+01</totfact>
</mgrwt>
</event>
<event>
 6    1  0.9562506E-007  0.4217543E+04  0.7818608E-02  0.7962044E-01
         -1   -1    0    0    0  501 -0.00000000000E+00  0.00000000000E+00  0.14471012434E+04  0.14471012434E+04  0.00000000000E+00 0.  1.
          1   -1    0    0  501    0  0.00000000000E+00 -0.00000000000E+00 -0.30729829339E+04  0.30729829339E+04  0.00000000000E+00 0. -1.
         23    2    1    2    0    0 -0.20205483593E+04 -0.55645968100E+03 -0.57226612504E+03  0.21743713201E+04  0.90216800949E+02 0.  0.
         13    1    3    3    0    0 -0.78725037505E+03 -0.17415022693E+03 -0.20412837137E+03  0.83172101485E+03  0.00000000000E+00 0. -1.
        -13    1    3    3    0    0 -0.12332979842E+04 -0.38230945407E+03 -0.36813775366E+03  0.13426503053E+04  0.00000000000E+00 0.  1.
         22    1    1    2    0    0  0.20205483593E+04  0.55645968100E+03 -0.10536155655E+04  0.23457128572E+04  0.00000000000E+00 0. -1.
<mgrwt>
<rscale>  0 0.42175431E+04</rscale>
<asrwt>0</asrwt>
<pdfrwt beam="1">  1        1 0.47276660E+00 0.42175431E+04</pdfrwt>
<pdfrwt beam="2">  1       -1 0.22263096E+00 0.42175431E+04</pdfrwt>
<totfact> 0.42911836E-02</totfact>
</mgrwt>
</event>
<event>
 6    1  0.9562506E-007  0.1472891E+04  0.7818608E-02  0.8902683E-01
         -2   -1    0    0    0  501 -0.00000000000E+00  0.00000000000E+00  0.27946336533E+03  0.27946336533E+03  0.00000000000E+00 0.  1.
          2   -1    0    0  501    0  0.00000000000E+00 -0.00000000000E+00 -0.19406918872E+04  0.19406918872E+04  0.00000000000E+00 0. -1.
         23    2    1    2    0    0 -0.75254764081E+02  0.62147129215E+03 -0.14103794652E+04  0.15457554484E+04  0.91103370854E+02 0.  0.
         11    1    3    3    0    0 -0.86798882525E+02  0.34305281027E+03 -0.80154794059E+03  0.87618398622E+03  0.00000000000E+00 0.  1.
        -11    1    3    3    0    0  0.11544118444E+02  0.27841848188E+03 -0.60883152457E+03  0.66957146223E+03  0.00000000000E+00 0. -1.
         22    1    1    2    0    0  0.75254764081E+02 -0.62147129215E+03 -0.25084905668E+03  0.67439980406E+03  0.00000000000E+00 0.  1.
<mgrwt>
<rscale>  0 0.14728914E+04</rscale>
<asrwt>0</asrwt>
<pdfrwt beam="1">  1        2 0.29856798E+00 0.14728914E+04</pdfrwt>
<pdfrwt beam="2">  1       -2 0.42994364E-01 0.14728914E+04</pdfrwt>
<totfact> 0.35803870E+01</totfact>
</mgrwt>
</event>
<event>
 6    1  0.9562506E-007  0.2794786E+04  0.7818608E-02  0.8304889E-01
         -2   -1    0    0    0  501 -0.00000000000E+00  0.00000000000E+00  0.46452544049E+03  0.46452544049E+03  0.00000000000E+00 0.  1.
          2   -1    0    0  501    0  0.00000000000E+00 -0.00000000000E+00 -0.42036610862E+04  0.42036610862E+04  0.00000000000E+00 0. -1.
         23    2    1    2    0    0 -0.99950360029E+03 -0.22973408423E+03 -0.28973895543E+03  0.10695586322E+04  0.90674190838E+02 0.  0.
         13    1    3    3    0    0 -0.85124957650E+03 -0.19876485661E+03 -0.21277129668E+03  0.89966934726E+03  0.00000000000E+00 0. -1.
        -13    1    3    3    0    0 -0.14825402379E+03 -0.30969227615E+02 -0.76967658745E+02  0.16988928489E+03  0.00000000000E+00 0.  1.
         22    1    1    2    0    0  0.99950360029E+03  0.22973408423E+03 -0.34493966903E+04  0.35986278946E+04  0.00000000000E+00 0. -1.
<mgrwt>
<rscale>  0 0.27947862E+04</rscale>
<asrwt>0</asrwt>
<pdfrwt beam="1">  1        2 0.64671712E+00 0.27947862E+04</pdfrwt>
<pdfrwt beam="2">  1       -2 0.71465449E-01 0.27947862E+04</pdfrwt>
<totfact> 0.35736061E-01</totfact>
</mgrwt>
</event>
<event>
 6    1  0.9562506E-007  0.2238912E+04  0.7818608E-02  0.8502404E-01
         -2   -1    0    0    0  501 -0.00000000000E+00  0.00000000000E+00  0.79400588998E+03  0.79400588998E+03  0.00000000000E+00 0.  1.
          2   -1    0    0  501    0  0.00000000000E+00 -0.00000000000E+00 -0.15783029303E+04  0.15783029303E+04  0.00000000000E+00 0. -1.
         23    2    1    2    0    0  0.55274370625E+03  0.91347813444E+03 -0.42259051256E+02  0.10720825769E+04  0.87219936391E+02 0.  0.
         11    1    3    3    0    0  0.44291477911E+03  0.73179864096E+03 -0.68676325427E+02  0.85814869932E+03  0.00000000000E+00 0.  1.
        -11    1    3    3    0    0  0.10982892714E+03  0.18167949348E+03  0.26417274172E+02  0.21393387755E+03  0.00000000000E+00 0. -1.
         22    1    1    2    0    0 -0.55274370625E+03 -0.91347813444E+03 -0.74203798911E+03  0.13002262435E+04  0.00000000000E+00 0.  1.
<mgrwt>
<rscale>  0 0.22389121E+04</rscale>
<asrwt>0</asrwt>
<pdfrwt beam="1">  1        2 0.24281583E+00 0.22389121E+04</pdfrwt>
<pdfrwt beam="2">  1       -2 0.12215475E+00 0.22389121E+04</pdfrwt>
<totfact> 0.53086492E+00</totfact>
</mgrwt>
</event>
<event>
 6    1  0.9562506E-007  0.2432813E+04  0.7818608E-02  0.8427320E-01
          1   -1    0    0  501    0  0.00000000000E+00  0.00000000000E+00  0.11000696792E+04  0.11000696792E+04  0.00000000000E+00 0. -1.
         -1   -1    0    0    0  501 -0.00000000000E+00 -0.00000000000E+00 -0.13450462547E+04  0.13450462547E+04  0.00000000000E+00 0.  1.
         23    2    1    2    0    0  0.67939338258E+03 -0.93327816594E+03 -0.50244139249E+03  0.12623768946E+04  0.92544949817E+02 0.  0.
         13    1    3    3    0    0  0.49418346058E+03 -0.64364118051E+03 -0.31220135747E+03  0.86946014835E+03  0.00000000000E+00 0. -1.
        -13    1    3    3    0    0  0.18520992201E+03 -0.28963698544E+03 -0.19024003501E+03  0.39291674622E+03  0.00000000000E+00 0.  1.
         22    1    1    2    0    0 -0.67939338258E+03  0.93327816594E+03  0.25746481698E+03  0.11827390394E+04  0.00000000000E+00 0.  1.
<mgrwt>
<rscale>  0 0.24328129E+04</rscale>
<asrwt>0</asrwt>
<pdfrwt beam="1">  1        1 0.16924149E+00 0.24328129E+04</pdfrwt>
<pdfrwt beam="2">  1       -1 0.20693019E+00 0.24328129E+04</pdfrwt>
<totfact> 0.15280884E+00</totfact>
</mgrwt>
</event>
<event>
 6    1  0.9562506E-007  0.3972653E+04  0.7818608E-02  0.8010086E-01
          1   -1    0    0  501    0  0.00000000000E+00  0.00000000000E+00  0.26911292970E+04  0.26911292970E+04  0.00000000000E+00 0. -1.
         -1   -1    0    0    0  501 -0.00000000000E+00 -0.00000000000E+00 -0.14661104033E+04  0.14661104033E+04  0.00000000000E+00 0.  1.
         23    2    1    2    0    0  0.18174227447E+04 -0.65082401809E+03  0.12862644849E+03  0.19371780505E+04  0.97553578802E+02 0.  0.
         11    1    3    3    0    0  0.40848776124E+03 -0.18886563356E+03  0.20392146127E+02  0.45049785599E+03  0.00000000000E+00 0.  1.
        -11    1    3    3    0    0  0.14089349834E+04 -0.46195838453E+03  0.10823430236E+03  0.14866801945E+04  0.00000000000E+00 0. -1.
         22    1    1    2    0    0 -0.18174227447E+04  0.65082401809E+03  0.10963924452E+04  0.22200616499E+04  0.00000000000E+00 0. -1.
<mgrwt>
<rscale>  0 0.39726528E+04</rscale>
<asrwt>0</asrwt>
<pdfrwt beam="1">  1        1 0.41401989E+00 0.39726528E+04</pdfrwt>
<pdfrwt beam="2">  1       -1 0.22555545E+00 0.39726528E+04</pdfrwt>
<totfact> 0.78895615E-02</totfact>
</mgrwt>
</event>
<event>
 6    1  0.9562506E-007  0.5123649E+03  0.7818608E-02  0.1010601E+00
          1   -1    0    0  501    0  0.00000000000E+00  0.00000000000E+00  0.11414849559E+04  0.11414849559E+04  0.00000000000E+00 0. -1.
         -1   -1    0    0    0  501 -0.00000000000E+00 -0.00000000000E+00 -0.57494799359E+02  0.57494799359E+02  0.00000000000E+00 0.  1.
         23    2    1    2    0    0  0.29307498779E+02 -0.23724190830E+03  0.39643096465E+03  0.47105098478E+03  0.87114109014E+02 0.  0.
         13    1    3    3    0    0 -0.34466275364E+01 -0.14566531710E+03  0.30287173214E+03  0.33609753046E+03  0.00000000000E+00 0.  1.
        -13    1    3    3    0    0  0.32754126315E+02 -0.91576591201E+02  0.93559232511E+02  0.13495345433E+03  0.00000000000E+00 0. -1.
         22    1    1    2    0    0 -0.29307498779E+02  0.23724190830E+03  0.68755919187E+03  0.72792877046E+03  0.00000000000E+00 0. -1.
<mgrwt>
<rscale>  0 0.51236490E+03</rscale>
<asrwt>0</asrwt>
<pdfrwt beam="1">  1        1 0.17561305E+00 0.51236490E+03</pdfrwt>
<pdfrwt beam="2">  1       -1 0.88453546E-02 0.51236490E+03</pdfrwt>
<totfact> 0.92055344E+02</totfact>
</mgrwt>
</event>
<event>
 6    1  0.9562506E-007  0.2212822E+04  0.7818608E-02  0.8513110E-01
          3   -1    0    0  501    0  0.00000000000E+00  0.00000000000E+00  0.58717881321E+03  0.58717881321E+03  0.00000000000E+00 0. -1.
         -3   -1    0    0    0  501 -0.00000000000E+00 -0.00000000000E+00 -0.20847907950E+04  0.20847907950E+04  0.00000000000E+00 0.  1.
         23    2    1    2    0    0  0.91322980389E+02  0.54090096489E+03 -0.19075949532E+04  0.19871340240E+04  0.94177403389E+02 0.  0.
         11    1    3    3    0    0  0.31938718635E+02  0.42619643660E+03 -0.14727980630E+04  0.15335571782E+04  0.00000000000E+00 0.  1.
        -11    1    3    3    0    0  0.59384261754E+02  0.11470452829E+03 -0.43479689023E+03  0.45357684586E+03  0.00000000000E+00 0. -1.
         22    1    1    2    0    0 -0.91322980389E+02 -0.54090096489E+03  0.40998297140E+03  0.68483558421E+03  0.00000000000E+00 0. -1.
<mgrwt>
<rscale>  0 0.22128217E+04</rscale>
<asrwt>0</asrwt>
<pdfrwt beam="1">  1        3 0.90335201E-01 0.22128217E+04</pdfrwt>
<pdfrwt beam="2">  1       -3 0.32073705E+00 0.22128217E+04</pdfrwt>
<totfact> 0.76785213E-02</totfact>
</mgrwt>
</event>
<event>
 6    1  0.9562506E-007  0.1623040E+04  0.7818608E-02  0.8806517E-01
         -1   -1    0    0    0  501 -0.00000000000E+00  0.00000000000E+00  0.39215984500E+03  0.39215984500E+03  0.00000000000E+00 0.  1.
          1   -1    0    0  501    0  0.00000000000E+00 -0.00000000000E+00 -0.16793275141E+04  0.16793275141E+04  0.00000000000E+00 0. -1.
         23    2    1    2    0    0 -0.70146419413E+03 -0.64733122925E+02 -0.11532348588E+04  0.13544236307E+04  0.90941404239E+02 0.  0.
         13    1    3    3    0    0 -0.24378581172E+02  0.56773368923E+01 -0.18368372937E+02  0.31047455588E+02  0.00000000000E+00 0.  1.
        -13    1    3    3    0    0 -0.67708561296E+03 -0.70410459817E+02 -0.11348664859E+04  0.13233761751E+04  0.00000000000E+00 0. -1.
         22    1    1    2    0    0  0.70146419413E+03  0.64733122925E+02 -0.13393281025E+03  0.71706372835E+03  0.00000000000E+00 0.  1.
<mgrwt>
<rscale>  0 0.16230401E+04</rscale>
<asrwt>0</asrwt>
<pdfrwt beam="1">  1        1 0.25835807E+00 0.16230401E+04</pdfrwt>
<pdfrwt beam="2">  1       -1 0.60332285E-01 0.16230401E+04</pdfrwt>
<totfact> 0.13136155E+01</totfact>
</mgrwt>
</event>
<event>
 6    1  0.9562506E-007  0.1077499E+04  0.7818608E-02  0.9227405E-01
          1   -1    0    0  501    0  0.00000000000E+00  0.00000000000E+00  0.75610510723E+03  0.75610510723E+03  0.00000000000E+00 0. -1.
         -1   -1    0    0    0  501 -0.00000000000E+00 -0.00000000000E+00 -0.38387626555E+03  0.38387626555E+03  0.00000000000E+00 0.  1.
         23    2    1    2    0    0  0.42004683669E+03  0.19554781285E+03  0.47006959408E+03  0.66642978641E+03  0.92113760119E+02 0.  0.
         11    1    3    3    0    0  0.30261736081E+03  0.18068093409E+03  0.32744236899E+03  0.48108353954E+03  0.00000000000E+00 0. -1.
        -11    1    3    3    0    0  0.11742947589E+03  0.14866878762E+02  0.14262722509E+03  0.18534624687E+03  0.00000000000E+00 0.  1.
         22    1    1    2    0    0 -0.42004683669E+03 -0.19554781285E+03 -0.97840752402E+02  0.47355158637E+03  0.00000000000E+00 0.  1.
<mgrwt>
<rscale>  0 0.10774986E+04</rscale>
<asrwt>0</asrwt>
<pdfrwt beam="1">  1        1 0.11632386E+00 0.10774986E+04</pdfrwt>
<pdfrwt beam="2">  1       -1 0.59057887E-01 0.10774986E+04</pdfrwt>
<totfact> 0.70139132E+01</totfact>
</mgrwt>
</event>
<event>
 6    1  0.9562506E-007  0.1189512E+04  0.7818608E-02  0.9122087E-01
         -4   -1    0    0    0  501 -0.00000000000E+00  0.00000000000E+00  0.43045201504E+03  0.43045201504E+03  0.00000000000E+00 0.  1.
          4   -1    0    0  501    0  0.00000000000E+00 -0.00000000000E+00 -0.82177456251E+03  0.82177456251E+03  0.00000000000E+00 0. -1.
         23    2    1    2    0    0  0.13475002673E+03  0.54849363684E+03 -0.38079164384E+03  0.68732504694E+03  0.91709349416E+02 0.  0.
         11    1    3    3    0    0  0.58876907668E+02  0.10166770276E+03 -0.58881883115E+02  0.13141494664E+03  0.00000000000E+00 0.  1.
        -11    1    3    3    0    0  0.75873119065E+02  0.44682593408E+03 -0.32190976073E+03  0.55591010030E+03  0.00000000000E+00 0. -1.
         22    1    1    2    0    0 -0.13475002673E+03 -0.54849363684E+03 -0.10530903618E+02  0.56490153061E+03  0.00000000000E+00 0. -1.
<mgrwt>
<rscale>  0 0.11895117E+04</rscale>
<asrwt>0</asrwt>
<pdfrwt beam="1">  1        4 0.12642685E+00 0.11895117E+04</pdfrwt>
<pdfrwt beam="2">  1       -4 0.66223388E-01 0.11895117E+04</pdfrwt>
<totfact> 0.19338133E+00</totfact>
</mgrwt>
</event>
<event>
 6    1  0.9562506E-007  0.1989188E+04  0.7818608E-02  0.8611692E-01
          2   -1    0    0  501    0  0.00000000000E+00  0.00000000000E+00  0.25137593692E+04  0.25137593692E+04  0.00000000000E+00 0. -1.
         -2   -1    0    0    0  501 -0.00000000000E+00 -0.00000000000E+00 -0.39352094786E+03  0.39352094786E+03  0.00000000000E+00 0.  1.
         23    2    1    2    0    0 -0.31505195233E+03  0.35307284179E+03 -0.21287373040E+03  0.52666475026E+03  0.90235080718E+02 0.  0.
         13    1    3    3    0    0 -0.22257047310E+03  0.25254333252E+03 -0.19466749951E+03  0.38885882485E+03  0.00000000000E+00 0.  1.
        -13    1    3    3    0    0 -0.92481479228E+02  0.10052950927E+03 -0.18206230889E+02  0.13780592541E+03  0.00000000000E+00 0. -1.
         22    1    1    2    0    0  0.31505195233E+03 -0.35307284179E+03  0.23331121517E+04  0.23806155668E+04  0.00000000000E+00 0. -1.
<mgrwt>
<rscale>  0 0.19891877E+04</rscale>
<asrwt>0</asrwt>
<pdfrwt beam="1">  1        2 0.38673220E+00 0.19891877E+04</pdfrwt>
<pdfrwt beam="2">  1       -2 0.60541686E-01 0.19891877E+04</pdfrwt>
<totfact> 0.80805197E+00</totfact>
</mgrwt>
</event>
<event>
 6    1  0.9562506E-007  0.1466751E+04  0.7818608E-02  0.8906869E-01
         -2   -1    0    0    0  501 -0.00000000000E+00  0.00000000000E+00  0.73914712747E+03  0.73914712747E+03  0.00000000000E+00 0.  1.
          2   -1    0    0  501    0  0.00000000000E+00 -0.00000000000E+00 -0.72764881653E+03  0.72764881653E+03  0.00000000000E+00 0. -1.
         23    2    1    2    0    0 -0.60521002756E+03 -0.15568431514E+03 -0.37270107078E+03  0.73322526005E+03  0.90534028859E+02 0.  0.
         11    1    3    3    0    0 -0.36681052115E+03 -0.49357139554E+02 -0.22937767540E+03  0.43543105496E+03  0.00000000000E+00 0. -1.
        -11    1    3    3    0    0 -0.23839950641E+03 -0.10632717559E+03 -0.14332339537E+03  0.29779420509E+03  0.00000000000E+00 0.  1.
         22    1    1    2    0    0  0.60521002756E+03  0.15568431514E+03  0.38419938172E+03  0.73357068395E+03  0.00000000000E+00 0.  1.
<mgrwt>
<rscale>  0 0.14667509E+04</rscale>
<asrwt>0</asrwt>
<pdfrwt beam="1">  1        2 0.11194597E+00 0.14667509E+04</pdfrwt>
<pdfrwt beam="2">  1       -2 0.11371494E+00 0.14667509E+04</pdfrwt>
<totfact> 0.22890744E+01</totfact>
</mgrwt>
</event>
<event>
 6    1  0.9562506E-007  0.2342649E+04  0.7818608E-02  0.8461293E-01
         -2   -1    0    0    0  501 -0.00000000000E+00  0.00000000000E+00  0.36197466589E+03  0.36197466589E+03  0.00000000000E+00 0.  1.
          2   -1    0    0  501    0  0.00000000000E+00 -0.00000000000E+00 -0.37903227830E+04  0.37903227830E+04  0.00000000000E+00 0. -1.
         23    2    1    2    0    0  0.10827722654E+04 -0.71011719369E+01 -0.93343028217E+03  0.14325435614E+04  0.91884484237E+02 0.  0.
         11    1    3    3    0    0  0.38263914303E+03  0.25942784909E+02 -0.37481140641E+03  0.53625491349E+03  0.00000000000E+00 0. -1.
        -11    1    3    3    0    0  0.70013312233E+03 -0.33043956846E+02 -0.55861887576E+03  0.89628864793E+03  0.00000000000E+00 0.  1.
         22    1    1    2    0    0 -0.10827722654E+04  0.71011719369E+01 -0.24949178350E+04  0.27197538875E+04  0.00000000000E+00 0. -1.
<mgrwt>
<rscale>  0 0.23426488E+04</rscale>
<asrwt>0</asrwt>
<pdfrwt beam="1">  1        2 0.58312660E+00 0.23426488E+04</pdfrwt>
<pdfrwt beam="2">  1       -2 0.55688409E-01 0.23426488E+04</pdfrwt>
<totfact> 0.13724956E+00</totfact>
</mgrwt>
</event>
<event>
 6    1  0.9562506E-007  0.8808738E+03  0.7818608E-02  0.9449811E-01
         -1   -1    0    0    0  501 -0.00000000000E+00  0.00000000000E+00  0.11391705196E+03  0.11391705196E+03  0.00000000000E+00 0.  1.
          1   -1    0    0  501    0  0.00000000000E+00 -0.00000000000E+00 -0.17028589628E+04  0.17028589628E+04  0.00000000000E+00 0. -1.
         23    2    1    2    0    0  0.22464770815E+03 -0.32893830059E+03 -0.11643252240E+04  0.12345678655E+04  0.99184619864E+02 0.  0.
         13    1    3    3    0    0  0.10501286028E+03 -0.17568394995E+03 -0.45191050090E+03  0.49610044539E+03  0.00000000000E+00 0.  1.
        -13    1    3    3    0    0  0.11963484786E+03 -0.15325435065E+03 -0.71241472315E+03  0.73846742012E+03  0.00000000000E+00 0. -1.
         22    1    1    2    0    0 -0.22464770815E+03  0.32893830059E+03 -0.42461668682E+03  0.58220814929E+03  0.00000000000E+00 0.  1.
<mgrwt>
<rscale>  0 0.88087382E+03</rscale>
<asrwt>0</asrwt>
<pdfrwt beam="1">  1        1 0.26197828E+00 0.88087382E+03</pdfrwt>
<pdfrwt beam="2">  1       -1 0.17525702E-01 0.88087382E+03</pdfrwt>
<totfact> 0.12243648E+02</totfact>
</mgrwt>
</event>
<event>
 6    1  0.9562506E-007  0.3120682E+04  0.7818608E-02  0.8210085E-01
          2   -1    0    0  501    0  0.00000000000E+00  0.00000000000E+00  0.17248534134E+04  0.17248534134E+04  0.00000000000E+00 0. -1.
         -2   -1    0    0    0  501 -0.00000000000E+00 -0.00000000000E+00 -0.14115190720E+04  0.14115190720E+04  0.00000000000E+00 0.  1.
         23    2    1    2    0    0 -0.10131205000E+04  0.65233467381E+03  0.11509730603E+04  0.16688602034E+04  0.91660890208E+02 0.  0.
         11    1    3    3    0    0 -0.29028594603E+03  0.23704281857E+03  0.35091536103E+03  0.51341680817E+03  0.00000000000E+00 0. -1.
        -11    1    3    3    0    0 -0.72283455398E+03  0.41529185524E+03  0.80005769928E+03  0.11554433953E+04  0.00000000000E+00 0.  1.
         22    1    1    2    0    0  0.10131205000E+04 -0.65233467381E+03 -0.83763871889E+03  0.14675122819E+04  0.00000000000E+00 0.  1.
<mgrwt>
<rscale>  0 0.31206816E+04</rscale>
<asrwt>0</asrwt>
<pdfrwt beam="1">  1        2 0.26536206E+00 0.31206816E+04</pdfrwt>
<pdfrwt beam="2">  1       -2 0.21715678E+00 0.31206816E+04</pdfrwt>
<totfact> 0.82965571E-01</totfact>
</mgrwt>
</event>
<event>
 6    1  0.9562506E-007  0.1954430E+04  0.7818608E-02  0.8628228E-01
         -2   -1    0    0    0  501 -0.00000000000E+00  0.00000000000E+00  0.75272712044E+03  0.75272712044E+03  0.00000000000E+00 0.  1.
          2   -1    0    0  501    0  0.00000000000E+00 -0.00000000000E+00 -0.12686519800E+04  0.12686519800E+04  0.00000000000E+00 0. -1.
         23    2    1    2    0    0 -0.39681243745E+03 -0.95191049252E+02  0.65739525744E+03  0.77912246700E+03  0.91333716179E+02 0.  0.
         13    1    3    3    0    0 -0.20821228338E+03 -0.95674677508E+02  0.34307798959E+03  0.41256333551E+03  0.00000000000E+00 0.  1.
        -13    1    3    3    0    0 -0.18860015406E+03  0.48362825672E+00  0.31431726785E+03  0.36655913149E+03  0.00000000000E+00 0. -1.
         22    1    1    2    0    0  0.39681243745E+03  0.95191049252E+02 -0.11733201170E+04  0.12422566334E+04  0.00000000000E+00 0. -1.
<mgrwt>
<rscale>  0 0.19544296E+04</rscale>
<asrwt>0</asrwt>
<pdfrwt beam="1">  1        2 0.19517723E+00 0.19544296E+04</pdfrwt>
<pdfrwt beam="2">  1       -2 0.11580417E+00 0.19544296E+04</pdfrwt>
<totfact> 0.93236998E+00</totfact>
</mgrwt>
</event>
<event>
 6    1  0.9562506E-007  0.3082024E+04  0.7818608E-02  0.8220689E-01
         -2   -1    0    0    0  501 -0.00000000000E+00  0.00000000000E+00  0.92266784277E+03  0.92266784277E+03  0.00000000000E+00 0.  1.
          2   -1    0    0  501    0  0.00000000000E+00 -0.00000000000E+00 -0.25737516667E+04  0.25737516667E+04  0.00000000000E+00 0. -1.
         23    2    1    2    0    0  0.30922225817E+02 -0.76458487051E+03  0.68997134793E+03  0.10334770566E+04  0.80424855331E+02 0.  0.
         11    1    3    3    0    0  0.44129847722E+02 -0.45612783000E+03  0.45204538434E+03  0.64369641157E+03  0.00000000000E+00 0.  1.
        -11    1    3    3    0    0 -0.13207621906E+02 -0.30845704051E+03  0.23792596359E+03  0.38978064507E+03  0.00000000000E+00 0. -1.
         22    1    1    2    0    0 -0.30922225817E+02  0.76458487051E+03 -0.23410551719E+04  0.24629424528E+04  0.00000000000E+00 0. -1.
<mgrwt>
<rscale>  0 0.30820239E+04</rscale>
<asrwt>0</asrwt>
<pdfrwt beam="1">  1        2 0.39596180E+00 0.30820239E+04</pdfrwt>
<pdfrwt beam="2">  1       -2 0.14194890E+00 0.30820239E+04</pdfrwt>
<totfact> 0.92857393E-01</totfact>
</mgrwt>
</event>
<event>
 6    1  0.9562506E-007  0.2916669E+04  0.7818608E-02  0.8267935E-01
          2   -1    0    0  501    0  0.00000000000E+00  0.00000000000E+00  0.32903016984E+04  0.32903016984E+04  0.00000000000E+00 0. -1.
         -2   -1    0    0    0  501 -0.00000000000E+00 -0.00000000000E+00 -0.64636599378E+03  0.64636599378E+03  0.00000000000E+00 0.  1.
         23    2    1    2    0    0  0.63049568410E+03  0.12549893843E+04  0.18461084404E+04  0.23214118283E+04  0.91177521740E+02 0.  0.
         11    1    3    3    0    0  0.45619457069E+02  0.14210019904E+03  0.17047638179E+03  0.22657404568E+03  0.00000000000E+00 0. -1.
        -11    1    3    3    0    0  0.58487622703E+03  0.11128891852E+04  0.16756320586E+04  0.20948377826E+04  0.00000000000E+00 0.  1.
         22    1    1    2    0    0 -0.63049568410E+03 -0.12549893843E+04  0.79782726421E+03  0.16152558639E+04  0.00000000000E+00 0.  1.
<mgrwt>
<rscale>  0 0.29166687E+04</rscale>
<asrwt>0</asrwt>
<pdfrwt beam="1">  1        2 0.50620025E+00 0.29166687E+04</pdfrwt>
<pdfrwt beam="2">  1       -2 0.99440924E-01 0.29166687E+04</pdfrwt>
<totfact> 0.81515703E-01</totfact>
</mgrwt>
</event>
<event>
 6    1  0.9562506E-007  0.3045518E+04  0.7818608E-02  0.8230851E-01
         -1   -1    0    0    0  501 -0.00000000000E+00  0.00000000000E+00  0.97717072355E+03  0.97717072355E+03  0.00000000000E+00 0.  1.
          1   -1    0    0  501    0  0.00000000000E+00 -0.00000000000E+00 -0.23729686984E+04  0.23729686984E+04  0.00000000000E+00 0. -1.
         23    2    1    2    0    0 -0.45845140494E+03 -0.58768186714E+03 -0.21574569665E+04  0.22844602548E+04  0.92684549075E+02 0.  0.
         13    1    3    3    0    0 -0.18516110480E+03 -0.17100096809E+03 -0.77327741201E+03  0.81331661839E+03  0.00000000000E+00 0.  1.
        -13    1    3    3    0    0 -0.27329030014E+03 -0.41668089905E+03 -0.13841795545E+04  0.14711436364E+04  0.00000000000E+00 0. -1.
         22    1    1    2    0    0  0.45845140494E+03  0.58768186714E+03  0.76165899169E+03  0.10656791671E+04  0.00000000000E+00 0.  1.
<mgrwt>
<rscale>  0 0.30455184E+04</rscale>
<asrwt>0</asrwt>
<pdfrwt beam="1">  1        1 0.36507210E+00 0.30455184E+04</pdfrwt>
<pdfrwt beam="2">  1       -1 0.15033396E+00 0.30455184E+04</pdfrwt>
<totfact> 0.48742647E-01</totfact>
</mgrwt>
</event>
<event>
 6    1  0.9562506E-007  0.2076247E+04  0.7818608E-02  0.8571780E-01
          2   -1    0    0  501    0  0.00000000000E+00  0.00000000000E+00  0.20468952852E+04  0.20468952852E+04  0.00000000000E+00 0. -1.
         -2   -1    0    0    0  501 -0.00000000000E+00 -0.00000000000E+00 -0.52650492634E+03  0.52650492634E+03  0.00000000000E+00 0.  1.
         23    2    1    2    0    0  0.36823229885E+03 -0.43202381013E+02 -0.43594014743E+03  0.58224714824E+03  0.10726815862E+03 0.  0.
         11    1    3    3    0    0  0.18301539250E+03 -0.51943604034E+02 -0.28741074779E+03  0.34467043656E+03  0.00000000000E+00 0.  1.
        -11    1    3    3    0    0  0.18521690635E+03  0.87412230215E+01 -0.14852939965E+03  0.23757671169E+03  0.00000000000E+00 0. -1.
         22    1    1    2    0    0 -0.36823229885E+03  0.43202381013E+02  0.19563305063E+04  0.19911530633E+04  0.00000000000E+00 0. -1.
<mgrwt>
<rscale>  0 0.20762470E+04</rscale>
<asrwt>0</asrwt>
<pdfrwt beam="1">  1        2 0.31490696E+00 0.20762470E+04</pdfrwt>
<pdfrwt beam="2">  1       -2 0.81000759E-01 0.20762470E+04</pdfrwt>
<totfact> 0.78068936E+00</totfact>
</mgrwt>
</event>
<event>
 6    1  0.9562506E-007  0.2570926E+04  0.7818608E-02  0.8378145E-01
          2   -1    0    0  501    0  0.00000000000E+00  0.00000000000E+00  0.11661859730E+04  0.11661859730E+04  0.00000000000E+00 0. -1.
         -2   -1    0    0    0  501 -0.00000000000E+00 -0.00000000000E+00 -0.14169391801E+04  0.14169391801E+04  0.00000000000E+00 0.  1.
         23    2    1    2    0    0 -0.34363828588E+03  0.58776545680E+03 -0.12191389891E+04  0.13993487694E+04  0.91222803911E+02 0.  0.
         13    1    3    3    0    0 -0.77914692695E+02  0.17353236150E+03 -0.27102470231E+03  0.33111715312E+03  0.00000000000E+00 0. -1.
        -13    1    3    3    0    0 -0.26572359318E+03  0.41423309530E+03 -0.94811428678E+03  0.10682316163E+04  0.00000000000E+00 0.  1.
         22    1    1    2    0    0  0.34363828588E+03 -0.58776545680E+03  0.96838578206E+03  0.11837763837E+04  0.00000000000E+00 0. -1.
<mgrwt>
<rscale>  0 0.25709256E+04</rscale>
<asrwt>0</asrwt>
<pdfrwt beam="1">  1        2 0.17941323E+00 0.25709256E+04</pdfrwt>
<pdfrwt beam="2">  1       -2 0.21799064E+00 0.25709256E+04</pdfrwt>
<totfact> 0.17912415E+00</totfact>
</mgrwt>
</event>
<event>
 6    1  0.9562506E-007  0.2164529E+04  0.7818608E-02  0.8533339E-01
         -2   -1    0    0    0  501 -0.00000000000E+00  0.00000000000E+00  0.19206726699E+04  0.19206726699E+04  0.00000000000E+00 0.  1.
          2   -1    0    0  501    0  0.00000000000E+00 -0.00000000000E+00 -0.60983663714E+03  0.60983663714E+03  0.00000000000E+00 0. -1.
         23    2    1    2    0    0  0.54985559614E+03 -0.51397358440E+03  0.15625501740E+04  0.17368657907E+04  0.92896213969E+02 0.  0.
         11    1    3    3    0    0  0.27467001491E+03 -0.31374526859E+03  0.81427395483E+03  0.91483429328E+03  0.00000000000E+00 0. -1.
        -11    1    3    3    0    0  0.27518558122E+03 -0.20022831581E+03  0.74827621919E+03  0.82203149743E+03  0.00000000000E+00 0.  1.
         22    1    1    2    0    0 -0.54985559614E+03  0.51397358440E+03 -0.25171414127E+03  0.79364351631E+03  0.00000000000E+00 0. -1.
<mgrwt>
<rscale>  0 0.21645291E+04</rscale>
<asrwt>0</asrwt>
<pdfrwt beam="1">  1        2 0.93821022E-01 0.21645291E+04</pdfrwt>
<pdfrwt beam="2">  1       -2 0.29548810E+00 0.21645291E+04</pdfrwt>
<totfact> 0.15105859E+00</totfact>
</mgrwt>
</event>
<event>
 6    1  0.9562506E-007  0.1642664E+04  0.7818608E-02  0.8794758E-01
          2   -1    0    0  501    0  0.00000000000E+00  0.00000000000E+00  0.30132468018E+03  0.30132468018E+03  0.00000000000E+00 0. -1.
         -2   -1    0    0    0  501 -0.00000000000E+00 -0.00000000000E+00 -0.22387347456E+04  0.22387347456E+04  0.00000000000E+00 0.  1.
         23    2    1    2    0    0 -0.43110222799E+03 -0.28992167849E+03  0.13356142039E+01  0.53291256496E+03  0.11870260064E+03 0.  0.
         11    1    3    3    0    0 -0.26037256851E+03 -0.10402955288E+03 -0.51265314316E+01  0.28043235126E+03  0.00000000000E+00 0. -1.
        -11    1    3    3    0    0 -0.17072965947E+03 -0.18589212561E+03  0.64621456356E+01  0.25248021371E+03  0.00000000000E+00 0.  1.
         22    1    1    2    0    0  0.43110222799E+03  0.28992167849E+03 -0.19387456796E+04  0.20071468608E+04  0.00000000000E+00 0.  1.
<mgrwt>
<rscale>  0 0.16426637E+04</rscale>
<asrwt>0</asrwt>
<pdfrwt beam="1">  1        2 0.46357643E-01 0.16426637E+04</pdfrwt>
<pdfrwt beam="2">  1       -2 0.34442073E+00 0.16426637E+04</pdfrwt>
<totfact> 0.17702911E+00</totfact>
</mgrwt>
</event>
<event>
 6    1  0.9562506E-007  0.4361675E+04  0.7818608E-02  0.7935311E-01
          2   -1    0    0  501    0  0.00000000000E+00  0.00000000000E+00  0.28655705289E+04  0.28655705289E+04  0.00000000000E+00 0. -1.
         -2   -1    0    0    0  501 -0.00000000000E+00 -0.00000000000E+00 -0.16597229149E+04  0.16597229149E+04  0.00000000000E+00 0.  1.
         23    2    1    2    0    0  0.10223946559E+03 -0.21013037435E+04  0.11018372943E+02  0.21058829276E+04  0.93226440414E+02 0.  0.
         11    1    3    3    0    0  0.29301806902E+02 -0.44266757869E+03 -0.34918913375E+02  0.44500843994E+03  0.00000000000E+00 0.  1.
        -11    1    3    3    0    0  0.72937658685E+02 -0.16586361649E+04  0.45937286318E+02  0.16608744876E+04  0.00000000000E+00 0. -1.
         22    1    1    2    0    0 -0.10223946559E+03  0.21013037435E+04  0.11948292410E+04  0.24194105163E+04  0.00000000000E+00 0. -1.
<mgrwt>
<rscale>  0 0.43616754E+04</rscale>
<asrwt>0</asrwt>
<pdfrwt beam="1">  1        2 0.44085700E+00 0.43616754E+04</pdfrwt>
<pdfrwt beam="2">  1       -2 0.25534199E+00 0.43616754E+04</pdfrwt>
<totfact> 0.96265278E-02</totfact>
</mgrwt>
</event>
<event>
 6    1  0.9562506E-007  0.1829313E+04  0.7818608E-02  0.8690865E-01
          1   -1    0    0  501    0  0.00000000000E+00  0.00000000000E+00  0.25879356137E+04  0.25879356137E+04  0.00000000000E+00 0. -1.
         -1   -1    0    0    0  501 -0.00000000000E+00 -0.00000000000E+00 -0.32326793778E+03  0.32326793778E+03  0.00000000000E+00 0.  1.
         23    2    1    2    0    0 -0.93327137982E+02 -0.67439224660E+03  0.21017623521E+04  0.22111656943E+04  0.91290121014E+02 0.  0.
         11    1    3    3    0    0 -0.28078387629E+02 -0.40197404984E+02  0.13312573061E+03  0.14186855667E+03  0.00000000000E+00 0.  1.
        -11    1    3    3    0    0 -0.65248750352E+02 -0.63419484162E+03  0.19686366214E+04  0.20692971376E+04  0.00000000000E+00 0. -1.
         22    1    1    2    0    0  0.93327137982E+02  0.67439224660E+03  0.16290532388E+03  0.70003785720E+03  0.00000000000E+00 0.  1.
<mgrwt>
<rscale>  0 0.18293131E+04</rscale>
<asrwt>0</asrwt>
<pdfrwt beam="1">  1        1 0.39814393E+00 0.18293131E+04</pdfrwt>
<pdfrwt beam="2">  1       -1 0.49733531E-01 0.18293131E+04</pdfrwt>
<totfact> 0.44959200E+00</totfact>
</mgrwt>
</event>
<event>
 6    1  0.9562506E-007  0.4648448E+04  0.7818608E-02  0.7885151E-01
          2   -1    0    0  501    0  0.00000000000E+00  0.00000000000E+00  0.21367017030E+04  0.21367017030E+04  0.00000000000E+00 0. -1.
         -2   -1    0    0    0  501 -0.00000000000E+00 -0.00000000000E+00 -0.25282032612E+04  0.25282032612E+04  0.00000000000E+00 0.  1.
         23    2    1    2    0    0 -0.18431962265E+04  0.14925105444E+03 -0.16072931473E+04  0.24518081758E+04  0.91235208078E+02 0.  0.
         13    1    3    3    0    0 -0.31859698415E+03 -0.34513054924E+01 -0.30130123711E+03  0.43851839790E+03  0.00000000000E+00 0.  1.
        -13    1    3    3    0    0 -0.15245992424E+04  0.15270235993E+03 -0.13059919101E+04  0.20132897779E+04  0.00000000000E+00 0. -1.
         22    1    1    2    0    0  0.18431962265E+04 -0.14925105444E+03  0.12157915890E+04  0.22130967884E+04  0.00000000000E+00 0. -1.
<mgrwt>
<rscale>  0 0.46484476E+04</rscale>
<asrwt>0</asrwt>
<pdfrwt beam="1">  1        2 0.32872334E+00 0.46484476E+04</pdfrwt>
<pdfrwt beam="2">  1       -2 0.38895435E+00 0.46484476E+04</pdfrwt>
<totfact> 0.36766964E-02</totfact>
</mgrwt>
</event>
<event>
 6    1  0.9562506E-007  0.2957863E+04  0.7818608E-02  0.8255867E-01
         -2   -1    0    0    0  501 -0.00000000000E+00  0.00000000000E+00  0.16784284399E+04  0.16784284399E+04  0.00000000000E+00 0.  1.
          2   -1    0    0  501    0  0.00000000000E+00 -0.00000000000E+00 -0.13031469423E+04  0.13031469423E+04  0.00000000000E+00 0. -1.
         23    2    1    2    0    0 -0.20795297074E+03  0.14596218664E+04  0.28466991423E+03  0.15044325691E+04  0.92411926345E+02 0.  0.
         11    1    3    3    0    0 -0.10300637814E+03  0.99152913238E+03  0.21345512644E+03  0.10194623217E+04  0.00000000000E+00 0.  1.
        -11    1    3    3    0    0 -0.10494659260E+03  0.46809273401E+03  0.71214787793E+02  0.48497024747E+03  0.00000000000E+00 0. -1.
         22    1    1    2    0    0  0.20795297074E+03 -0.14596218664E+04  0.90611583371E+02  0.14771428130E+04  0.00000000000E+00 0. -1.
<mgrwt>
<rscale>  0 0.29578633E+04</rscale>
<asrwt>0</asrwt>
<pdfrwt beam="1">  1        2 0.20048415E+00 0.29578633E+04</pdfrwt>
<pdfrwt beam="2">  1       -2 0.25821976E+00 0.29578633E+04</pdfrwt>
<totfact> 0.80897427E-01</totfact>
</mgrwt>
</event>
<event>
 6    1  0.9562506E-007  0.4484903E+04  0.7818608E-02  0.7913285E-01
         -2   -1    0    0    0  501 -0.00000000000E+00  0.00000000000E+00  0.13132546213E+04  0.13132546213E+04  0.00000000000E+00 0.  1.
          2   -1    0    0  501    0  0.00000000000E+00 -0.00000000000E+00 -0.38291044645E+04  0.38291044645E+04  0.00000000000E+00 0. -1.
         23    2    1    2    0    0 -0.22279359565E+04  0.21359655975E+03 -0.13987349919E+04  0.26409059666E+04  0.92750366069E+02 0.  0.
         11    1    3    3    0    0 -0.10512335256E+04  0.65092642001E+02 -0.62293471735E+03  0.12236734203E+04  0.00000000000E+00 0. -1.
        -11    1    3    3    0    0 -0.11767024309E+04  0.14850391774E+03 -0.77580027454E+03  0.14172325463E+04  0.00000000000E+00 0.  1.
         22    1    1    2    0    0  0.22279359565E+04 -0.21359655975E+03 -0.11171148513E+04  0.25014531192E+04  0.00000000000E+00 0.  1.
<mgrwt>
<rscale>  0 0.44849032E+04</rscale>
<asrwt>0</asrwt>
<pdfrwt beam="1">  1        2 0.58909299E+00 0.44849032E+04</pdfrwt>
<pdfrwt beam="2">  1       -2 0.20203917E+00 0.44849032E+04</pdfrwt>
<totfact> 0.45501442E-02</totfact>
</mgrwt>
</event>
<event>
 6    1  0.9562506E-007  0.2869125E+04  0.7818608E-02  0.8282123E-01
          1   -1    0    0  501    0  0.00000000000E+00  0.00000000000E+00  0.16294166430E+04  0.16294166430E+04  0.00000000000E+00 0. -1.
         -1   -1    0    0    0  501 -0.00000000000E+00 -0.00000000000E+00 -0.12630100099E+04  0.12630100099E+04  0.00000000000E+00 0.  1.
         23    2    1    2    0    0 -0.60928077550E+03 -0.23237654172E+03  0.14698086897E+04  0.16107410366E+04  0.94483766719E+02 0.  0.
         13    1    3    3    0    0 -0.53558521602E+03 -0.23058282073E+03  0.12608105558E+04  0.13891231834E+04  0.00000000000E+00 0.  1.
        -13    1    3    3    0    0 -0.73695559488E+02 -0.17937209865E+01  0.20899813389E+03  0.22161785328E+03  0.00000000000E+00 0. -1.
         22    1    1    2    0    0  0.60928077550E+03  0.23237654172E+03 -0.11034020566E+04  0.12816856163E+04  0.00000000000E+00 0.  1.
<mgrwt>
<rscale>  0 0.28691250E+04</rscale>
<asrwt>0</asrwt>
<pdfrwt beam="1">  1        1 0.25067949E+00 0.28691250E+04</pdfrwt>
<pdfrwt beam="2">  1       -1 0.19430923E+00 0.28691250E+04</pdfrwt>
<totfact> 0.75568350E-01</totfact>
</mgrwt>
</event>
<event>
 6    1  0.9562506E-007  0.2383829E+04  0.7818608E-02  0.8445583E-01
         -1   -1    0    0    0  501 -0.00000000000E+00  0.00000000000E+00  0.92945950237E+03  0.92945950237E+03  0.00000000000E+00 0.  1.
          1   -1    0    0  501    0  0.00000000000E+00 -0.00000000000E+00 -0.15284798823E+04  0.15284798823E+04  0.00000000000E+00 0. -1.
         23    2    1    2    0    0 -0.55959367332E+03  0.32241117570E+03  0.73077341180E+03  0.97961412481E+03  0.92303893244E+02 0.  0.
         13    1    3    3    0    0 -0.10391076747E+03  0.24120365473E+02  0.14143662817E+03  0.17715405559E+03  0.00000000000E+00 0.  1.
        -13    1    3    3    0    0 -0.45568290585E+03  0.29829081022E+03  0.58933678363E+03  0.80246006922E+03  0.00000000000E+00 0. -1.
         22    1    1    2    0    0  0.55959367332E+03 -0.32241117570E+03 -0.13297937917E+04  0.14783252599E+04  0.00000000000E+00 0. -1.
<mgrwt>
<rscale>  0 0.23838290E+04</rscale>
<asrwt>0</asrwt>
<pdfrwt beam="1">  1        1 0.23515075E+00 0.23838290E+04</pdfrwt>
<pdfrwt beam="2">  1       -1 0.14299377E+00 0.23838290E+04</pdfrwt>
<totfact> 0.22240186E+00</totfact>
</mgrwt>
</event>
<event>
 6    1  0.9562506E-007  0.1093808E+04  0.7818608E-02  0.9211249E-01
         -2   -1    0    0    0  501 -0.00000000000E+00  0.00000000000E+00  0.24743216434E+03  0.24743216434E+03  0.00000000000E+00 0.  1.
          2   -1    0    0  501    0  0.00000000000E+00 -0.00000000000E+00 -0.12088313371E+04  0.12088313371E+04  0.00000000000E+00 0. -1.
         23    2    1    2    0    0 -0.98997803137E+02 -0.30914927302E+03 -0.10640781391E+04  0.11157979258E+04  0.85842221750E+02 0.  0.
         13    1    3    3    0    0 -0.85735611687E+02 -0.26182954959E+03 -0.98400692680E+03  0.10218487854E+04  0.00000000000E+00 0.  1.
        -13    1    3    3    0    0 -0.13262191450E+02 -0.47319723427E+02 -0.80071212319E+02  0.93949140441E+02  0.00000000000E+00 0. -1.
         22    1    1    2    0    0  0.98997803137E+02  0.30914927302E+03  0.10267896639E+03  0.34046557560E+03  0.00000000000E+00 0.  1.
<mgrwt>
<rscale>  0 0.10938076E+04</rscale>
<asrwt>0</asrwt>
<pdfrwt beam="1">  1        2 0.18597405E+00 0.10938076E+04</pdfrwt>
<pdfrwt beam="2">  1       -2 0.38066487E-01 0.10938076E+04</pdfrwt>
<totfact> 0.12096991E+02</totfact>
</mgrwt>
</event>
<event>
 6    1  0.9562506E-007  0.2089353E+04  0.7818608E-02  0.8565948E-01
          1   -1    0    0  501    0  0.00000000000E+00  0.00000000000E+00  0.46114420393E+03  0.46114420393E+03  0.00000000000E+00 0. -1.
         -1   -1    0    0    0  501 -0.00000000000E+00 -0.00000000000E+00 -0.23666118177E+04  0.23666118177E+04  0.00000000000E+00 0.  1.
         23    2    1    2    0    0 -0.27415990115E+03  0.54923435644E+03 -0.20952754610E+04  0.21852227162E+04  0.90537462234E+02 0.  0.
         13    1    3    3    0    0 -0.90427058540E+02  0.11470677487E+03 -0.41405719052E+03  0.43906497712E+03  0.00000000000E+00 0. -1.
        -13    1    3    3    0    0 -0.18373284261E+03  0.43452758157E+03 -0.16812182705E+04  0.17461577391E+04  0.00000000000E+00 0.  1.
         22    1    1    2    0    0  0.27415990115E+03 -0.54923435644E+03  0.18980784727E+03  0.64253330542E+03  0.00000000000E+00 0. -1.
<mgrwt>
<rscale>  0 0.20893533E+04</rscale>
<asrwt>0</asrwt>
<pdfrwt beam="1">  1        1 0.70945261E-01 0.20893533E+04</pdfrwt>
<pdfrwt beam="2">  1       -1 0.36409413E+00 0.20893533E+04</pdfrwt>
<totfact> 0.57145592E-01</totfact>
</mgrwt>
</event>
<event>
 6    1  0.9562506E-007  0.8260460E+03  0.7818608E-02  0.9523063E-01
         -2   -1    0    0    0  501 -0.00000000000E+00  0.00000000000E+00  0.72057619013E+02  0.72057619013E+02  0.00000000000E+00 0.  1.
          2   -1    0    0  501    0  0.00000000000E+00 -0.00000000000E+00 -0.23673829938E+04  0.23673829938E+04  0.00000000000E+00 0. -1.
         23    2    1    2    0    0  0.32063702241E+03 -0.23264767528E+03 -0.87397781353E+03  0.96391971129E+03  0.91492897620E+02 0.  0.
         13    1    3    3    0    0  0.15602828729E+03 -0.66919740194E+02 -0.30918198494E+03  0.35272734212E+03  0.00000000000E+00 0.  1.
        -13    1    3    3    0    0  0.16460873511E+03 -0.16572793509E+03 -0.56479582859E+03  0.61119236917E+03  0.00000000000E+00 0. -1.
         22    1    1    2    0    0 -0.32063702241E+03  0.23264767528E+03 -0.14213475613E+04  0.14755209015E+04  0.00000000000E+00 0. -1.
<mgrwt>
<rscale>  0 0.82604596E+03</rscale>
<asrwt>0</asrwt>
<pdfrwt beam="1">  1        2 0.36421271E+00 0.82604596E+03</pdfrwt>
<pdfrwt beam="2">  1       -2 0.11085789E-01 0.82604596E+03</pdfrwt>
<totfact> 0.24712929E+02</totfact>
</mgrwt>
</event>
<event>
 6    1  0.9562506E-007  0.2987654E+04  0.7818608E-02  0.8247265E-01
         -2   -1    0    0    0  501 -0.00000000000E+00  0.00000000000E+00  0.14201142862E+04  0.14201142862E+04  0.00000000000E+00 0.  1.
          2   -1    0    0  501    0  0.00000000000E+00 -0.00000000000E+00 -0.15713655241E+04  0.15713655241E+04  0.00000000000E+00 0. -1.
         23    2    1    2    0    0 -0.13525586655E+04  0.31184169727E+03 -0.62479590356E+03  0.15248834997E+04  0.90772125837E+02 0.  0.
         13    1    3    3    0    0 -0.82652909053E+03  0.14898455553E+03 -0.39720915323E+03  0.92904351173E+03  0.00000000000E+00 0. -1.
        -13    1    3    3    0    0 -0.52602957498E+03  0.16285714173E+03 -0.22758675033E+03  0.59583998799E+03  0.00000000000E+00 0.  1.
         22    1    1    2    0    0  0.13525586655E+04 -0.31184169727E+03  0.47354466572E+03  0.14665963106E+04  0.00000000000E+00 0.  1.
<mgrwt>
<rscale>  0 0.29876537E+04</rscale>
<asrwt>0</asrwt>
<pdfrwt beam="1">  1        2 0.24174854E+00 0.29876537E+04</pdfrwt>
<pdfrwt beam="2">  1       -2 0.21847912E+00 0.29876537E+04</pdfrwt>
<totfact> 0.10021322E+00</totfact>
</mgrwt>
</event>
<event>
 6    1  0.9562506E-007  0.2445663E+04  0.7818608E-02  0.8422603E-01
          1   -1    0    0  501    0  0.00000000000E+00  0.00000000000E+00  0.16116660314E+04  0.16116660314E+04  0.00000000000E+00 0. -1.
         -1   -1    0    0    0  501 -0.00000000000E+00 -0.00000000000E+00 -0.92780838779E+03  0.92780838779E+03  0.00000000000E+00 0.  1.
         23    2    1    2    0    0  0.10708980776E+04  0.43830435855E+03  0.74738264769E+03  0.13806090994E+04  0.92559494622E+02 0.  0.
         13    1    3    3    0    0  0.86751174901E+03  0.31560690334E+03  0.60333762980E+03  0.11028148746E+04  0.00000000000E+00 0. -1.
        -13    1    3    3    0    0  0.20338632856E+03  0.12269745521E+03  0.14404501789E+03  0.27779422481E+03  0.00000000000E+00 0.  1.
         22    1    1    2    0    0 -0.10708980776E+04 -0.43830435855E+03 -0.63525004074E+02  0.11588653198E+04  0.00000000000E+00 0.  1.
<mgrwt>
<rscale>  0 0.24456633E+04</rscale>
<asrwt>0</asrwt>
<pdfrwt beam="1">  1        1 0.24794862E+00 0.24456633E+04</pdfrwt>
<pdfrwt beam="2">  1       -1 0.14273975E+00 0.24456633E+04</pdfrwt>
<totfact> 0.19477017E+00</totfact>
</mgrwt>
</event>
<event>
 6    1  0.9562506E-007  0.1350447E+04  0.7818608E-02  0.8990490E-01
         -1   -1    0    0    0  501 -0.00000000000E+00  0.00000000000E+00  0.73670985191E+03  0.73670985191E+03  0.00000000000E+00 0.  1.
          1   -1    0    0  501    0  0.00000000000E+00 -0.00000000000E+00 -0.61886878083E+03  0.61886878083E+03  0.00000000000E+00 0. -1.
         23    2    1    2    0    0  0.53633030519E+03  0.39254064585E+03 -0.42323936362E+02  0.67191849458E+03  0.89133567560E+02 0.  0.
         13    1    3    3    0    0  0.24749430300E+03  0.14242420029E+03 -0.49312512566E+02  0.28977544192E+03  0.00000000000E+00 0. -1.
        -13    1    3    3    0    0  0.28883600219E+03  0.25011644556E+03  0.69885762044E+01  0.38214305266E+03  0.00000000000E+00 0.  1.
         22    1    1    2    0    0 -0.53633030519E+03 -0.39254064585E+03  0.16016500744E+03  0.68366013816E+03  0.00000000000E+00 0.  1.
<mgrwt>
<rscale>  0 0.13504469E+04</rscale>
<asrwt>0</asrwt>
<pdfrwt beam="1">  1        1 0.95210582E-01 0.13504469E+04</pdfrwt>
<pdfrwt beam="2">  1       -1 0.11333998E+00 0.13504469E+04</pdfrwt>
<totfact> 0.22786048E+01</totfact>
</mgrwt>
</event>
<event>
 6    1  0.9562506E-007  0.3823073E+03  0.7818608E-02  0.1050084E+00
         -2   -1    0    0    0  501 -0.00000000000E+00  0.00000000000E+00  0.17697365461E+02  0.17697365461E+02  0.00000000000E+00 0.  1.
          2   -1    0    0  501    0  0.00000000000E+00 -0.00000000000E+00 -0.20646980198E+04  0.20646980198E+04  0.00000000000E+00 0. -1.
         23    2    1    2    0    0 -0.31698726031E+02  0.16029606694E+03 -0.14945817599E+04  0.15063170284E+04  0.92286048362E+02 0.  0.
         11    1    3    3    0    0 -0.60486420420E+02  0.13961857538E+03 -0.11972088157E+04  0.12068392196E+04  0.00000000000E+00 0. -1.
        -11    1    3    3    0    0  0.28787694389E+02  0.20677491560E+02 -0.29737294425E+03  0.29947780882E+03  0.00000000000E+00 0.  1.
         22    1    1    2    0    0  0.31698726031E+02 -0.16029606694E+03 -0.55241889445E+03  0.57607835687E+03  0.00000000000E+00 0. -1.
<mgrwt>
<rscale>  0 0.38230729E+03</rscale>
<asrwt>0</asrwt>
<pdfrwt beam="1">  1        2 0.31764559E+00 0.38230729E+03</pdfrwt>
<pdfrwt beam="2">  1       -2 0.27226738E-02 0.38230729E+03</pdfrwt>
<totfact> 0.33486505E+03</totfact>
</mgrwt>
</event>
<event>
 6    1  0.9562506E-007  0.3589202E+04  0.7818608E-02  0.8092970E-01
          2   -1    0    0  501    0  0.00000000000E+00  0.00000000000E+00  0.19678761808E+04  0.19678761808E+04  0.00000000000E+00 0. -1.
         -2   -1    0    0    0  501 -0.00000000000E+00 -0.00000000000E+00 -0.16365833028E+04  0.16365833028E+04  0.00000000000E+00 0.  1.
         23    2    1    2    0    0 -0.15042849226E+04  0.96214033892E+03  0.33306858370E+03  0.18187970538E+04  0.92200224754E+02 0.  0.
         11    1    3    3    0    0 -0.39909925500E+03  0.21895554675E+03  0.58446940797E+02  0.45895292970E+03  0.00000000000E+00 0. -1.
        -11    1    3    3    0    0 -0.11051856676E+04  0.74318479217E+03  0.27462164290E+03  0.13598441241E+04  0.00000000000E+00 0.  1.
         22    1    1    2    0    0  0.15042849226E+04 -0.96214033892E+03 -0.17757056580E+01  0.17856624298E+04  0.00000000000E+00 0. -1.
<mgrwt>
<rscale>  0 0.35892023E+04</rscale>
<asrwt>0</asrwt>
<pdfrwt beam="1">  1        2 0.30275018E+00 0.35892023E+04</pdfrwt>
<pdfrwt beam="2">  1       -2 0.25178205E+00 0.35892023E+04</pdfrwt>
<totfact> 0.35587783E-01</totfact>
</mgrwt>
</event>
<event>
 6    1  0.9562506E-007  0.1520183E+04  0.7818608E-02  0.8871141E-01
          2   -1    0    0  501    0  0.00000000000E+00  0.00000000000E+00  0.68011687504E+03  0.68011687504E+03  0.00000000000E+00 0. -1.
         -2   -1    0    0    0  501 -0.00000000000E+00 -0.00000000000E+00 -0.84947000955E+03  0.84947000955E+03  0.00000000000E+00 0.  1.
         23    2    1    2    0    0  0.63833147699E+03  0.40641303275E+03 -0.26226125920E+02  0.75944146437E+03  0.58522648728E+02 0.  0.
         11    1    3    3    0    0  0.11464600091E+03  0.66091224245E+02 -0.26141253450E+02  0.13488929008E+03  0.00000000000E+00 0.  1.
        -11    1    3    3    0    0  0.52368547608E+03  0.34032180850E+03 -0.84872469943E-01  0.62455217429E+03  0.00000000000E+00 0. -1.
         22    1    1    2    0    0 -0.63833147699E+03 -0.40641303275E+03 -0.14312700859E+03  0.77014542022E+03  0.00000000000E+00 0.  1.
<mgrwt>
<rscale>  0 0.15201827E+04</rscale>
<asrwt>0</asrwt>
<pdfrwt beam="1">  1        2 0.10463337E+00 0.15201827E+04</pdfrwt>
<pdfrwt beam="2">  1       -2 0.13068769E+00 0.15201827E+04</pdfrwt>
<totfact> 0.17560866E+01</totfact>
</mgrwt>
</event>
<event>
 6    1  0.9562506E-007  0.1252071E+04  0.7818608E-02  0.9068461E-01
         -2   -1    0    0    0  501 -0.00000000000E+00  0.00000000000E+00  0.13473653858E+04  0.13473653858E+04  0.00000000000E+00 0.  1.
          2   -1    0    0  501    0  0.00000000000E+00 -0.00000000000E+00 -0.29087926272E+03  0.29087926272E+03  0.00000000000E+00 0. -1.
         23    2    1    2    0    0  0.28157433192E+03 -0.50812602145E+03  0.82435649542E+03  0.10126566674E+04  0.91835377037E+02 0.  0.
         11    1    3    3    0    0  0.65162490599E+02 -0.18653767888E+03  0.23193761123E+03  0.30469248650E+03  0.00000000000E+00 0.  1.
        -11    1    3    3    0    0  0.21641184132E+03 -0.32158834256E+03  0.59241888419E+03  0.70796418093E+03  0.00000000000E+00 0. -1.
         22    1    1    2    0    0 -0.28157433192E+03  0.50812602145E+03  0.23212962769E+03  0.62558798111E+03  0.00000000000E+00 0.  1.
<mgrwt>
<rscale>  0 0.12520713E+04</rscale>
<asrwt>0</asrwt>
<pdfrwt beam="1">  1        2 0.44750656E-01 0.12520713E+04</pdfrwt>
<pdfrwt beam="2">  1       -2 0.20728698E+00 0.12520713E+04</pdfrwt>
<totfact> 0.13316474E+01</totfact>
</mgrwt>
</event>
<event>
 6    1  0.9562506E-007  0.2805434E+04  0.7818608E-02  0.8301583E-01
         -1   -1    0    0    0  501 -0.00000000000E+00  0.00000000000E+00  0.80346482116E+03  0.80346482116E+03  0.00000000000E+00 0.  1.
          1   -1    0    0  501    0  0.00000000000E+00 -0.00000000000E+00 -0.24489127238E+04  0.24489127238E+04  0.00000000000E+00 0. -1.
         23    2    1    2    0    0 -0.11896158046E+04 -0.74033288460E+03 -0.82031447746E+03  0.16263013746E+04  0.93068666102E+02 0.  0.
         11    1    3    3    0    0 -0.10686023793E+04 -0.64025204825E+03 -0.70410827984E+03  0.14309445133E+04  0.00000000000E+00 0.  1.
        -11    1    3    3    0    0 -0.12101342521E+03 -0.10008083635E+03 -0.11620619762E+03  0.19535686129E+03  0.00000000000E+00 0. -1.
         22    1    1    2    0    0  0.11896158046E+04  0.74033288460E+03 -0.82513342519E+03  0.16260761704E+04  0.00000000000E+00 0. -1.
<mgrwt>
<rscale>  0 0.28054342E+04</rscale>
<asrwt>0</asrwt>
<pdfrwt beam="1">  1        1 0.37675580E+00 0.28054342E+04</pdfrwt>
<pdfrwt beam="2">  1       -1 0.12360997E+00 0.28054342E+04</pdfrwt>
<totfact> 0.73155037E-01</totfact>
</mgrwt>
</event>
<event>
 6    1  0.9562506E-007  0.3043930E+03  0.7818608E-02  0.1083065E+00
          2   -1    0    0  501    0  0.00000000000E+00  0.00000000000E+00  0.62656172928E+03  0.62656172928E+03  0.00000000000E+00 0. -1.
         -2   -1    0    0    0  501 -0.00000000000E+00 -0.00000000000E+00 -0.36969657059E+02  0.36969657059E+02  0.00000000000E+00 0.  1.
         23    2    1    2    0    0  0.99894650298E+02  0.26009008329E+02  0.52301990370E+03  0.54070116492E+03  0.90291308580E+02 0.  0.
         13    1    3    3    0    0 -0.19666946003E+01  0.87045180651E+01  0.15049499293E+01  0.90499390433E+01  0.00000000000E+00 0.  1.
        -13    1    3    3    0    0  0.10186134490E+03  0.17304490264E+02  0.52151495377E+03  0.53165122588E+03  0.00000000000E+00 0. -1.
         22    1    1    2    0    0 -0.99894650298E+02 -0.26009008329E+02  0.66572168517E+02  0.12283022142E+03  0.00000000000E+00 0.  1.
<mgrwt>
<rscale>  0 0.30439298E+03</rscale>
<asrwt>0</asrwt>
<pdfrwt beam="1">  1        2 0.96394104E-01 0.30439298E+03</pdfrwt>
<pdfrwt beam="2">  1       -2 0.56876400E-02 0.30439298E+03</pdfrwt>
<totfact> 0.77042750E+03</totfact>
</mgrwt>
</event>
<event>
 6    1  0.9562506E-007  0.2390913E+04  0.7818608E-02  0.8442913E-01
         -1   -1    0    0    0  501 -0.00000000000E+00  0.00000000000E+00  0.86811058901E+03  0.86811058901E+03  0.00000000000E+00 0.  1.
          1   -1    0    0  501    0  0.00000000000E+00 -0.00000000000E+00 -0.16462375499E+04  0.16462375499E+04  0.00000000000E+00 0. -1.
         23    2    1    2    0    0  0.33703757370E+03 -0.45745251386E+03  0.71436579920E+03  0.91735353420E+03  0.91443332748E+02 0.  0.
         13    1    3    3    0    0  0.17293893163E+03 -0.29890907272E+03  0.46711694641E+03  0.58090683371E+03  0.00000000000E+00 0. -1.
        -13    1    3    3    0    0  0.16409864208E+03 -0.15854344114E+03  0.24724885279E+03  0.33644670049E+03  0.00000000000E+00 0.  1.
         22    1    1    2    0    0 -0.33703757370E+03  0.45745251386E+03 -0.14924927601E+04  0.15969946047E+04  0.00000000000E+00 0. -1.
<mgrwt>
<rscale>  0 0.23909130E+04</rscale>
<asrwt>0</asrwt>
<pdfrwt beam="1">  1        1 0.25326731E+00 0.23909130E+04</pdfrwt>
<pdfrwt beam="2">  1       -1 0.13355548E+00 0.23909130E+04</pdfrwt>
<totfact> 0.22026665E+00</totfact>
</mgrwt>
</event>
<event>
 6    1  0.9562506E-007  0.6065226E+04  0.7818608E-02  0.7682367E-01
          2   -1    0    0  501    0  0.00000000000E+00  0.00000000000E+00  0.23129776979E+04  0.23129776979E+04  0.00000000000E+00 0. -1.
         -2   -1    0    0    0  501 -0.00000000000E+00 -0.00000000000E+00 -0.39761474184E+04  0.39761474184E+04  0.00000000000E+00 0.  1.
         23    2    1    2    0    0  0.41028762284E+03  0.20797341028E+04 -0.30795111839E+04  0.37396834101E+04  0.90625627637E+02 0.  0.
         13    1    3    3    0    0  0.28849242874E+03  0.12351716822E+04 -0.18297117609E+04  0.22263697118E+04  0.00000000000E+00 0.  1.
        -13    1    3    3    0    0  0.12179519410E+03  0.84456242066E+03 -0.12497994230E+04  0.15133136983E+04  0.00000000000E+00 0. -1.
         22    1    1    2    0    0 -0.41028762284E+03 -0.20797341028E+04  0.14163414634E+04  0.25494417061E+04  0.00000000000E+00 0. -1.
<mgrwt>
<rscale>  0 0.60652256E+04</rscale>
<asrwt>0</asrwt>
<pdfrwt beam="1">  1        2 0.35584273E+00 0.60652256E+04</pdfrwt>
<pdfrwt beam="2">  1       -2 0.61171498E+00 0.60652256E+04</pdfrwt>
<totfact> 0.13966867E-03</totfact>
</mgrwt>
</event>
<event>
 6    1  0.9562506E-007  0.1924403E+04  0.7818608E-02  0.8642804E-01
          2   -1    0    0  501    0  0.00000000000E+00  0.00000000000E+00  0.31478938511E+04  0.31478938511E+04  0.00000000000E+00 0. -1.
         -2   -1    0    0    0  501 -0.00000000000E+00 -0.00000000000E+00 -0.29411157660E+03  0.29411157660E+03  0.00000000000E+00 0.  1.
         23    2    1    2    0    0  0.90287916759E+03 -0.16387152106E+03  0.92569990036E+03  0.13066960103E+04  0.92138434079E+02 0.  0.
         11    1    3    3    0    0  0.55722082249E+03 -0.14589139408E+03  0.56819048017E+03  0.80908575914E+03  0.00000000000E+00 0.  1.
        -11    1    3    3    0    0  0.34565834510E+03 -0.17980126983E+02  0.35750942019E+03  0.49761025113E+03  0.00000000000E+00 0. -1.
         22    1    1    2    0    0 -0.90287916759E+03  0.16387152106E+03  0.19280823741E+04  0.21353094174E+04  0.00000000000E+00 0.  1.
<mgrwt>
<rscale>  0 0.19244033E+04</rscale>
<asrwt>0</asrwt>
<pdfrwt beam="1">  1        2 0.48429134E+00 0.19244033E+04</pdfrwt>
<pdfrwt beam="2">  1       -2 0.45247937E-01 0.19244033E+04</pdfrwt>
<totfact> 0.60926488E+00</totfact>
</mgrwt>
</event>
<event>
 6    1  0.9562506E-007  0.3557904E+04  0.7818608E-02  0.8100203E-01
          1   -1    0    0  501    0  0.00000000000E+00  0.00000000000E+00  0.13827449376E+04  0.13827449376E+04  0.00000000000E+00 0. -1.
         -1   -1    0    0    0  501 -0.00000000000E+00 -0.00000000000E+00 -0.22886873708E+04  0.22886873708E+04  0.00000000000E+00 0.  1.
         23    2    1    2    0    0  0.15081437836E+04 -0.25457640264E+03  0.48192537977E+03  0.16061275165E+04  0.89926141686E+02 0.  0.
         11    1    3    3    0    0  0.10145677063E+04 -0.21320143730E+03  0.33409540769E+03  0.10892301066E+04  0.00000000000E+00 0.  1.
        -11    1    3    3    0    0  0.49357607726E+03 -0.41374965342E+02  0.14782997207E+03  0.51689740998E+03  0.00000000000E+00 0. -1.
         22    1    1    2    0    0 -0.15081437836E+04  0.25457640264E+03 -0.13878678130E+04  0.20653047918E+04  0.00000000000E+00 0.  1.
<mgrwt>
<rscale>  0 0.35579044E+04</rscale>
<asrwt>0</asrwt>
<pdfrwt beam="1">  1        1 0.21272999E+00 0.35579044E+04</pdfrwt>
<pdfrwt beam="2">  1       -1 0.35210575E+00 0.35579044E+04</pdfrwt>
<totfact> 0.96468161E-02</totfact>
</mgrwt>
</event>
<event>
 6    1  0.9562506E-007  0.2792599E+04  0.7818608E-02  0.8305570E-01
          1   -1    0    0  501    0  0.00000000000E+00  0.00000000000E+00  0.20392411851E+04  0.20392411851E+04  0.00000000000E+00 0. -1.
         -1   -1    0    0    0  501 -0.00000000000E+00 -0.00000000000E+00 -0.95606765663E+03  0.95606765663E+03  0.00000000000E+00 0.  1.
         23    2    1    2    0    0  0.10534896983E+04 -0.14850660531E+03  0.15098758195E+04  0.18490237108E+04  0.85258059935E+02 0.  0.
         11    1    3    3    0    0  0.38763781165E+03 -0.36263856250E+02  0.61700240832E+03  0.72956844241E+03  0.00000000000E+00 0. -1.
        -11    1    3    3    0    0  0.66585188665E+03 -0.11224274906E+03  0.89287341113E+03  0.11194552684E+04  0.00000000000E+00 0.  1.
         22    1    1    2    0    0 -0.10534896983E+04  0.14850660531E+03 -0.42670229098E+03  0.11462851309E+04  0.00000000000E+00 0. -1.
<mgrwt>
<rscale>  0 0.27925992E+04</rscale>
<asrwt>0</asrwt>
<pdfrwt beam="1">  1        1 0.31372941E+00 0.27925992E+04</pdfrwt>
<pdfrwt beam="2">  1       -1 0.14708733E+00 0.27925992E+04</pdfrwt>
<totfact> 0.89282175E-01</totfact>
</mgrwt>
</event>
<event>
 6    1  0.9562506E-007  0.2344070E+04  0.7818608E-02  0.8460745E-01
         -2   -1    0    0    0  501 -0.00000000000E+00  0.00000000000E+00  0.60042012683E+03  0.60042012683E+03  0.00000000000E+00 0.  1.
          2   -1    0    0  501    0  0.00000000000E+00 -0.00000000000E+00 -0.22878416578E+04  0.22878416578E+04  0.00000000000E+00 0. -1.
         23    2    1    2    0    0  0.10722554191E+04 -0.18623290481E+03 -0.31465381022E+03  0.11364325710E+04  0.89764077390E+02 0.  0.
         11    1    3    3    0    0  0.42104521666E+03 -0.11028550836E+03 -0.10029417410E+03  0.44665522406E+03  0.00000000000E+00 0.  1.
        -11    1    3    3    0    0  0.65121020241E+03 -0.75947396448E+02 -0.21435963611E+03  0.68977734694E+03  0.00000000000E+00 0. -1.
         22    1    1    2    0    0 -0.10722554191E+04  0.18623290481E+03 -0.13727677207E+04  0.17518292136E+04  0.00000000000E+00 0. -1.
<mgrwt>
<rscale>  0 0.23440701E+04</rscale>
<asrwt>0</asrwt>
<pdfrwt beam="1">  1        2 0.35197564E+00 0.23440701E+04</pdfrwt>
<pdfrwt beam="2">  1       -2 0.92372326E-01 0.23440701E+04</pdfrwt>
<totfact> 0.41396390E+00</totfact>
</mgrwt>
</event>
<event>
 6    1  0.9562506E-007  0.1180913E+04  0.7818608E-02  0.9129730E-01
          1   -1    0    0  501    0  0.00000000000E+00  0.00000000000E+00  0.11273867412E+04  0.11273867412E+04  0.00000000000E+00 0. -1.
         -1   -1    0    0    0  501 -0.00000000000E+00 -0.00000000000E+00 -0.30924488916E+03  0.30924488916E+03  0.00000000000E+00 0.  1.
         23    2    1    2    0    0 -0.40300163047E+03  0.17083027738E+03 -0.64109700464E+02  0.45176559900E+03  0.91590419308E+02 0.  0.
         13    1    3    3    0    0 -0.13845425692E+03  0.61564114461E+02 -0.66636877931E+02  0.16553004244E+03  0.00000000000E+00 0. -1.
        -13    1    3    3    0    0 -0.26454737355E+03  0.10926616292E+03  0.25271774679E+01  0.28623555656E+03  0.00000000000E+00 0.  1.
         22    1    1    2    0    0  0.40300163047E+03 -0.17083027738E+03  0.88225155248E+03  0.98486603134E+03  0.00000000000E+00 0. -1.
<mgrwt>
<rscale>  0 0.11809125E+04</rscale>
<asrwt>0</asrwt>
<pdfrwt beam="1">  1        1 0.17344411E+00 0.11809125E+04</pdfrwt>
<pdfrwt beam="2">  1       -1 0.47576137E-01 0.11809125E+04</pdfrwt>
<totfact> 0.52840936E+01</totfact>
</mgrwt>
</event>
<event>
 6    1  0.9562506E-007  0.2908628E+04  0.7818608E-02  0.8270315E-01
         -2   -1    0    0    0  501 -0.00000000000E+00  0.00000000000E+00  0.10067306733E+04  0.10067306733E+04  0.00000000000E+00 0.  1.
          2   -1    0    0  501    0  0.00000000000E+00 -0.00000000000E+00 -0.21008882304E+04  0.21008882304E+04  0.00000000000E+00 0. -1.
         23    2    1    2    0    0 -0.14257845088E+04 -0.27504358949E+03 -0.49848015312E+03  0.15381151569E+04  0.93836725829E+02 0.  0.
         13    1    3    3    0    0 -0.47520444198E+03 -0.98176990781E+02 -0.21321620388E+03  0.53001804950E+03  0.00000000000E+00 0. -1.
        -13    1    3    3    0    0 -0.95058006684E+03 -0.17686659871E+03 -0.28526394924E+03  0.10080971074E+04  0.00000000000E+00 0.  1.
         22    1    1    2    0    0  0.14257845088E+04  0.27504358949E+03 -0.59567740393E+03  0.15695037468E+04  0.00000000000E+00 0.  1.
<mgrwt>
<rscale>  0 0.29086276E+04</rscale>
<asrwt>0</asrwt>
<pdfrwt beam="1">  1        2 0.32321357E+00 0.29086276E+04</pdfrwt>
<pdfrwt beam="2">  1       -2 0.15488164E+00 0.29086276E+04</pdfrwt>
<totfact> 0.13924981E+00</totfact>
</mgrwt>
</event>
<event>
 6    1  0.9562506E-007  0.1622867E+04  0.7818608E-02  0.8806622E-01
          2   -1    0    0  501    0  0.00000000000E+00  0.00000000000E+00  0.15087989985E+04  0.15087989985E+04  0.00000000000E+00 0. -1.
         -2   -1    0    0    0  501 -0.00000000000E+00 -0.00000000000E+00 -0.43638972585E+03  0.43638972585E+03  0.00000000000E+00 0.  1.
         23    2    1    2    0    0  0.33834442311E+03 -0.29056166436E+03  0.13467282994E+04  0.14215915912E+04  0.91337342719E+02 0.  0.
         13    1    3    3    0    0  0.18487955517E+03 -0.10746695514E+03  0.71068088209E+03  0.74215693256E+03  0.00000000000E+00 0. -1.
        -13    1    3    3    0    0  0.15346486794E+03 -0.18309470922E+03  0.63604741732E+03  0.67943465861E+03  0.00000000000E+00 0.  1.
         22    1    1    2    0    0 -0.33834442311E+03  0.29056166436E+03 -0.27431902675E+03  0.52359713319E+03  0.00000000000E+00 0.  1.
<mgrwt>
<rscale>  0 0.16228671E+04</rscale>
<asrwt>0</asrwt>
<pdfrwt beam="1">  1        2 0.23212292E+00 0.16228671E+04</pdfrwt>
<pdfrwt beam="2">  1       -2 0.67136882E-01 0.16228671E+04</pdfrwt>
<totfact> 0.24454230E+01</totfact>
</mgrwt>
</event>
<event>
 6    1  0.9562506E-007  0.2733810E+04  0.7818608E-02  0.8324118E-01
          2   -1    0    0  501    0  0.00000000000E+00  0.00000000000E+00  0.22124439501E+04  0.22124439501E+04  0.00000000000E+00 0. -1.
         -2   -1    0    0    0  501 -0.00000000000E+00 -0.00000000000E+00 -0.84450904278E+03  0.84450904278E+03  0.00000000000E+00 0.  1.
         23    2    1    2    0    0 -0.13531897220E+04  0.18143362292E+03  0.70553524399E+03  0.15394504731E+04  0.89928834812E+02 0.  0.
         11    1    3    3    0    0 -0.10886800259E+04  0.14795174327E+03  0.60693052540E+03  0.12551806961E+04  0.00000000000E+00 0. -1.
        -11    1    3    3    0    0 -0.26450969614E+03  0.33481879655E+02  0.98604718589E+02  0.28426977705E+03  0.00000000000E+00 0.  1.
         22    1    1    2    0    0  0.13531897220E+04 -0.18143362292E+03  0.66239966328E+03  0.15175025197E+04  0.00000000000E+00 0.  1.
<mgrwt>
<rscale>  0 0.27338097E+04</rscale>
<asrwt>0</asrwt>
<pdfrwt beam="1">  1        2 0.34037599E+00 0.27338097E+04</pdfrwt>
<pdfrwt beam="2">  1       -2 0.12992447E+00 0.27338097E+04</pdfrwt>
<totfact> 0.19333384E+00</totfact>
</mgrwt>
</event>
<event>
 6    1  0.9562506E-007  0.1946423E+04  0.7818608E-02  0.8632088E-01
          1   -1    0    0  501    0  0.00000000000E+00  0.00000000000E+00  0.11327859521E+04  0.11327859521E+04  0.00000000000E+00 0. -1.
         -1   -1    0    0    0  501 -0.00000000000E+00 -0.00000000000E+00 -0.83611612953E+03  0.83611612953E+03  0.00000000000E+00 0.  1.
         23    2    1    2    0    0 -0.38466154578E+02 -0.43698453383E+03 -0.72772201852E+03  0.85453509901E+03  0.90640892253E+02 0.  0.
         11    1    3    3    0    0 -0.44331362490E+02 -0.27657463651E+03 -0.53354291522E+03  0.60260006774E+03  0.00000000000E+00 0.  1.
        -11    1    3    3    0    0  0.58652079115E+01 -0.16040989732E+03 -0.19417910330E+03  0.25193503127E+03  0.00000000000E+00 0. -1.
         22    1    1    2    0    0  0.38466154578E+02  0.43698453383E+03  0.10243918411E+04  0.11143669826E+04  0.00000000000E+00 0. -1.
<mgrwt>
<rscale>  0 0.19464230E+04</rscale>
<asrwt>0</asrwt>
<pdfrwt beam="1">  1        1 0.17427476E+00 0.19464230E+04</pdfrwt>
<pdfrwt beam="2">  1       -1 0.12863325E+00 0.19464230E+04</pdfrwt>
<totfact> 0.58160332E+00</totfact>
</mgrwt>
</event>
<event>
 6    1  0.9562506E-007  0.1745338E+04  0.7818608E-02  0.8735921E-01
         -2   -1    0    0    0  501 -0.00000000000E+00  0.00000000000E+00  0.32447792557E+03  0.32447792557E+03  0.00000000000E+00 0.  1.
          2   -1    0    0  501    0  0.00000000000E+00 -0.00000000000E+00 -0.23470050859E+04  0.23470050859E+04  0.00000000000E+00 0. -1.
         23    2    1    2    0    0 -0.52834565319E+03 -0.60374411117E+03 -0.15303107516E+04  0.17302428328E+04  0.90736886964E+02 0.  0.
         11    1    3    3    0    0 -0.43178329807E+03 -0.52176600843E+03 -0.13433156912E+04  0.15043848013E+04  0.00000000000E+00 0. -1.
        -11    1    3    3    0    0 -0.96562355126E+02 -0.81978102747E+02 -0.18699506045E+03  0.22585803149E+03  0.00000000000E+00 0.  1.
         22    1    1    2    0    0  0.52834565319E+03  0.60374411117E+03 -0.49221640866E+03  0.94124017869E+03  0.00000000000E+00 0. -1.
<mgrwt>
<rscale>  0 0.17453382E+04</rscale>
<asrwt>0</asrwt>
<pdfrwt beam="1">  1        2 0.36107771E+00 0.17453382E+04</pdfrwt>
<pdfrwt beam="2">  1       -2 0.49919680E-01 0.17453382E+04</pdfrwt>
<totfact> 0.15358606E+01</totfact>
</mgrwt>
</event>
<event>
 6    1  0.9562506E-007  0.4278287E+04  0.7818608E-02  0.7950645E-01
         -1   -1    0    0    0  501 -0.00000000000E+00  0.00000000000E+00  0.11729066301E+04  0.11729066301E+04  0.00000000000E+00 0.  1.
          1   -1    0    0  501    0  0.00000000000E+00 -0.00000000000E+00 -0.39013627056E+04  0.39013627056E+04  0.00000000000E+00 0. -1.
         23    2    1    2    0    0  0.17528184146E+04  0.30832848421E+03 -0.27704225787E+04  0.32940446207E+04  0.89720954498E+02 0.  0.
         11    1    3    3    0    0  0.14337554830E+04  0.24985466123E+03 -0.21993217161E+04  0.26372520069E+04  0.00000000000E+00 0. -1.
        -11    1    3    3    0    0  0.31906293155E+03  0.58473822984E+02 -0.57110086260E+03  0.65679261379E+03  0.00000000000E+00 0.  1.
         22    1    1    2    0    0 -0.17528184146E+04 -0.30832848421E+03  0.41966503221E+02  0.17802247150E+04  0.00000000000E+00 0.  1.
<mgrwt>
<rscale>  0 0.42782867E+04</rscale>
<asrwt>0</asrwt>
<pdfrwt beam="1">  1        1 0.60020966E+00 0.42782867E+04</pdfrwt>
<pdfrwt beam="2">  1       -1 0.18044717E+00 0.42782867E+04</pdfrwt>
<totfact> 0.18422796E-02</totfact>
</mgrwt>
</event>
<event>
 6    1  0.9562506E-007  0.4934710E+04  0.7818608E-02  0.7838658E-01
          2   -1    0    0  501    0  0.00000000000E+00  0.00000000000E+00  0.29134501307E+04  0.29134501307E+04  0.00000000000E+00 0. -1.
         -2   -1    0    0    0  501 -0.00000000000E+00 -0.00000000000E+00 -0.20895638239E+04  0.20895638239E+04  0.00000000000E+00 0.  1.
         23    2    1    2    0    0 -0.11717023040E+04 -0.74947598300E+03 -0.16530235493E+04  0.21622952122E+04  0.91832410154E+02 0.  0.
         13    1    3    3    0    0 -0.92872561725E+02 -0.70352195408E+02 -0.17794977892E+03  0.21269900785E+03  0.00000000000E+00 0. -1.
        -13    1    3    3    0    0 -0.10788297423E+04 -0.67912378760E+03 -0.14750737704E+04  0.19495962043E+04  0.00000000000E+00 0.  1.
         22    1    1    2    0    0  0.11717023040E+04  0.74947598300E+03  0.24769098562E+04  0.28407187425E+04  0.00000000000E+00 0. -1.
<mgrwt>
<rscale>  0 0.49347097E+04</rscale>
<asrwt>0</asrwt>
<pdfrwt beam="1">  1        2 0.44822310E+00 0.49347097E+04</pdfrwt>
<pdfrwt beam="2">  1       -2 0.32147136E+00 0.49347097E+04</pdfrwt>
<totfact> 0.33810255E-02</totfact>
</mgrwt>
</event>
<event>
 6    1  0.9562506E-007  0.5653365E+03  0.7818608E-02  0.9980052E-01
         -2   -1    0    0    0  501 -0.00000000000E+00  0.00000000000E+00  0.19783397012E+03  0.19783397012E+03  0.00000000000E+00 0.  1.
          2   -1    0    0  501    0  0.00000000000E+00 -0.00000000000E+00 -0.40388085690E+03  0.40388085690E+03  0.00000000000E+00 0. -1.
         23    2    1    2    0    0  0.79203306101E+02 -0.13696427768E+03 -0.34647365536E+03  0.39016801331E+03  0.84585505224E+02 0.  0.
         11    1    3    3    0    0  0.46328589898E+02 -0.21257637359E+02 -0.55734755221E+02  0.75528725182E+02  0.00000000000E+00 0. -1.
        -11    1    3    3    0    0  0.32874716202E+02 -0.11570664032E+03 -0.29073890014E+03  0.31463928812E+03  0.00000000000E+00 0.  1.
         22    1    1    2    0    0 -0.79203306101E+02  0.13696427768E+03  0.14042676858E+03  0.21154681371E+03  0.00000000000E+00 0.  1.
<mgrwt>
<rscale>  0 0.56533655E+03</rscale>
<asrwt>0</asrwt>
<pdfrwt beam="1">  1        2 0.62135516E-01 0.56533655E+03</pdfrwt>
<pdfrwt beam="2">  1       -2 0.30435996E-01 0.56533655E+03</pdfrwt>
<totfact> 0.78853950E+02</totfact>
</mgrwt>
</event>
<event>
 6    1  0.9562506E-007  0.2080518E+04  0.7818608E-02  0.8569874E-01
         -3   -1    0    0    0  501 -0.00000000000E+00  0.00000000000E+00  0.98092447854E+03  0.98092447854E+03  0.00000000000E+00 0.  1.
          3   -1    0    0  501    0  0.00000000000E+00 -0.00000000000E+00 -0.11031824695E+04  0.11031824695E+04  0.00000000000E+00 0. -1.
         23    2    1    2    0    0 -0.38609787487E+03 -0.83930411962E+03 -0.53581173769E+03  0.10719164148E+04  0.91693008933E+02 0.  0.
         13    1    3    3    0    0 -0.31039988410E+03 -0.73996833624E+03 -0.44564836299E+03  0.91787999767E+03  0.00000000000E+00 0. -1.
        -13    1    3    3    0    0 -0.75697990767E+02 -0.99335783387E+02 -0.90163374699E+02  0.15403641714E+03  0.00000000000E+00 0.  1.
         22    1    1    2    0    0  0.38609787487E+03  0.83930411962E+03  0.41355374671E+03  0.10121905333E+04  0.00000000000E+00 0.  1.
<mgrwt>
<rscale>  0 0.20805179E+04</rscale>
<asrwt>0</asrwt>
<pdfrwt beam="1">  1        3 0.16972038E+00 0.20805179E+04</pdfrwt>
<pdfrwt beam="2">  1       -3 0.15091146E+00 0.20805179E+04</pdfrwt>
<totfact> 0.17854321E-01</totfact>
</mgrwt>
</event>
<event>
 6    1  0.9562506E-007  0.3438993E+04  0.7818608E-02  0.8128402E-01
          1   -1    0    0  501    0  0.00000000000E+00  0.00000000000E+00  0.31966757604E+04  0.31966757604E+04  0.00000000000E+00 0. -1.
         -1   -1    0    0    0  501 -0.00000000000E+00 -0.00000000000E+00 -0.92491990528E+03  0.92491990528E+03  0.00000000000E+00 0.  1.
         23    2    1    2    0    0 -0.10756006779E+04 -0.12435780251E+04  0.53781088811E+03  0.17320416756E+04  0.85584413985E+02 0.  0.
         13    1    3    3    0    0 -0.74562957382E+03 -0.85170838319E+03  0.32889154640E+03  0.11787876317E+04  0.00000000000E+00 0.  1.
        -13    1    3    3    0    0 -0.32997110403E+03 -0.39186964196E+03  0.20891934171E+03  0.55325404393E+03  0.00000000000E+00 0. -1.
         22    1    1    2    0    0  0.10756006779E+04  0.12435780251E+04  0.17339449671E+04  0.23895539901E+04  0.00000000000E+00 0. -1.
<mgrwt>
<rscale>  0 0.34389935E+04</rscale>
<asrwt>0</asrwt>
<pdfrwt beam="1">  1        1 0.49179627E+00 0.34389935E+04</pdfrwt>
<pdfrwt beam="2">  1       -1 0.14229537E+00 0.34389935E+04</pdfrwt>
<totfact> 0.14065065E-01</totfact>
</mgrwt>
</event>
<event>
 6    1  0.9562506E-007  0.3435603E+04  0.7818608E-02  0.8129223E-01
         -2   -1    0    0    0  501 -0.00000000000E+00  0.00000000000E+00  0.16001186012E+04  0.16001186012E+04  0.00000000000E+00 0.  1.
          2   -1    0    0  501    0  0.00000000000E+00 -0.00000000000E+00 -0.18441392899E+04  0.18441392899E+04  0.00000000000E+00 0. -1.
         23    2    1    2    0    0 -0.90790118552E+02 -0.16720316795E+04 -0.50160019496E+03  0.17500678235E+04  0.84863704796E+02 0.  0.
         11    1    3    3    0    0  0.62234430462E+01 -0.63874297233E+03 -0.19680327960E+03  0.66840320676E+03  0.00000000000E+00 0. -1.
        -11    1    3    3    0    0 -0.97013561599E+02 -0.10332887072E+04 -0.30479691536E+03  0.10816646168E+04  0.00000000000E+00 0.  1.
         22    1    1    2    0    0  0.90790118552E+02  0.16720316795E+04  0.25757950634E+03  0.16941900676E+04  0.00000000000E+00 0. -1.
<mgrwt>
<rscale>  0 0.34356028E+04</rscale>
<asrwt>0</asrwt>
<pdfrwt beam="1">  1        2 0.28371374E+00 0.34356028E+04</pdfrwt>
<pdfrwt beam="2">  1       -2 0.24617209E+00 0.34356028E+04</pdfrwt>
<totfact> 0.45710055E-01</totfact>
</mgrwt>
</event>
<event>
 6    1  0.9562506E-007  0.1538355E+04  0.7818608E-02  0.8859340E-01
          2   -1    0    0  501    0  0.00000000000E+00  0.00000000000E+00  0.14743565445E+04  0.14743565445E+04  0.00000000000E+00 0. -1.
         -2   -1    0    0    0  501 -0.00000000000E+00 -0.00000000000E+00 -0.40128293211E+03  0.40128293211E+03  0.00000000000E+00 0.  1.
         23    2    1    2    0    0  0.15207893563E+03 -0.20555348169E+03 -0.34248369255E+03  0.43717407206E+03  0.91901322722E+02 0.  0.
         11    1    3    3    0    0  0.39599048084E+02 -0.27054659172E+01 -0.46551841583E+02  0.61175796764E+02  0.00000000000E+00 0. -1.
        -11    1    3    3    0    0  0.11247988754E+03 -0.20284801577E+03 -0.29593185097E+03  0.37599827529E+03  0.00000000000E+00 0.  1.
         22    1    1    2    0    0 -0.15207893563E+03  0.20555348169E+03  0.14155573049E+04  0.14384654045E+04  0.00000000000E+00 0. -1.
<mgrwt>
<rscale>  0 0.15383551E+04</rscale>
<asrwt>0</asrwt>
<pdfrwt beam="1">  1        2 0.22682408E+00 0.15383551E+04</pdfrwt>
<pdfrwt beam="2">  1       -2 0.61735836E-01 0.15383551E+04</pdfrwt>
<totfact> 0.30822261E+01</totfact>
</mgrwt>
</event>
<event>
 6    1  0.9562506E-007  0.1909847E+04  0.7818608E-02  0.8649971E-01
         -2   -1    0    0    0  501 -0.00000000000E+00  0.00000000000E+00  0.14239200835E+04  0.14239200835E+04  0.00000000000E+00 0.  1.
          2   -1    0    0  501    0  0.00000000000E+00 -0.00000000000E+00 -0.64040008984E+03  0.64040008984E+03  0.00000000000E+00 0. -1.
         23    2    1    2    0    0 -0.17207383416E+03 -0.59292194465E+03 -0.39053382256E+03  0.73783300785E+03  0.10351349702E+03 0.  0.
         11    1    3    3    0    0 -0.84143176379E+02 -0.21501113767E+03 -0.93149562152E+02  0.24897129229E+03  0.00000000000E+00 0.  1.
        -11    1    3    3    0    0 -0.87930657780E+02 -0.37791080698E+03 -0.29738426041E+03  0.48886171557E+03  0.00000000000E+00 0. -1.
         22    1    1    2    0    0  0.17207383416E+03  0.59292194465E+03  0.11740538162E+04  0.13264871655E+04  0.00000000000E+00 0.  1.
<mgrwt>
<rscale>  0 0.19098466E+04</rscale>
<asrwt>0</asrwt>
<pdfrwt beam="1">  1        2 0.98523091E-01 0.19098466E+04</pdfrwt>
<pdfrwt beam="2">  1       -2 0.21906463E+00 0.19098466E+04</pdfrwt>
<totfact> 0.42915569E+00</totfact>
</mgrwt>
</event>
<event>
 6    1  0.9562506E-007  0.1540368E+04  0.7818608E-02  0.8858044E-01
          2   -1    0    0  501    0  0.00000000000E+00  0.00000000000E+00  0.21633963578E+03  0.21633963578E+03  0.00000000000E+00 0. -1.
         -2   -1    0    0    0  501 -0.00000000000E+00 -0.00000000000E+00 -0.27419076408E+04  0.27419076408E+04  0.00000000000E+00 0.  1.
         23    2    1    2    0    0  0.25432590092E+03 -0.27363910878E+03 -0.25550251162E+04  0.25835103727E+04  0.82537722795E+02 0.  0.
         11    1    3    3    0    0  0.20023987502E+02 -0.28463025873E+02 -0.11872558639E+03  0.12372093105E+03  0.00000000000E+00 0. -1.
        -11    1    3    3    0    0  0.23430191342E+03 -0.24517608291E+03 -0.24362995298E+04  0.24597894416E+04  0.00000000000E+00 0.  1.
         22    1    1    2    0    0 -0.25432590092E+03  0.27363910878E+03  0.29457111175E+02  0.37473690388E+03  0.00000000000E+00 0. -1.
<mgrwt>
<rscale>  0 0.15403679E+04</rscale>
<asrwt>0</asrwt>
<pdfrwt beam="1">  1        2 0.33283021E-01 0.15403679E+04</pdfrwt>
<pdfrwt beam="2">  1       -2 0.42183195E+00 0.15403679E+04</pdfrwt>
<totfact> 0.82046952E-01</totfact>
</mgrwt>
</event>
<event>
 6    1  0.9562506E-007  0.4304789E+04  0.7818608E-02  0.7945733E-01
          2   -1    0    0  501    0  0.00000000000E+00  0.00000000000E+00  0.24904138066E+04  0.24904138066E+04  0.00000000000E+00 0. -1.
         -2   -1    0    0    0  501 -0.00000000000E+00 -0.00000000000E+00 -0.18602535322E+04  0.18602535322E+04  0.00000000000E+00 0.  1.
         23    2    1    2    0    0  0.63139609335E+03  0.17957521273E+04  0.13285544191E+04  0.23230724309E+04  0.90674942431E+02 0.  0.
         11    1    3    3    0    0  0.48179307380E+03  0.14534735418E+04  0.10394640787E+04  0.18507283630E+04  0.00000000000E+00 0.  1.
        -11    1    3    3    0    0  0.14960301955E+03  0.34227858546E+03  0.28909034042E+03  0.47234406787E+03  0.00000000000E+00 0. -1.
         22    1    1    2    0    0 -0.63139609335E+03 -0.17957521273E+04 -0.69839414482E+03  0.20275949080E+04  0.00000000000E+00 0.  1.
<mgrwt>
<rscale>  0 0.43047885E+04</rscale>
<asrwt>0</asrwt>
<pdfrwt beam="1">  1        2 0.38314059E+00 0.43047885E+04</pdfrwt>
<pdfrwt beam="2">  1       -2 0.28619285E+00 0.43047885E+04</pdfrwt>
<totfact> 0.10477099E-01</totfact>
</mgrwt>
</event>
<event>
 6    1  0.9562506E-007  0.9947797E+03  0.7818608E-02  0.9314289E-01
          2   -1    0    0  501    0  0.00000000000E+00  0.00000000000E+00  0.67877682879E+03  0.67877682879E+03  0.00000000000E+00 0. -1.
         -2   -1    0    0    0  501 -0.00000000000E+00 -0.00000000000E+00 -0.36447423215E+03  0.36447423215E+03  0.00000000000E+00 0.  1.
         23    2    1    2    0    0  0.41439596273E+03  0.26708643372E+03  0.13954591242E+03  0.52018407127E+03  0.89773210488E+02 0.  0.
         13    1    3    3    0    0  0.27369254331E+03  0.16992599910E+03  0.13454735854E+03  0.34912096059E+03  0.00000000000E+00 0. -1.
        -13    1    3    3    0    0  0.14070341942E+03  0.97160434625E+02  0.49985538728E+01  0.17106311068E+03  0.00000000000E+00 0.  1.
         22    1    1    2    0    0 -0.41439596273E+03 -0.26708643372E+03  0.17475668422E+03  0.52306698967E+03  0.00000000000E+00 0.  1.
<mgrwt>
<rscale>  0 0.99477970E+03</rscale>
<asrwt>0</asrwt>
<pdfrwt beam="1">  1        2 0.10442720E+00 0.99477970E+03</pdfrwt>
<pdfrwt beam="2">  1       -2 0.56072959E-01 0.99477970E+03</pdfrwt>
<totfact> 0.12708394E+02</totfact>
</mgrwt>
</event>
<event>
 6    1  0.9562506E-007  0.4332417E+04  0.7818608E-02  0.7940651E-01
         -1   -1    0    0    0  501 -0.00000000000E+00  0.00000000000E+00  0.21193072775E+04  0.21193072775E+04  0.00000000000E+00 0.  1.
          1   -1    0    0  501    0  0.00000000000E+00 -0.00000000000E+00 -0.22141479412E+04  0.22141479412E+04  0.00000000000E+00 0. -1.
         23    2    1    2    0    0  0.17696416308E+04  0.64251186006E+03  0.10223615582E+04  0.21442558682E+04  0.90316557525E+02 0.  0.
         13    1    3    3    0    0  0.93516063203E+02  0.53687991943E+02  0.47703467682E+02  0.11791215113E+03  0.00000000000E+00 0. -1.
        -13    1    3    3    0    0  0.16761255676E+04  0.58882386811E+03  0.97465809056E+03  0.20263437170E+04  0.00000000000E+00 0.  1.
         22    1    1    2    0    0 -0.17696416308E+04 -0.64251186006E+03 -0.11172022219E+04  0.21891993506E+04  0.00000000000E+00 0. -1.
<mgrwt>
<rscale>  0 0.43324173E+04</rscale>
<asrwt>0</asrwt>
<pdfrwt beam="1">  1        1 0.34063814E+00 0.43324173E+04</pdfrwt>
<pdfrwt beam="2">  1       -1 0.32604727E+00 0.43324173E+04</pdfrwt>
<totfact> 0.36264483E-02</totfact>
</mgrwt>
</event>
<event>
 6    1  0.9562506E-007  0.2142963E+04  0.7818608E-02  0.8542551E-01
          1   -1    0    0  501    0  0.00000000000E+00  0.00000000000E+00  0.14579713369E+04  0.14579713369E+04  0.00000000000E+00 0. -1.
         -1   -1    0    0    0  501 -0.00000000000E+00 -0.00000000000E+00 -0.78744504699E+03  0.78744504699E+03  0.00000000000E+00 0.  1.
         23    2    1    2    0    0 -0.10127098865E+04 -0.30669533875E+03  0.49924118377E+03  0.11735106360E+04  0.90786057328E+02 0.  0.
         13    1    3    3    0    0 -0.65546732851E+03 -0.17930774412E+03  0.27637090133E+03  0.73360040958E+03  0.00000000000E+00 0. -1.
        -13    1    3    3    0    0 -0.35724255795E+03 -0.12738759463E+03  0.22287028244E+03  0.43991022637E+03  0.00000000000E+00 0.  1.
         22    1    1    2    0    0  0.10127098865E+04  0.30669533875E+03  0.17128510617E+03  0.10719057480E+04  0.00000000000E+00 0. -1.
<mgrwt>
<rscale>  0 0.21429627E+04</rscale>
<asrwt>0</asrwt>
<pdfrwt beam="1">  1        1 0.22430328E+00 0.21429627E+04</pdfrwt>
<pdfrwt beam="2">  1       -1 0.12114539E+00 0.21429627E+04</pdfrwt>
<totfact> 0.38775266E+00</totfact>
</mgrwt>
</event>
<event>
 6    1  0.9562506E-007  0.1364379E+04  0.7818608E-02  0.8980014E-01
          2   -1    0    0  501    0  0.00000000000E+00  0.00000000000E+00  0.50264440733E+03  0.50264440733E+03  0.00000000000E+00 0. -1.
         -2   -1    0    0    0  501 -0.00000000000E+00 -0.00000000000E+00 -0.92586821841E+03  0.92586821841E+03  0.00000000000E+00 0.  1.
         23    2    1    2    0    0  0.25247847452E+03 -0.52442284340E+03  0.15588282448E+03  0.60745891610E+03  0.77085543387E+02 0.  0.
         13    1    3    3    0    0  0.17373333711E+03 -0.27316021491E+03  0.90839340265E+02  0.33623141015E+03  0.00000000000E+00 0. -1.
        -13    1    3    3    0    0  0.78745137415E+02 -0.25126262849E+03  0.65043484219E+02  0.27122750595E+03  0.00000000000E+00 0.  1.
         22    1    1    2    0    0 -0.25247847452E+03  0.52442284340E+03 -0.57910663556E+03  0.82105370965E+03  0.00000000000E+00 0.  1.
<mgrwt>
<rscale>  0 0.13643790E+04</rscale>
<asrwt>0</asrwt>
<pdfrwt beam="1">  1        2 0.77329908E-01 0.13643790E+04</pdfrwt>
<pdfrwt beam="2">  1       -2 0.14244127E+00 0.13643790E+04</pdfrwt>
<totfact> 0.20487889E+01</totfact>
</mgrwt>
</event>
<event>
 6    1  0.9562506E-007  0.3661315E+04  0.7818608E-02  0.8076589E-01
         -2   -1    0    0    0  501 -0.00000000000E+00  0.00000000000E+00  0.11764514304E+04  0.11764514304E+04  0.00000000000E+00 0.  1.
          2   -1    0    0  501    0  0.00000000000E+00 -0.00000000000E+00 -0.28486578442E+04  0.28486578442E+04  0.00000000000E+00 0. -1.
         23    2    1    2    0    0 -0.18119136173E+04  0.23106819139E+03 -0.95032110757E+03  0.20610466836E+04  0.91541022931E+02 0.  0.
         13    1    3    3    0    0 -0.97103950391E+03  0.16106726885E+03 -0.54186007322E+03  0.11235981142E+04  0.00000000000E+00 0. -1.
        -13    1    3    3    0    0 -0.84087411342E+03  0.70000922537E+02 -0.40846103434E+03  0.93744856944E+03  0.00000000000E+00 0.  1.
         22    1    1    2    0    0  0.18119136173E+04 -0.23106819139E+03 -0.72188530622E+03  0.19640625909E+04  0.00000000000E+00 0.  1.
<mgrwt>
<rscale>  0 0.36613154E+04</rscale>
<asrwt>0</asrwt>
<pdfrwt beam="1">  1        2 0.43825505E+00 0.36613154E+04</pdfrwt>
<pdfrwt beam="2">  1       -2 0.18099253E+00 0.36613154E+04</pdfrwt>
<totfact> 0.31253340E-01</totfact>
</mgrwt>
</event>
<event>
 6    1  0.9562506E-007  0.1093774E+04  0.7818608E-02  0.9211282E-01
         -2   -1    0    0    0  501 -0.00000000000E+00  0.00000000000E+00  0.13569084924E+04  0.13569084924E+04  0.00000000000E+00 0.  1.
          2   -1    0    0  501    0  0.00000000000E+00 -0.00000000000E+00 -0.22041660816E+03  0.22041660816E+03  0.00000000000E+00 0. -1.
         23    2    1    2    0    0  0.13054473823E+03 -0.52491188830E+03  0.63890449594E+03  0.84236413007E+03  0.93829385177E+02 0.  0.
         11    1    3    3    0    0  0.23604900397E+02 -0.26251382798E+03  0.27161316580E+03  0.37847643656E+03  0.00000000000E+00 0.  1.
        -11    1    3    3    0    0  0.10693983784E+03 -0.26239806033E+03  0.36729133015E+03  0.46388769350E+03  0.00000000000E+00 0. -1.
         22    1    1    2    0    0 -0.13054473823E+03  0.52491188830E+03  0.49758738830E+03  0.73496097050E+03  0.00000000000E+00 0. -1.
<mgrwt>
<rscale>  0 0.10937736E+04</rscale>
<asrwt>0</asrwt>
<pdfrwt beam="1">  1        2 0.33910248E-01 0.10937736E+04</pdfrwt>
<pdfrwt beam="2">  1       -2 0.20875515E+00 0.10937736E+04</pdfrwt>
<totfact> 0.17972940E+01</totfact>
</mgrwt>
</event>
<event>
 6    1  0.9562506E-007  0.2627279E+04  0.7818608E-02  0.8358994E-01
          3   -1    0    0  501    0  0.00000000000E+00  0.00000000000E+00  0.11225919622E+04  0.11225919622E+04  0.00000000000E+00 0. -1.
         -3   -1    0    0    0  501 -0.00000000000E+00 -0.00000000000E+00 -0.15372002840E+04  0.15372002840E+04  0.00000000000E+00 0.  1.
         23    2    1    2    0    0 -0.48871821432E+03 -0.10585289675E+04 -0.81661988406E+03  0.14265273256E+04  0.93718235809E+02 0.  0.
         11    1    3    3    0    0 -0.41317424115E+03 -0.92831876813E+03 -0.74409092585E+03  0.12594284397E+04  0.00000000000E+00 0. -1.
        -11    1    3    3    0    0 -0.75543973174E+02 -0.13021019935E+03 -0.72528958210E+02  0.16709888592E+03  0.00000000000E+00 0.  1.
         22    1    1    2    0    0  0.48871821432E+03  0.10585289675E+04  0.40201156226E+03  0.12332649205E+04  0.00000000000E+00 0. -1.
<mgrwt>
<rscale>  0 0.26272790E+04</rscale>
<asrwt>0</asrwt>
<pdfrwt beam="1">  1        3 0.17270646E+00 0.26272790E+04</pdfrwt>
<pdfrwt beam="2">  1       -3 0.23649235E+00 0.26272790E+04</pdfrwt>
<totfact> 0.44813568E-02</totfact>
</mgrwt>
</event>
<event>
 6    1  0.9562506E-007  0.2431303E+04  0.7818608E-02  0.8427876E-01
         -2   -1    0    0    0  501 -0.00000000000E+00  0.00000000000E+00  0.14666462038E+04  0.14666462038E+04  0.00000000000E+00 0.  1.
          2   -1    0    0  501    0  0.00000000000E+00 -0.00000000000E+00 -0.10076110766E+04  0.10076110766E+04  0.00000000000E+00 0. -1.
         23    2    1    2    0    0  0.79052434428E+03  0.30192810800E+01  0.11672938598E+04  0.14128580684E+04  0.93032850114E+02 0.  0.
         13    1    3    3    0    0  0.45708325895E+03  0.24437686521E+02  0.60288998696E+03  0.75696673805E+03  0.00000000000E+00 0.  1.
        -13    1    3    3    0    0  0.33344108532E+03 -0.21418405441E+02  0.56440387288E+03  0.65589133033E+03  0.00000000000E+00 0. -1.
         22    1    1    2    0    0 -0.79052434428E+03 -0.30192810800E+01 -0.70825873263E+03  0.10613992120E+04  0.00000000000E+00 0. -1.
<mgrwt>
<rscale>  0 0.24313033E+04</rscale>
<asrwt>0</asrwt>
<pdfrwt beam="1">  1        2 0.15501709E+00 0.24313033E+04</pdfrwt>
<pdfrwt beam="2">  1       -2 0.22563788E+00 0.24313033E+04</pdfrwt>
<totfact> 0.20338174E+00</totfact>
</mgrwt>
</event>
<event>
 6    1  0.9562506E-007  0.4436918E+04  0.7818608E-02  0.7921775E-01
          1   -1    0    0  501    0  0.00000000000E+00  0.00000000000E+00  0.31449863894E+04  0.31449863894E+04  0.00000000000E+00 0. -1.
         -1   -1    0    0    0  501 -0.00000000000E+00 -0.00000000000E+00 -0.15648908962E+04  0.15648908962E+04  0.00000000000E+00 0.  1.
         23    2    1    2    0    0 -0.96164379719E+02 -0.91183084138E+03  0.29336836264E+04  0.30749815991E+04  0.91264143109E+02 0.  0.
         13    1    3    3    0    0  0.12060333109E+02 -0.22938182001E+03  0.67967148870E+03  0.71743627142E+03  0.00000000000E+00 0.  1.
        -13    1    3    3    0    0 -0.10822471283E+03 -0.68244902137E+03  0.22540121377E+04  0.23575453277E+04  0.00000000000E+00 0. -1.
         22    1    1    2    0    0  0.96164379719E+02  0.91183084138E+03 -0.13535881333E+04  0.16348956865E+04  0.00000000000E+00 0.  1.
<mgrwt>
<rscale>  0 0.44369181E+04</rscale>
<asrwt>0</asrwt>
<pdfrwt beam="1">  1        1 0.48384406E+00 0.44369181E+04</pdfrwt>
<pdfrwt beam="2">  1       -1 0.24075245E+00 0.44369181E+04</pdfrwt>
<totfact> 0.28276333E-02</totfact>
</mgrwt>
</event>
<event>
 6    1  0.9562506E-007  0.4128598E+04  0.7818608E-02  0.7979095E-01
          2   -1    0    0  501    0  0.00000000000E+00  0.00000000000E+00  0.46868193842E+04  0.46868193842E+04  0.00000000000E+00 0. -1.
         -2   -1    0    0    0  501 -0.00000000000E+00 -0.00000000000E+00 -0.90921595166E+03  0.90921595166E+03  0.00000000000E+00 0.  1.
         23    2    1    2    0    0 -0.90807673665E+03  0.13795762392E+04  0.21470837417E+03  0.16689428800E+04  0.10694246768E+03 0.  0.
         11    1    3    3    0    0 -0.32045684613E+03  0.50159575162E+03  0.26363290499E+02  0.59580694135E+03  0.00000000000E+00 0.  1.
        -11    1    3    3    0    0 -0.58761989052E+03  0.87798048762E+03  0.18834508367E+03  0.10731359387E+04  0.00000000000E+00 0. -1.
         22    1    1    2    0    0  0.90807673665E+03 -0.13795762392E+04  0.35628950583E+04  0.39270924558E+04  0.00000000000E+00 0. -1.
<mgrwt>
<rscale>  0 0.41285983E+04</rscale>
<asrwt>0</asrwt>
<pdfrwt beam="1">  1        2 0.72104912E+00 0.41285983E+04</pdfrwt>
<pdfrwt beam="2">  1       -2 0.13987938E+00 0.41285983E+04</pdfrwt>
<totfact> 0.22073705E-02</totfact>
</mgrwt>
</event>
<event>
 6    1  0.9562506E-007  0.1919043E+04  0.7818608E-02  0.8645435E-01
          2   -1    0    0  501    0  0.00000000000E+00  0.00000000000E+00  0.10931936470E+04  0.10931936470E+04  0.00000000000E+00 0. -1.
         -2   -1    0    0    0  501 -0.00000000000E+00 -0.00000000000E+00 -0.84219458094E+03  0.84219458094E+03  0.00000000000E+00 0.  1.
         23    2    1    2    0    0  0.65426502557E+02  0.35403600636E+03  0.10204828980E+04  0.10858427680E+04  0.89705354750E+02 0.  0.
         11    1    3    3    0    0  0.84694964507E+02  0.32729701944E+03  0.92883321445E+03  0.98844712363E+03  0.00000000000E+00 0.  1.
        -11    1    3    3    0    0 -0.19268461949E+02  0.26738986922E+02  0.91649683514E+02  0.97395644337E+02  0.00000000000E+00 0. -1.
         22    1    1    2    0    0 -0.65426502557E+02 -0.35403600636E+03 -0.76948383189E+03  0.84954545998E+03  0.00000000000E+00 0.  1.
<mgrwt>
<rscale>  0 0.19190433E+04</rscale>
<asrwt>0</asrwt>
<pdfrwt beam="1">  1        2 0.16818364E+00 0.19190433E+04</pdfrwt>
<pdfrwt beam="2">  1       -2 0.12956840E+00 0.19190433E+04</pdfrwt>
<totfact> 0.90105774E+00</totfact>
</mgrwt>
</event>
<event>
 6    1  0.9562506E-007  0.5468338E+04  0.7818608E-02  0.7760061E-01
         -2   -1    0    0    0  501 -0.00000000000E+00  0.00000000000E+00  0.21031590297E+04  0.21031590297E+04  0.00000000000E+00 0.  1.
          2   -1    0    0  501    0  0.00000000000E+00 -0.00000000000E+00 -0.35545011045E+04  0.35545011045E+04  0.00000000000E+00 0. -1.
         23    2    1    2    0    0  0.23666424050E+04 -0.96965996708E+03 -0.17235400910E+04  0.30856320463E+04  0.96425902735E+02 0.  0.
         13    1    3    3    0    0  0.14922679479E+04 -0.56108302546E+03 -0.10689416456E+04  0.19194567022E+04  0.00000000000E+00 0.  1.
        -13    1    3    3    0    0  0.87437445709E+03 -0.40857694163E+03 -0.65459844537E+03  0.11661753441E+04  0.00000000000E+00 0. -1.
         22    1    1    2    0    0 -0.23666424050E+04  0.96965996708E+03  0.27219801626E+03  0.25720280879E+04  0.00000000000E+00 0.  1.
<mgrwt>
<rscale>  0 0.54683384E+04</rscale>
<asrwt>0</asrwt>
<pdfrwt beam="1">  1        2 0.54684631E+00 0.54683384E+04</pdfrwt>
<pdfrwt beam="2">  1       -2 0.32356293E+00 0.54683384E+04</pdfrwt>
<totfact> 0.11853235E-02</totfact>
</mgrwt>
</event>
<event>
 6    1  0.9562506E-007  0.9913921E+03  0.7818608E-02  0.9318036E-01
          2   -1    0    0  501    0  0.00000000000E+00  0.00000000000E+00  0.20171301686E+03  0.20171301686E+03  0.00000000000E+00 0. -1.
         -2   -1    0    0    0  501 -0.00000000000E+00 -0.00000000000E+00 -0.12181393872E+04  0.12181393872E+04  0.00000000000E+00 0.  1.
         23    2    1    2    0    0  0.47802720870E+02 -0.29184272103E+03  0.49788601105E+02  0.31338431177E+03  0.90959046427E+02 0.  0.
         11    1    3    3    0    0  0.16082064645E+02 -0.74933994272E+01 -0.11012678504E+02  0.20882119769E+02  0.00000000000E+00 0. -1.
        -11    1    3    3    0    0  0.31720656225E+02 -0.28434932160E+03  0.60801279609E+02  0.29250219200E+03  0.00000000000E+00 0.  1.
         22    1    1    2    0    0 -0.47802720870E+02  0.29184272103E+03 -0.10662149715E+04  0.11064680923E+04  0.00000000000E+00 0.  1.
<mgrwt>
<rscale>  0 0.99139209E+03</rscale>
<asrwt>0</asrwt>
<pdfrwt beam="1">  1        2 0.31032771E-01 0.99139209E+03</pdfrwt>
<pdfrwt beam="2">  1       -2 0.18740607E+00 0.99139209E+03</pdfrwt>
<totfact> 0.27628822E+01</totfact>
</mgrwt>
</event>
<event>
 6    1  0.9562506E-007  0.2307449E+04  0.7818608E-02  0.8474990E-01
         -2   -1    0    0    0  501 -0.00000000000E+00  0.00000000000E+00  0.11566906551E+04  0.11566906551E+04  0.00000000000E+00 0.  1.
          2   -1    0    0  501    0  0.00000000000E+00 -0.00000000000E+00 -0.11507656704E+04  0.11507656704E+04  0.00000000000E+00 0. -1.
         23    2    1    2    0    0 -0.33098743443E+03  0.74586210153E+02  0.11037999473E+04  0.11583500563E+04  0.91020574340E+02 0.  0.
         13    1    3    3    0    0 -0.14680713320E+03  0.44743730839E+02  0.64615820450E+03  0.66413459558E+03  0.00000000000E+00 0.  1.
        -13    1    3    3    0    0 -0.18418030124E+03  0.29842479313E+02  0.45764174276E+03  0.49421546076E+03  0.00000000000E+00 0. -1.
         22    1    1    2    0    0  0.33098743443E+03 -0.74586210153E+02 -0.10978749626E+04  0.11491062692E+04  0.00000000000E+00 0. -1.
<mgrwt>
<rscale>  0 0.23074487E+04</rscale>
<asrwt>0</asrwt>
<pdfrwt beam="1">  1        2 0.17704087E+00 0.23074487E+04</pdfrwt>
<pdfrwt beam="2">  1       -2 0.17795241E+00 0.23074487E+04</pdfrwt>
<totfact> 0.34426652E+00</totfact>
</mgrwt>
</event>
<event>
 6    1  0.9562506E-007  0.1770116E+04  0.7818608E-02  0.8722355E-01
          3   -1    0    0  501    0  0.00000000000E+00  0.00000000000E+00  0.10757039206E+04  0.10757039206E+04  0.00000000000E+00 0. -1.
         -3   -1    0    0    0  501 -0.00000000000E+00 -0.00000000000E+00 -0.72820012726E+03  0.72820012726E+03  0.00000000000E+00 0.  1.
         23    2    1    2    0    0  0.70474238660E+03  0.80926694033E+02 -0.36104630292E+03  0.80128038957E+03  0.92113346409E+02 0.  0.
         13    1    3    3    0    0  0.53826727616E+03  0.86479604928E+02 -0.24156909967E+03  0.59629356241E+03  0.00000000000E+00 0. -1.
        -13    1    3    3    0    0  0.16647511044E+03 -0.55529108952E+01 -0.11947720325E+03  0.20498682716E+03  0.00000000000E+00 0.  1.
         22    1    1    2    0    0 -0.70474238660E+03 -0.80926694033E+02  0.70855009629E+03  0.10026236583E+04  0.00000000000E+00 0. -1.
<mgrwt>
<rscale>  0 0.17701161E+04</rscale>
<asrwt>0</asrwt>
<pdfrwt beam="1">  1        3 0.16549291E+00 0.17701161E+04</pdfrwt>
<pdfrwt beam="2">  1       -3 0.11203079E+00 0.17701161E+04</pdfrwt>
<totfact> 0.41257916E-01</totfact>
</mgrwt>
</event>
<event>
 6    1  0.9562506E-007  0.1153681E+04  0.7818608E-02  0.9154395E-01
         -1   -1    0    0    0  501 -0.00000000000E+00  0.00000000000E+00  0.54398358230E+03  0.54398358230E+03  0.00000000000E+00 0.  1.
          1   -1    0    0  501    0  0.00000000000E+00 -0.00000000000E+00 -0.61168179604E+03  0.61168179604E+03  0.00000000000E+00 0. -1.
         23    2    1    2    0    0 -0.83135632082E+02  0.23470003483E+03 -0.55140520001E+03  0.61163588627E+03  0.89750337611E+02 0.  0.
         11    1    3    3    0    0 -0.24867954808E+02  0.15128153236E+03 -0.24738276349E+03  0.29103736681E+03  0.00000000000E+00 0.  1.
        -11    1    3    3    0    0 -0.58267677274E+02  0.83418502476E+02 -0.30402243652E+03  0.32059851946E+03  0.00000000000E+00 0. -1.
         22    1    1    2    0    0  0.83135632082E+02 -0.23470003483E+03  0.48370698627E+03  0.54402949207E+03  0.00000000000E+00 0.  1.
<mgrwt>
<rscale>  0 0.11536808E+04</rscale>
<asrwt>0</asrwt>
<pdfrwt beam="1">  1        1 0.94104891E-01 0.11536808E+04</pdfrwt>
<pdfrwt beam="2">  1       -1 0.83689783E-01 0.11536808E+04</pdfrwt>
<totfact> 0.46847136E+01</totfact>
</mgrwt>
</event>
<event>
 6    1  0.9562506E-007  0.3267943E+04  0.7818608E-02  0.8171101E-01
         -1   -1    0    0    0  501 -0.00000000000E+00  0.00000000000E+00  0.92356879109E+03  0.92356879109E+03  0.00000000000E+00 0.  1.
          1   -1    0    0  501    0  0.00000000000E+00 -0.00000000000E+00 -0.28908108628E+04  0.28908108628E+04  0.00000000000E+00 0. -1.
         23    2    1    2    0    0 -0.33410629542E+03  0.15945641690E+04 -0.11095008175E+04  0.19731892876E+04  0.90675216328E+02 0.  0.
         11    1    3    3    0    0 -0.20266104245E+03  0.11613378594E+04 -0.79205279571E+03  0.14202551718E+04  0.00000000000E+00 0. -1.
        -11    1    3    3    0    0 -0.13144525297E+03  0.43322630963E+03 -0.31744802182E+03  0.55293411583E+03  0.00000000000E+00 0.  1.
         22    1    1    2    0    0  0.33410629542E+03 -0.15945641690E+04 -0.85774125421E+03  0.18411903663E+04  0.00000000000E+00 0.  1.
<mgrwt>
<rscale>  0 0.32679429E+04</rscale>
<asrwt>0</asrwt>
<pdfrwt beam="1">  1        1 0.44474013E+00 0.32679429E+04</pdfrwt>
<pdfrwt beam="2">  1       -1 0.14208751E+00 0.32679429E+04</pdfrwt>
<totfact> 0.24041175E-01</totfact>
</mgrwt>
</event>
<event>
 6    1  0.9562506E-007  0.6902496E+03  0.7818608E-02  0.9734053E-01
          1   -1    0    0  501    0  0.00000000000E+00  0.00000000000E+00  0.85474970381E+03  0.85474970381E+03  0.00000000000E+00 0. -1.
         -1   -1    0    0    0  501 -0.00000000000E+00 -0.00000000000E+00 -0.13935206748E+03  0.13935206748E+03  0.00000000000E+00 0.  1.
         23    2    1    2    0    0  0.11032728793E+03  0.25191482628E+03  0.74347130715E+02  0.29654966506E+03  0.82346935820E+02 0.  0.
         11    1    3    3    0    0  0.11936144530E+03  0.22640608557E+03  0.81415955189E+02  0.26858039386E+03  0.00000000000E+00 0. -1.
        -11    1    3    3    0    0 -0.90341573665E+01  0.25508740714E+02 -0.70688244740E+01  0.27969271202E+02  0.00000000000E+00 0.  1.
         22    1    1    2    0    0 -0.11032728793E+03 -0.25191482628E+03  0.64105050562E+03  0.69755210624E+03  0.00000000000E+00 0. -1.
<mgrwt>
<rscale>  0 0.69024963E+03</rscale>
<asrwt>0</asrwt>
<pdfrwt beam="1">  1        1 0.13149995E+00 0.69024963E+03</pdfrwt>
<pdfrwt beam="2">  1       -1 0.21438780E-01 0.69024963E+03</pdfrwt>
<totfact> 0.36523005E+02</totfact>
</mgrwt>
</event>
<event>
 6    1  0.9562506E-007  0.5074452E+04  0.7818608E-02  0.7817124E-01
         -2   -1    0    0    0  501 -0.00000000000E+00  0.00000000000E+00  0.25123054898E+04  0.25123054898E+04  0.00000000000E+00 0.  1.
          2   -1    0    0  501    0  0.00000000000E+00 -0.00000000000E+00 -0.25623939500E+04  0.25623939500E+04  0.00000000000E+00 0. -1.
         23    2    1    2    0    0 -0.15070800735E+04 -0.47660465382E+03 -0.20088169810E+04  0.25577449782E+04  0.90947052731E+02 0.  0.
         11    1    3    3    0    0 -0.93578491746E+03 -0.25960791387E+03 -0.12772136926E+04  0.16044826260E+04  0.00000000000E+00 0. -1.
        -11    1    3    3    0    0 -0.57129515606E+03 -0.21699673994E+03 -0.73160328835E+03  0.95326235214E+03  0.00000000000E+00 0.  1.
         22    1    1    2    0    0  0.15070800735E+04  0.47660465382E+03  0.19587285208E+04  0.25169544617E+04  0.00000000000E+00 0.  1.
<mgrwt>
<rscale>  0 0.50744522E+04</rscale>
<asrwt>0</asrwt>
<pdfrwt beam="1">  1        2 0.39421445E+00 0.50744522E+04</pdfrwt>
<pdfrwt beam="2">  1       -2 0.38650854E+00 0.50744522E+04</pdfrwt>
<totfact> 0.21066493E-02</totfact>
</mgrwt>
</event>
<event>
 6    1  0.9562506E-007  0.1535433E+04  0.7818608E-02  0.8861226E-01
          1   -1    0    0  501    0  0.00000000000E+00  0.00000000000E+00  0.40827320874E+03  0.40827320874E+03  0.00000000000E+00 0. -1.
         -1   -1    0    0    0  501 -0.00000000000E+00 -0.00000000000E+00 -0.14436131811E+04  0.14436131811E+04  0.00000000000E+00 0.  1.
         23    2    1    2    0    0 -0.47538633850E+03  0.55321130166E+03 -0.79953772670E+03  0.10853111397E+04  0.81269787300E+02 0.  0.
         11    1    3    3    0    0 -0.91638336243E+02  0.14958287805E+03 -0.22263561323E+03  0.28344177243E+03  0.00000000000E+00 0. -1.
        -11    1    3    3    0    0 -0.38374800226E+03  0.40362842360E+03 -0.57690211347E+03  0.80186936723E+03  0.00000000000E+00 0.  1.
         22    1    1    2    0    0  0.47538633850E+03 -0.55321130166E+03 -0.23580224564E+03  0.76657525017E+03  0.00000000000E+00 0. -1.
<mgrwt>
<rscale>  0 0.15354329E+04</rscale>
<asrwt>0</asrwt>
<pdfrwt beam="1">  1        1 0.62811262E-01 0.15354329E+04</pdfrwt>
<pdfrwt beam="2">  1       -1 0.22209434E+00 0.15354329E+04</pdfrwt>
<totfact> 0.59999491E+00</totfact>
</mgrwt>
</event>
<event>
 6    1  0.9562506E-007  0.2764437E+04  0.7818608E-02  0.8314395E-01
         -2   -1    0    0    0  501 -0.00000000000E+00  0.00000000000E+00  0.79446241370E+03  0.79446241370E+03  0.00000000000E+00 0.  1.
          2   -1    0    0  501    0  0.00000000000E+00 -0.00000000000E+00 -0.24048051952E+04  0.24048051952E+04  0.00000000000E+00 0. -1.
         23    2    1    2    0    0  0.45070615814E+03  0.16539927629E+03 -0.23042474843E+04  0.23554686410E+04  0.90460424494E+02 0.  0.
         11    1    3    3    0    0  0.12592330250E+03  0.85187375668E+02 -0.82151368466E+03  0.83546292627E+03  0.00000000000E+00 0.  1.
        -11    1    3    3    0    0  0.32478285564E+03  0.80211900622E+02 -0.14827337996E+04  0.15200057148E+04  0.00000000000E+00 0. -1.
         22    1    1    2    0    0 -0.45070615814E+03 -0.16539927629E+03  0.69390470281E+03  0.84379896786E+03  0.00000000000E+00 0.  1.
<mgrwt>
<rscale>  0 0.27644365E+04</rscale>
<asrwt>0</asrwt>
<pdfrwt beam="1">  1        2 0.36997003E+00 0.27644365E+04</pdfrwt>
<pdfrwt beam="2">  1       -2 0.12222499E+00 0.27644365E+04</pdfrwt>
<totfact> 0.17483078E+00</totfact>
</mgrwt>
</event>
<event>
 6    1  0.9562506E-007  0.4323096E+04  0.7818608E-02  0.7942361E-01
         -2   -1    0    0    0  501 -0.00000000000E+00  0.00000000000E+00  0.15711179972E+04  0.15711179972E+04  0.00000000000E+00 0.  1.
          2   -1    0    0  501    0  0.00000000000E+00 -0.00000000000E+00 -0.29738632715E+04  0.29738632715E+04  0.00000000000E+00 0. -1.
         23    2    1    2    0    0 -0.97493403886E+03 -0.19267666659E+04 -0.77781368132E+03  0.22969897962E+04  0.90784557148E+02 0.  0.
         11    1    3    3    0    0 -0.84888593369E+03 -0.16172080931E+04 -0.63797791559E+03  0.19346796029E+04  0.00000000000E+00 0. -1.
        -11    1    3    3    0    0 -0.12604810518E+03 -0.30955857276E+03 -0.13983576574E+03  0.36231019330E+03  0.00000000000E+00 0.  1.
         22    1    1    2    0    0  0.97493403886E+03  0.19267666659E+04 -0.62493159297E+03  0.22479914726E+04  0.00000000000E+00 0. -1.
<mgrwt>
<rscale>  0 0.43230962E+04</rscale>
<asrwt>0</asrwt>
<pdfrwt beam="1">  1        2 0.45751742E+00 0.43230962E+04</pdfrwt>
<pdfrwt beam="2">  1       -2 0.24171046E+00 0.43230962E+04</pdfrwt>
<totfact> 0.10040569E-01</totfact>
</mgrwt>
</event>
<event>
 6    1  0.9562506E-007  0.4090459E+04  0.7818608E-02  0.7986543E-01
          1   -1    0    0  501    0  0.00000000000E+00  0.00000000000E+00  0.18022971913E+04  0.18022971913E+04  0.00000000000E+00 0. -1.
         -1   -1    0    0    0  501 -0.00000000000E+00 -0.00000000000E+00 -0.23209070109E+04  0.23209070109E+04  0.00000000000E+00 0.  1.
         23    2    1    2    0    0 -0.43570800432E+03 -0.19478564562E+04  0.18534688212E+03  0.20067115193E+04  0.92473866124E+02 0.  0.
         11    1    3    3    0    0 -0.28844667411E+03 -0.14291859595E+04  0.16287640173E+03  0.14670728383E+04  0.00000000000E+00 0.  1.
        -11    1    3    3    0    0 -0.14726133022E+03 -0.51867049671E+03  0.22470480395E+02  0.53963868099E+03  0.00000000000E+00 0. -1.
         22    1    1    2    0    0  0.43570800432E+03  0.19478564562E+04 -0.70395670173E+03  0.21164926829E+04  0.00000000000E+00 0.  1.
<mgrwt>
<rscale>  0 0.40904592E+04</rscale>
<asrwt>0</asrwt>
<pdfrwt beam="1">  1        1 0.27727649E+00 0.40904592E+04</pdfrwt>
<pdfrwt beam="2">  1       -1 0.35706261E+00 0.40904592E+04</pdfrwt>
<totfact> 0.43965627E-02</totfact>
</mgrwt>
</event>
<event>
 6    1  0.9562506E-007  0.2721659E+04  0.7818608E-02  0.8328012E-01
          2   -1    0    0  501    0  0.00000000000E+00  0.00000000000E+00  0.88570635159E+03  0.88570635159E+03  0.00000000000E+00 0. -1.
         -2   -1    0    0    0  501 -0.00000000000E+00 -0.00000000000E+00 -0.20908243318E+04  0.20908243318E+04  0.00000000000E+00 0.  1.
         23    2    1    2    0    0 -0.95175896318E+03  0.41439238750E+03  0.35660494561E+03  0.11012854536E+04  0.89979932708E+02 0.  0.
         13    1    3    3    0    0 -0.47983018531E+03  0.16806764884E+03  0.14788706597E+03  0.52948496258E+03  0.00000000000E+00 0.  1.
        -13    1    3    3    0    0 -0.47192877787E+03  0.24632473866E+03  0.20871787964E+03  0.57180049103E+03  0.00000000000E+00 0. -1.
         22    1    1    2    0    0  0.95175896318E+03 -0.41439238750E+03 -0.15617229258E+04  0.18752452298E+04  0.00000000000E+00 0.  1.
<mgrwt>
<rscale>  0 0.27216586E+04</rscale>
<asrwt>0</asrwt>
<pdfrwt beam="1">  1        2 0.13626252E+00 0.27216586E+04</pdfrwt>
<pdfrwt beam="2">  1       -2 0.32166527E+00 0.27216586E+04</pdfrwt>
<totfact> 0.61407422E-01</totfact>
</mgrwt>
</event>
<event>
 6    1  0.9562506E-007  0.2638068E+04  0.7818608E-02  0.8355384E-01
          2   -1    0    0  501    0  0.00000000000E+00  0.00000000000E+00  0.10163084575E+04  0.10163084575E+04  0.00000000000E+00 0. -1.
         -2   -1    0    0    0  501 -0.00000000000E+00 -0.00000000000E+00 -0.17119314175E+04  0.17119314175E+04  0.00000000000E+00 0.  1.
         23    2    1    2    0    0 -0.12802125769E+04 -0.29169548826E+03 -0.45962566429E+03  0.13941764495E+04  0.91878839609E+02 0.  0.
         13    1    3    3    0    0 -0.70051478243E+03 -0.18532909159E+03 -0.21292139980E+03  0.75525052472E+03  0.00000000000E+00 0. -1.
        -13    1    3    3    0    0 -0.57969779445E+03 -0.10636639667E+03 -0.24670426449E+03  0.63892592477E+03  0.00000000000E+00 0.  1.
         22    1    1    2    0    0  0.12802125769E+04  0.29169548826E+03 -0.23599729571E+03  0.13340634256E+04  0.00000000000E+00 0. -1.
<mgrwt>
<rscale>  0 0.26380678E+04</rscale>
<asrwt>0</asrwt>
<pdfrwt beam="1">  1        2 0.15635515E+00 0.26380678E+04</pdfrwt>
<pdfrwt beam="2">  1       -2 0.26337406E+00 0.26380678E+04</pdfrwt>
<totfact> 0.11535111E+00</totfact>
</mgrwt>
</event>
<event>
 6    1  0.9562506E-007  0.3206239E+04  0.7818608E-02  0.8187172E-01
          2   -1    0    0  501    0  0.00000000000E+00  0.00000000000E+00  0.21246342651E+04  0.21246342651E+04  0.00000000000E+00 0. -1.
         -2   -1    0    0    0  501 -0.00000000000E+00 -0.00000000000E+00 -0.12096159588E+04  0.12096159588E+04  0.00000000000E+00 0.  1.
         23    2    1    2    0    0 -0.57756328398E+03  0.10990382540E+04  0.15103444730E+04  0.19573414849E+04  0.92632773325E+02 0.  0.
         11    1    3    3    0    0 -0.39937418793E+03  0.82846069126E+03  0.11558073983E+04  0.14770706147E+04  0.00000000000E+00 0.  1.
        -11    1    3    3    0    0 -0.17818909605E+03  0.27057756269E+03  0.35453707474E+03  0.48027087018E+03  0.00000000000E+00 0. -1.
         22    1    1    2    0    0  0.57756328398E+03 -0.10990382540E+04 -0.59532616679E+03  0.13769087390E+04  0.00000000000E+00 0.  1.
<mgrwt>
<rscale>  0 0.32062386E+04</rscale>
<asrwt>0</asrwt>
<pdfrwt beam="1">  1        2 0.32686681E+00 0.32062386E+04</pdfrwt>
<pdfrwt beam="2">  1       -2 0.18609476E+00 0.32062386E+04</pdfrwt>
<totfact> 0.78909130E-01</totfact>
</mgrwt>
</event>
<event>
 6    1  0.1336688E-006  0.2978712E+04  0.7818608E-02  0.8249836E-01
          1   -1    0    0  501    0  0.00000000000E+00  0.00000000000E+00  0.17172296750E+04  0.17172296750E+04  0.00000000000E+00 0. -1.
         -1   -1    0    0    0  501 -0.00000000000E+00 -0.00000000000E+00 -0.12917211874E+04  0.12917211874E+04  0.00000000000E+00 0.  1.
         23    2    1    2    0    0 -0.11968441347E+04  0.10451564039E+03  0.10997529905E+04  0.16312843383E+04  0.90953561222E+02 0.  0.
         11    1    3    3    0    0 -0.65210486111E+03  0.13271273781E+02  0.57829513215E+03  0.87168924305E+03  0.00000000000E+00 0.  1.
        -11    1    3    3    0    0 -0.54473927363E+03  0.91244366608E+02  0.52145785838E+03  0.75959509526E+03  0.00000000000E+00 0. -1.
         22    1    1    2    0    0  0.11968441347E+04 -0.10451564039E+03 -0.67424450290E+03  0.13776665241E+04  0.00000000000E+00 0.  1.
<mgrwt>
<rscale>  0 0.29787124E+04</rscale>
<asrwt>0</asrwt>
<pdfrwt beam="1">  1        1 0.26418918E+00 0.29787124E+04</pdfrwt>
<pdfrwt beam="2">  1       -1 0.19872634E+00 0.29787124E+04</pdfrwt>
<totfact> 0.60746334E-01</totfact>
</mgrwt>
</event>
<event>
 6    1  0.9562506E-007  0.1802260E+04  0.7818608E-02  0.8705099E-01
          2   -1    0    0  501    0  0.00000000000E+00  0.00000000000E+00  0.33638653434E+04  0.33638653434E+04  0.00000000000E+00 0. -1.
         -2   -1    0    0    0  501 -0.00000000000E+00 -0.00000000000E+00 -0.24139944062E+03  0.24139944062E+03  0.00000000000E+00 0.  1.
         23    2    1    2    0    0 -0.33402761265E+03  0.76120733301E+03  0.88136060645E+03  0.12149585277E+04  0.91195699307E+02 0.  0.
         13    1    3    3    0    0 -0.18003942859E+03  0.47890368800E+03  0.59102728868E+03  0.78171362672E+03  0.00000000000E+00 0. -1.
        -13    1    3    3    0    0 -0.15398818406E+03  0.28230364501E+03  0.29033331777E+03  0.43324490097E+03  0.00000000000E+00 0.  1.
         22    1    1    2    0    0  0.33402761265E+03 -0.76120733301E+03  0.22411052963E+04  0.23903062563E+04  0.00000000000E+00 0. -1.
<mgrwt>
<rscale>  0 0.18022599E+04</rscale>
<asrwt>0</asrwt>
<pdfrwt beam="1">  1        2 0.51751771E+00 0.18022599E+04</pdfrwt>
<pdfrwt beam="2">  1       -2 0.37138378E-01 0.18022599E+04</pdfrwt>
<totfact> 0.65531940E+00</totfact>
</mgrwt>
</event>
<event>
 6    1  0.9562506E-007  0.1469559E+04  0.7818608E-02  0.8904952E-01
          2   -1    0    0  501    0  0.00000000000E+00  0.00000000000E+00  0.21447694995E+04  0.21447694995E+04  0.00000000000E+00 0. -1.
         -2   -1    0    0    0  501 -0.00000000000E+00 -0.00000000000E+00 -0.25172917238E+03  0.25172917238E+03  0.00000000000E+00 0.  1.
         23    2    1    2    0    0  0.66952133790E+03 -0.59160946855E+02  0.47708061475E+03  0.82911207419E+03  0.89789080972E+02 0.  0.
         11    1    3    3    0    0  0.35301684756E+03  0.11802043259E+02  0.26497198237E+03  0.44155445228E+03  0.00000000000E+00 0. -1.
        -11    1    3    3    0    0  0.31650449034E+03 -0.70962990114E+02  0.21210863237E+03  0.38755762191E+03  0.00000000000E+00 0.  1.
         22    1    1    2    0    0 -0.66952133790E+03  0.59160946855E+02  0.14159597124E+04  0.15673865977E+04  0.00000000000E+00 0.  1.
<mgrwt>
<rscale>  0 0.14695592E+04</rscale>
<asrwt>0</asrwt>
<pdfrwt beam="1">  1        2 0.32996453E+00 0.14695592E+04</pdfrwt>
<pdfrwt beam="2">  1       -2 0.38727566E-01 0.14695592E+04</pdfrwt>
<totfact> 0.33870089E+01</totfact>
</mgrwt>
</event>
<event>
 6    1  0.9562506E-007  0.1883676E+04  0.7818608E-02  0.8663025E-01
          2   -1    0    0  501    0  0.00000000000E+00  0.00000000000E+00  0.14232706549E+04  0.14232706549E+04  0.00000000000E+00 0. -1.
         -2   -1    0    0    0  501 -0.00000000000E+00 -0.00000000000E+00 -0.62325383420E+03  0.62325383420E+03  0.00000000000E+00 0.  1.
         23    2    1    2    0    0 -0.75396427748E+03 -0.19720524938E+03  0.97129086469E+03  0.12485979009E+04  0.90767461833E+02 0.  0.
         13    1    3    3    0    0 -0.28683068715E+03 -0.11799078461E+03  0.40913621319E+03  0.51340637831E+03  0.00000000000E+00 0. -1.
        -13    1    3    3    0    0 -0.46713359033E+03 -0.79214464771E+02  0.56215465150E+03  0.73519152256E+03  0.00000000000E+00 0.  1.
         22    1    1    2    0    0  0.75396427748E+03  0.19720524938E+03 -0.17127404397E+03  0.79792658825E+03  0.00000000000E+00 0.  1.
<mgrwt>
<rscale>  0 0.18836761E+04</rscale>
<asrwt>0</asrwt>
<pdfrwt beam="1">  1        2 0.21896472E+00 0.18836761E+04</pdfrwt>
<pdfrwt beam="2">  1       -2 0.95885206E-01 0.18836761E+04</pdfrwt>
<totfact> 0.12003692E+01</totfact>
</mgrwt>
</event>
<event>
 6    1  0.9562506E-007  0.3066342E+04  0.7818608E-02  0.8225036E-01
          2   -1    0    0  501    0  0.00000000000E+00  0.00000000000E+00  0.35863733064E+04  0.35863733064E+04  0.00000000000E+00 0. -1.
         -2   -1    0    0    0  501 -0.00000000000E+00 -0.00000000000E+00 -0.65542926441E+03  0.65542926441E+03  0.00000000000E+00 0.  1.
         23    2    1    2    0    0 -0.57391471388E+03 -0.12711697767E+04  0.59051044121E+03  0.15173062615E+04  0.90912100609E+02 0.  0.
         13    1    3    3    0    0 -0.27746205100E+03 -0.65360808777E+03  0.25438213772E+03  0.75425393213E+03  0.00000000000E+00 0. -1.
        -13    1    3    3    0    0 -0.29645266287E+03 -0.61756168889E+03  0.33612830349E+03  0.76305232935E+03  0.00000000000E+00 0.  1.
         22    1    1    2    0    0  0.57391471388E+03  0.12711697767E+04  0.23404336008E+04  0.27244963093E+04  0.00000000000E+00 0. -1.
<mgrwt>
<rscale>  0 0.30663425E+04</rscale>
<asrwt>0</asrwt>
<pdfrwt beam="1">  1        2 0.55174973E+00 0.30663425E+04</pdfrwt>
<pdfrwt beam="2">  1       -2 0.10083527E+00 0.30663425E+04</pdfrwt>
<totfact> 0.48636022E-01</totfact>
</mgrwt>
</event>
<event>
 6    1  0.9562506E-007  0.3723971E+04  0.7818608E-02  0.8062670E-01
         -2   -1    0    0    0  501 -0.00000000000E+00  0.00000000000E+00  0.13489833465E+04  0.13489833465E+04  0.00000000000E+00 0.  1.
          2   -1    0    0  501    0  0.00000000000E+00 -0.00000000000E+00 -0.25700767439E+04  0.25700767439E+04  0.00000000000E+00 0. -1.
         23    2    1    2    0    0  0.17750224826E+04 -0.38779200961E+03 -0.10336334907E+04  0.20925254827E+04  0.95797945605E+02 0.  0.
         13    1    3    3    0    0  0.13285487979E+04 -0.28762320442E+03 -0.72485667508E+03  0.15405149190E+04  0.00000000000E+00 0. -1.
        -13    1    3    3    0    0  0.44647368465E+03 -0.10016880519E+03 -0.30877681564E+03  0.55201056375E+03  0.00000000000E+00 0.  1.
         22    1    1    2    0    0 -0.17750224826E+04  0.38779200961E+03 -0.18745990672E+03  0.18265346077E+04  0.00000000000E+00 0. -1.
<mgrwt>
<rscale>  0 0.37239714E+04</rscale>
<asrwt>0</asrwt>
<pdfrwt beam="1">  1        2 0.39539642E+00 0.37239714E+04</pdfrwt>
<pdfrwt beam="2">  1       -2 0.20753590E+00 0.37239714E+04</pdfrwt>
<totfact> 0.30363235E-01</totfact>
</mgrwt>
</event>
<event>
 6    1  0.9562506E-007  0.3636131E+04  0.7818608E-02  0.8082265E-01
          1   -1    0    0  501    0  0.00000000000E+00  0.00000000000E+00  0.25590719160E+04  0.25590719160E+04  0.00000000000E+00 0. -1.
         -1   -1    0    0    0  501 -0.00000000000E+00 -0.00000000000E+00 -0.12916250892E+04  0.12916250892E+04  0.00000000000E+00 0.  1.
         23    2    1    2    0    0  0.17932009498E+04  0.33741339226E+01  0.32451519472E+03  0.18246908123E+04  0.92765391466E+02 0.  0.
         13    1    3    3    0    0  0.11017763699E+04  0.45281234762E+02  0.21263011042E+03  0.11230196452E+04  0.00000000000E+00 0. -1.
        -13    1    3    3    0    0  0.69142457983E+03 -0.41907100840E+02  0.11188508430E+03  0.70167116713E+03  0.00000000000E+00 0.  1.
         22    1    1    2    0    0 -0.17932009498E+04 -0.33741339226E+01  0.94293163210E+03  0.20260061929E+04  0.00000000000E+00 0.  1.
<mgrwt>
<rscale>  0 0.36361306E+04</rscale>
<asrwt>0</asrwt>
<pdfrwt beam="1">  1        1 0.39370337E+00 0.36361306E+04</pdfrwt>
<pdfrwt beam="2">  1       -1 0.19871155E+00 0.36361306E+04</pdfrwt>
<totfact> 0.15268713E-01</totfact>
</mgrwt>
</event>
<event>
 6    1  0.9562506E-007  0.3467926E+04  0.7818608E-02  0.8121433E-01
          1   -1    0    0  501    0  0.00000000000E+00  0.00000000000E+00  0.23690880613E+04  0.23690880613E+04  0.00000000000E+00 0. -1.
         -1   -1    0    0    0  501 -0.00000000000E+00 -0.00000000000E+00 -0.12691075865E+04  0.12691075865E+04  0.00000000000E+00 0.  1.
         23    2    1    2    0    0 -0.12560923203E+04  0.40512504978E+01  0.18025362889E+04  0.21989705085E+04  0.92465640329E+02 0.  0.
         13    1    3    3    0    0 -0.38282992980E+03 -0.27141639177E+00  0.62556473613E+03  0.73340989079E+03  0.00000000000E+00 0. -1.
        -13    1    3    3    0    0 -0.87326239052E+03  0.43226668896E+01  0.11769715527E+04  0.14655606177E+04  0.00000000000E+00 0.  1.
         22    1    1    2    0    0  0.12560923203E+04 -0.40512504978E+01 -0.70255581410E+03  0.14392251393E+04  0.00000000000E+00 0.  1.
<mgrwt>
<rscale>  0 0.34679260E+04</rscale>
<asrwt>0</asrwt>
<pdfrwt beam="1">  1        1 0.36447509E+00 0.34679260E+04</pdfrwt>
<pdfrwt beam="2">  1       -1 0.19524732E+00 0.34679260E+04</pdfrwt>
<totfact> 0.22160817E-01</totfact>
</mgrwt>
</event>
<event>
 6    1  0.9562506E-007  0.3352326E+04  0.7818608E-02  0.8149707E-01
          2   -1    0    0  501    0  0.00000000000E+00  0.00000000000E+00  0.15071966972E+04  0.15071966972E+04  0.00000000000E+00 0. -1.
         -2   -1    0    0    0  501 -0.00000000000E+00 -0.00000000000E+00 -0.18640715305E+04  0.18640715305E+04  0.00000000000E+00 0.  1.
         23    2    1    2    0    0 -0.82187804661E+02 -0.13799109055E+04  0.77257324814E+03  0.15861738573E+04  0.90383293648E+02 0.  0.
         11    1    3    3    0    0 -0.18635073309E+02 -0.95445039283E+03  0.55209194449E+03  0.11027820879E+04  0.00000000000E+00 0.  1.
        -11    1    3    3    0    0 -0.63552731352E+02 -0.42546051263E+03  0.22048130365E+03  0.48339176940E+03  0.00000000000E+00 0. -1.
         22    1    1    2    0    0  0.82187804661E+02  0.13799109055E+04 -0.11294480815E+04  0.17850943703E+04  0.00000000000E+00 0.  1.
<mgrwt>
<rscale>  0 0.33523260E+04</rscale>
<asrwt>0</asrwt>
<pdfrwt beam="1">  1        2 0.23187641E+00 0.33523260E+04</pdfrwt>
<pdfrwt beam="2">  1       -2 0.28678024E+00 0.33523260E+04</pdfrwt>
<totfact> 0.40038262E-01</totfact>
</mgrwt>
</event>
<event>
 6    1  0.9562506E-007  0.1057472E+04  0.7818608E-02  0.9247664E-01
          2   -1    0    0  501    0  0.00000000000E+00  0.00000000000E+00  0.15196859235E+04  0.15196859235E+04  0.00000000000E+00 0. -1.
         -2   -1    0    0    0  501 -0.00000000000E+00 -0.00000000000E+00 -0.18396009728E+03  0.18396009728E+03  0.00000000000E+00 0.  1.
         23    2    1    2    0    0  0.27171725608E+03  0.41471164912E+03  0.39464045470E+03  0.63994601812E+03  0.89296127901E+02 0.  0.
         13    1    3    3    0    0  0.10207488847E+03  0.13063968884E+03  0.18420490943E+03  0.24782546240E+03  0.00000000000E+00 0. -1.
        -13    1    3    3    0    0  0.16964236762E+03  0.28407196028E+03  0.21043554527E+03  0.39212055572E+03  0.00000000000E+00 0.  1.
         22    1    1    2    0    0 -0.27171725608E+03 -0.41471164912E+03  0.94108537156E+03  0.10637000027E+04  0.00000000000E+00 0. -1.
<mgrwt>
<rscale>  0 0.10574716E+04</rscale>
<asrwt>0</asrwt>
<pdfrwt beam="1">  1        2 0.23379783E+00 0.10574716E+04</pdfrwt>
<pdfrwt beam="2">  1       -2 0.28301554E-01 0.10574716E+04</pdfrwt>
<totfact> 0.14062972E+02</totfact>
</mgrwt>
</event>
<event>
 6    1  0.9562506E-007  0.1169988E+04  0.7818608E-02  0.9139540E-01
         -3   -1    0    0    0  501 -0.00000000000E+00  0.00000000000E+00  0.11717895044E+04  0.11717895044E+04  0.00000000000E+00 0.  1.
          3   -1    0    0  501    0  0.00000000000E+00 -0.00000000000E+00 -0.29204716360E+03  0.29204716360E+03  0.00000000000E+00 0. -1.
         23    2    1    2    0    0 -0.25874396477E+03  0.37116226366E+03  0.89926092836E+03  0.10109671056E+04  0.93136491951E+02 0.  0.
         11    1    3    3    0    0 -0.20005056704E+03  0.21854094394E+03  0.53170883424E+03  0.60868272356E+03  0.00000000000E+00 0.  1.
        -11    1    3    3    0    0 -0.58693397726E+02  0.15262131971E+03  0.36755209412E+03  0.40228438207E+03  0.00000000000E+00 0. -1.
         22    1    1    2    0    0  0.25874396477E+03 -0.37116226366E+03 -0.19518587555E+02  0.45286956238E+03  0.00000000000E+00 0. -1.
<mgrwt>
<rscale>  0 0.11699877E+04</rscale>
<asrwt>0</asrwt>
<pdfrwt beam="1">  1        3 0.44930333E-01 0.11699877E+04</pdfrwt>
<pdfrwt beam="2">  1       -3 0.18027531E+00 0.11699877E+04</pdfrwt>
<totfact> 0.25152033E+00</totfact>
</mgrwt>
</event>
<event>
 6    1  0.9562506E-007  0.3340129E+04  0.7818608E-02  0.8152759E-01
         -2   -1    0    0    0  501 -0.00000000000E+00  0.00000000000E+00  0.21838093260E+04  0.21838093260E+04  0.00000000000E+00 0.  1.
          2   -1    0    0  501    0  0.00000000000E+00 -0.00000000000E+00 -0.12771792396E+04  0.12771792396E+04  0.00000000000E+00 0. -1.
         23    2    1    2    0    0 -0.14996101253E+04  0.36875214047E+03 -0.20182999377E+03  0.15600697302E+04  0.90959044216E+02 0.  0.
         11    1    3    3    0    0 -0.97756432803E+03  0.19638557239E+03 -0.12168362150E+03  0.10044930125E+04  0.00000000000E+00 0. -1.
        -11    1    3    3    0    0 -0.52204579731E+03  0.17236656809E+03 -0.80146372269E+02  0.55557671772E+03  0.00000000000E+00 0.  1.
         22    1    1    2    0    0  0.14996101253E+04 -0.36875214047E+03  0.11084600803E+04  0.19009188354E+04  0.00000000000E+00 0.  1.
<mgrwt>
<rscale>  0 0.33401293E+04</rscale>
<asrwt>0</asrwt>
<pdfrwt beam="1">  1        2 0.19648911E+00 0.33401293E+04</pdfrwt>
<pdfrwt beam="2">  1       -2 0.33597067E+00 0.33401293E+04</pdfrwt>
<totfact> 0.27033781E-01</totfact>
</mgrwt>
</event>
<event>
 6    1  0.9562506E-007  0.1632290E+04  0.7818608E-02  0.8800953E-01
         -1   -1    0    0    0  501 -0.00000000000E+00  0.00000000000E+00  0.18688578649E+03  0.18688578649E+03  0.00000000000E+00 0.  1.
          1   -1    0    0  501    0  0.00000000000E+00 -0.00000000000E+00 -0.35641709979E+04  0.35641709979E+04  0.00000000000E+00 0. -1.
         23    2    1    2    0    0 -0.20240253838E+03  0.71274501320E+03 -0.24647841958E+04  0.25756290559E+04  0.98649178604E+02 0.  0.
         13    1    3    3    0    0 -0.15716319908E+03  0.44065095551E+03 -0.14220806971E+04  0.14970594660E+04  0.00000000000E+00 0. -1.
        -13    1    3    3    0    0 -0.45239339300E+02  0.27209405770E+03 -0.10427034987E+04  0.10785695899E+04  0.00000000000E+00 0.  1.
         22    1    1    2    0    0  0.20240253838E+03 -0.71274501320E+03 -0.91250101566E+03  0.11754277285E+04  0.00000000000E+00 0.  1.
<mgrwt>
<rscale>  0 0.16322903E+04</rscale>
<asrwt>0</asrwt>
<pdfrwt beam="1">  1        1 0.54833398E+00 0.16322903E+04</pdfrwt>
<pdfrwt beam="2">  1       -1 0.28751660E-01 0.16322903E+04</pdfrwt>
<totfact> 0.23610832E+00</totfact>
</mgrwt>
</event>
<event>
 6    1  0.9562506E-007  0.2589295E+04  0.7818608E-02  0.8371847E-01
         -1   -1    0    0    0  501 -0.00000000000E+00  0.00000000000E+00  0.47114034321E+03  0.47114034321E+03  0.00000000000E+00 0.  1.
          1   -1    0    0  501    0  0.00000000000E+00 -0.00000000000E+00 -0.35575647797E+04  0.35575647797E+04  0.00000000000E+00 0. -1.
         23    2    1    2    0    0  0.62363348626E+03  0.75296967374E+03 -0.28617465140E+04  0.30255290548E+04  0.91383240792E+02 0.  0.
         11    1    3    3    0    0  0.20496449570E+03  0.27953349896E+03 -0.89739533251E+03  0.96201237225E+03  0.00000000000E+00 0.  1.
        -11    1    3    3    0    0  0.41866899056E+03  0.47343617478E+03 -0.19643511814E+04  0.20635166826E+04  0.00000000000E+00 0. -1.
         22    1    1    2    0    0 -0.62363348626E+03 -0.75296967374E+03 -0.22467792256E+03  0.10031760681E+04  0.00000000000E+00 0.  1.
<mgrwt>
<rscale>  0 0.25892951E+04</rscale>
<asrwt>0</asrwt>
<pdfrwt beam="1">  1        1 0.54731767E+00 0.25892951E+04</pdfrwt>
<pdfrwt beam="2">  1       -1 0.72483128E-01 0.25892951E+04</pdfrwt>
<totfact> 0.38094736E-01</totfact>
</mgrwt>
</event>
<event>
 6    1  0.9562506E-007  0.3771783E+03  0.7818608E-02  0.1051982E+00
          1   -1    0    0  501    0  0.00000000000E+00  0.00000000000E+00  0.32353907151E+03  0.32353907151E+03  0.00000000000E+00 0. -1.
         -1   -1    0    0    0  501 -0.00000000000E+00 -0.00000000000E+00 -0.10992760131E+03  0.10992760131E+03  0.00000000000E+00 0.  1.
         23    2    1    2    0    0  0.13941335073E+03  0.11020677892E+03  0.11754215800E+03  0.23144952200E+03  0.90394169307E+02 0.  0.
         13    1    3    3    0    0  0.67765644149E+02  0.36947862572E+01  0.60733373706E+02  0.91073468442E+02  0.00000000000E+00 0. -1.
        -13    1    3    3    0    0  0.71647706581E+02  0.10651199266E+03  0.56808784290E+02  0.14037605355E+03  0.00000000000E+00 0.  1.
         22    1    1    2    0    0 -0.13941335073E+03 -0.11020677892E+03  0.96069312199E+02  0.20201715082E+03  0.00000000000E+00 0.  1.
<mgrwt>
<rscale>  0 0.37717833E+03</rscale>
<asrwt>0</asrwt>
<pdfrwt beam="1">  1        1 0.49775241E-01 0.37717833E+03</pdfrwt>
<pdfrwt beam="2">  1       -1 0.16911939E-01 0.37717833E+03</pdfrwt>
<totfact> 0.21178031E+03</totfact>
</mgrwt>
</event>
<event>
 6    1  0.9562506E-007  0.2165304E+04  0.7818608E-02  0.8533010E-01
         -2   -1    0    0    0  501 -0.00000000000E+00  0.00000000000E+00  0.72926732886E+03  0.72926732886E+03  0.00000000000E+00 0.  1.
          2   -1    0    0  501    0  0.00000000000E+00 -0.00000000000E+00 -0.16072785915E+04  0.16072785915E+04  0.00000000000E+00 0. -1.
         23    2    1    2    0    0  0.88797083244E+03 -0.23781355459E+03 -0.10530473122E+04  0.14007654415E+04  0.90485880006E+02 0.  0.
         11    1    3    3    0    0  0.49256695853E+03 -0.17244561412E+03 -0.62866457222E+03  0.81705498153E+03  0.00000000000E+00 0.  1.
        -11    1    3    3    0    0  0.39540387391E+03 -0.65367940466E+02 -0.42438273993E+03  0.58371045999E+03  0.00000000000E+00 0. -1.
         22    1    1    2    0    0 -0.88797083244E+03  0.23781355459E+03  0.17503604949E+03  0.93578047887E+03  0.00000000000E+00 0.  1.
<mgrwt>
<rscale>  0 0.21653044E+04</rscale>
<asrwt>0</asrwt>
<pdfrwt beam="1">  1        2 0.24727363E+00 0.21653044E+04</pdfrwt>
<pdfrwt beam="2">  1       -2 0.11219498E+00 0.21653044E+04</pdfrwt>
<totfact> 0.63426255E+00</totfact>
</mgrwt>
</event>
<event>
 6    1  0.9562506E-007  0.2179172E+04  0.7818608E-02  0.8527148E-01
         -1   -1    0    0    0  501 -0.00000000000E+00  0.00000000000E+00  0.46609726232E+03  0.46609726232E+03  0.00000000000E+00 0.  1.
          1   -1    0    0  501    0  0.00000000000E+00 -0.00000000000E+00 -0.25471019515E+04  0.25471019515E+04  0.00000000000E+00 0. -1.
         23    2    1    2    0    0  0.36693557450E+03  0.15198434824E+02 -0.24579638718E+04  0.24869189333E+04  0.91140976417E+02 0.  0.
         13    1    3    3    0    0  0.10382753155E+03  0.10488135395E+02 -0.99682794694E+03  0.10022754677E+04  0.00000000000E+00 0. -1.
        -13    1    3    3    0    0  0.26310804294E+03  0.47102994285E+01 -0.14611359248E+04  0.14846434656E+04  0.00000000000E+00 0.  1.
         22    1    1    2    0    0 -0.36693557450E+03 -0.15198434824E+02  0.37695918264E+03  0.52628028048E+03  0.00000000000E+00 0.  1.
<mgrwt>
<rscale>  0 0.21791716E+04</rscale>
<asrwt>0</asrwt>
<pdfrwt beam="1">  1        1 0.39186184E+00 0.21791716E+04</pdfrwt>
<pdfrwt beam="2">  1       -1 0.71707272E-01 0.21791716E+04</pdfrwt>
<totfact> 0.22529315E+00</totfact>
</mgrwt>
</event>
<event>
 6    1  0.9562506E-007  0.2927076E+04  0.7818608E-02  0.8264867E-01
         -2   -1    0    0    0  501 -0.00000000000E+00  0.00000000000E+00  0.20689264568E+04  0.20689264568E+04  0.00000000000E+00 0.  1.
          2   -1    0    0  501    0  0.00000000000E+00 -0.00000000000E+00 -0.10352921540E+04  0.10352921540E+04  0.00000000000E+00 0. -1.
         23    2    1    2    0    0  0.75508847624E+03 -0.79868627984E+03  0.15399959045E+04  0.18940696727E+04  0.88623692498E+02 0.  0.
         11    1    3    3    0    0  0.57944955029E+03 -0.57349488074E+03  0.10914067676E+04  0.13622873749E+04  0.00000000000E+00 0. -1.
        -11    1    3    3    0    0  0.17563892595E+03 -0.22519139910E+03  0.44858913687E+03  0.53178229780E+03  0.00000000000E+00 0.  1.
         22    1    1    2    0    0 -0.75508847624E+03  0.79868627984E+03 -0.50636160165E+03  0.12101489380E+04  0.00000000000E+00 0. -1.
<mgrwt>
<rscale>  0 0.29270759E+04</rscale>
<asrwt>0</asrwt>
<pdfrwt beam="1">  1        2 0.15927572E+00 0.29270759E+04</pdfrwt>
<pdfrwt beam="2">  1       -2 0.31829638E+00 0.29270759E+04</pdfrwt>
<totfact> 0.50515882E-01</totfact>
</mgrwt>
</event>
<event>
 6    1  0.9562506E-007  0.2861891E+04  0.7818608E-02  0.8284307E-01
         -2   -1    0    0    0  501 -0.00000000000E+00  0.00000000000E+00  0.10188444928E+04  0.10188444928E+04  0.00000000000E+00 0.  1.
          2   -1    0    0  501    0  0.00000000000E+00 -0.00000000000E+00 -0.20097328113E+04  0.20097328113E+04  0.00000000000E+00 0. -1.
         23    2    1    2    0    0 -0.63159624611E+03  0.82628727839E+03  0.54240668291E+03  0.11758339204E+04  0.81950680950E+02 0.  0.
         13    1    3    3    0    0 -0.20460160414E+03  0.21303770339E+03  0.13557080136E+03  0.32500203332E+03  0.00000000000E+00 0. -1.
        -13    1    3    3    0    0 -0.42699464197E+03  0.61324957500E+03  0.40683588155E+03  0.85083188705E+03  0.00000000000E+00 0.  1.
         22    1    1    2    0    0  0.63159624611E+03 -0.82628727839E+03 -0.15332950015E+04  0.18527433837E+04  0.00000000000E+00 0. -1.
<mgrwt>
<rscale>  0 0.28618911E+04</rscale>
<asrwt>0</asrwt>
<pdfrwt beam="1">  1        2 0.30918966E+00 0.28618911E+04</pdfrwt>
<pdfrwt beam="2">  1       -2 0.15674531E+00 0.28618911E+04</pdfrwt>
<totfact> 0.15216706E+00</totfact>
</mgrwt>
</event>
<event>
 6    1  0.1331083E-006  0.4274964E+04  0.7818608E-02  0.7951264E-01
         -2   -1    0    0    0  501 -0.00000000000E+00  0.00000000000E+00  0.15381464682E+04  0.15381464682E+04  0.00000000000E+00 0.  1.
          2   -1    0    0  501    0  0.00000000000E+00 -0.00000000000E+00 -0.29703468698E+04  0.29703468698E+04  0.00000000000E+00 0. -1.
         23    2    1    2    0    0 -0.31446978583E+02 -0.20912903084E+04 -0.25648171327E+03  0.21091604098E+04  0.91053271906E+02 0.  0.
         13    1    3    3    0    0 -0.60184645101E+02 -0.10562880881E+04 -0.11904489733E+03  0.10646776057E+04  0.00000000000E+00 0.  1.
        -13    1    3    3    0    0  0.28737666517E+02 -0.10350022204E+04 -0.13743681594E+03  0.10444828041E+04  0.00000000000E+00 0. -1.
         22    1    1    2    0    0  0.31446978583E+02  0.20912903084E+04 -0.11757186883E+04  0.23993329283E+04  0.00000000000E+00 0. -1.
<mgrwt>
<rscale>  0 0.42749636E+04</rscale>
<asrwt>0</asrwt>
<pdfrwt beam="1">  1        2 0.45697644E+00 0.42749636E+04</pdfrwt>
<pdfrwt beam="2">  1       -2 0.23663792E+00 0.42749636E+04</pdfrwt>
<totfact> 0.10891660E-01</totfact>
</mgrwt>
</event>
<event>
 6    1  0.9562506E-007  0.1857618E+04  0.7818608E-02  0.8676245E-01
         -1   -1    0    0    0  501 -0.00000000000E+00  0.00000000000E+00  0.45306361377E+03  0.45306361377E+03  0.00000000000E+00 0.  1.
          1   -1    0    0  501    0  0.00000000000E+00 -0.00000000000E+00 -0.19041173136E+04  0.19041173136E+04  0.00000000000E+00 0. -1.
         23    2    1    2    0    0  0.11144299632E+03  0.35477150211E+03  0.34963030736E+03  0.51850062511E+03  0.91209573379E+02 0.  0.
         11    1    3    3    0    0 -0.48531417865E+01  0.44897277148E+00  0.20628515776E+02  0.21196467274E+02  0.00000000000E+00 0. -1.
        -11    1    3    3    0    0  0.11629613811E+03  0.35432252934E+03  0.32900179159E+03  0.49730415784E+03  0.00000000000E+00 0.  1.
         22    1    1    2    0    0 -0.11144299632E+03 -0.35477150211E+03 -0.18006840072E+04  0.18386803023E+04  0.00000000000E+00 0. -1.
<mgrwt>
<rscale>  0 0.18576181E+04</rscale>
<asrwt>0</asrwt>
<pdfrwt beam="1">  1        1 0.29294113E+00 0.18576181E+04</pdfrwt>
<pdfrwt beam="2">  1       -1 0.69702093E-01 0.18576181E+04</pdfrwt>
<totfact> 0.67655181E+00</totfact>
</mgrwt>
</event>
<event>
 6    1  0.9562506E-007  0.1072551E+04  0.7818608E-02  0.9232367E-01
         -3   -1    0    0    0  501 -0.00000000000E+00  0.00000000000E+00  0.17383940881E+03  0.17383940881E+03  0.00000000000E+00 0.  1.
          3   -1    0    0  501    0  0.00000000000E+00 -0.00000000000E+00 -0.16543502278E+04  0.16543502278E+04  0.00000000000E+00 0. -1.
         23    2    1    2    0    0 -0.27447227906E+03 -0.39561133018E+03 -0.11334425902E+04  0.12346412291E+04  0.88337438009E+02 0.  0.
         11    1    3    3    0    0 -0.20091988267E+03 -0.33619497625E+03 -0.85123241088E+03  0.93701252854E+03  0.00000000000E+00 0. -1.
        -11    1    3    3    0    0 -0.73552396387E+02 -0.59416353927E+02 -0.28221017928E+03  0.29762870060E+03  0.00000000000E+00 0.  1.
         22    1    1    2    0    0  0.27447227906E+03  0.39561133018E+03 -0.34706822881E+03  0.59354840745E+03  0.00000000000E+00 0.  1.
<mgrwt>
<rscale>  0 0.10725507E+04</rscale>
<asrwt>0</asrwt>
<pdfrwt beam="1">  1        3 0.25451540E+00 0.10725507E+04</pdfrwt>
<pdfrwt beam="2">  1       -3 0.26744526E-01 0.10725507E+04</pdfrwt>
<totfact> 0.24621990E+00</totfact>
</mgrwt>
</event>
<event>
 6    1  0.9562506E-007  0.2331636E+04  0.7818608E-02  0.8465551E-01
          1   -1    0    0  501    0  0.00000000000E+00  0.00000000000E+00  0.18169605577E+04  0.18169605577E+04  0.00000000000E+00 0. -1.
         -1   -1    0    0    0  501 -0.00000000000E+00 -0.00000000000E+00 -0.74802493421E+03  0.74802493421E+03  0.00000000000E+00 0.  1.
         23    2    1    2    0    0 -0.86957763651E+03  0.28209211822E+03 -0.25608909506E+03  0.95519304135E+03  0.10521830905E+03 0.  0.
         13    1    3    3    0    0 -0.45384520538E+03  0.96530191977E+02 -0.15107941345E+03  0.48797391075E+03  0.00000000000E+00 0. -1.
        -13    1    3    3    0    0 -0.41573243113E+03  0.18556192625E+03 -0.10500968161E+03  0.46721913060E+03  0.00000000000E+00 0.  1.
         22    1    1    2    0    0  0.86957763651E+03 -0.28209211822E+03  0.13250247185E+04  0.16097924505E+04  0.00000000000E+00 0. -1.
<mgrwt>
<rscale>  0 0.23316362E+04</rscale>
<asrwt>0</asrwt>
<pdfrwt beam="1">  1        1 0.27953239E+00 0.23316362E+04</pdfrwt>
<pdfrwt beam="2">  1       -1 0.11508076E+00 0.23316362E+04</pdfrwt>
<totfact> 0.24502826E+00</totfact>
</mgrwt>
</event>
<event>
 6    1  0.9562506E-007  0.1591275E+04  0.7818608E-02  0.8825926E-01
          1   -1    0    0  501    0  0.00000000000E+00  0.00000000000E+00  0.15346576597E+04  0.15346576597E+04  0.00000000000E+00 0. -1.
         -1   -1    0    0    0  501 -0.00000000000E+00 -0.00000000000E+00 -0.41249548903E+03  0.41249548903E+03  0.00000000000E+00 0.  1.
         23    2    1    2    0    0  0.70118786285E+03 -0.28015533827E+03  0.26687320202E+03  0.80624532929E+03  0.93052632777E+02 0.  0.
         11    1    3    3    0    0  0.93462891319E+02 -0.47865975175E+01  0.34125742414E+02  0.99613201258E+02  0.00000000000E+00 0. -1.
        -11    1    3    3    0    0  0.60772497153E+03 -0.27536874076E+03  0.23274745961E+03  0.70663212803E+03  0.00000000000E+00 0.  1.
         22    1    1    2    0    0 -0.70118786285E+03  0.28015533827E+03  0.85528896863E+03  0.11409078194E+04  0.00000000000E+00 0. -1.
<mgrwt>
<rscale>  0 0.15912754E+04</rscale>
<asrwt>0</asrwt>
<pdfrwt beam="1">  1        1 0.23610117E+00 0.15912754E+04</pdfrwt>
<pdfrwt beam="2">  1       -1 0.63460846E-01 0.15912754E+04</pdfrwt>
<totfact> 0.14967490E+01</totfact>
</mgrwt>
</event>
<event>
 6    1  0.9562506E-007  0.9763163E+03  0.7818608E-02  0.9334909E-01
         -2   -1    0    0    0  501 -0.00000000000E+00  0.00000000000E+00  0.28422909934E+03  0.28422909934E+03  0.00000000000E+00 0.  1.
          2   -1    0    0  501    0  0.00000000000E+00 -0.00000000000E+00 -0.83840255318E+03  0.83840255318E+03  0.00000000000E+00 0. -1.
         23    2    1    2    0    0  0.41062553464E+03 -0.29476979060E+02 -0.57176015754E+03  0.71057399376E+03  0.92322807922E+02 0.  0.
         13    1    3    3    0    0  0.13585233134E+03 -0.46795467461E+02 -0.23682915431E+03  0.27700851979E+03  0.00000000000E+00 0.  1.
        -13    1    3    3    0    0  0.27477320331E+03  0.17318488401E+02 -0.33493100324E+03  0.43356547398E+03  0.00000000000E+00 0. -1.
         22    1    1    2    0    0 -0.41062553464E+03  0.29476979060E+02  0.17586703698E+02  0.41205765876E+03  0.00000000000E+00 0.  1.
<mgrwt>
<rscale>  0 0.97631635E+03</rscale>
<asrwt>0</asrwt>
<pdfrwt beam="1">  1        2 0.12898501E+00 0.97631635E+03</pdfrwt>
<pdfrwt beam="2">  1       -2 0.43727554E-01 0.97631635E+03</pdfrwt>
<totfact> 0.16023706E+02</totfact>
</mgrwt>
</event>
<event>
 6    1  0.9562506E-007  0.2367832E+04  0.7818608E-02  0.8451646E-01
         -2   -1    0    0    0  501 -0.00000000000E+00  0.00000000000E+00  0.19591989236E+04  0.19591989236E+04  0.00000000000E+00 0.  1.
          2   -1    0    0  501    0  0.00000000000E+00 -0.00000000000E+00 -0.71542344300E+03  0.71542344300E+03  0.00000000000E+00 0. -1.
         23    2    1    2    0    0  0.88354564803E+03 -0.61211479665E+03  0.11787999365E+04  0.15977940341E+04  0.89660741672E+02 0.  0.
         13    1    3    3    0    0  0.53336565470E+03 -0.31607057633E+03  0.68632865430E+03  0.92489272489E+03  0.00000000000E+00 0.  1.
        -13    1    3    3    0    0  0.35017999333E+03 -0.29604422032E+03  0.49247128217E+03  0.67290130916E+03  0.00000000000E+00 0. -1.
         22    1    1    2    0    0 -0.88354564803E+03  0.61211479665E+03  0.64975544118E+02  0.10768283325E+04  0.00000000000E+00 0. -1.
<mgrwt>
<rscale>  0 0.23678318E+04</rscale>
<asrwt>0</asrwt>
<pdfrwt beam="1">  1        2 0.11006515E+00 0.23678318E+04</pdfrwt>
<pdfrwt beam="2">  1       -2 0.30141522E+00 0.23678318E+04</pdfrwt>
<totfact> 0.11198048E+00</totfact>
</mgrwt>
</event>
<event>
 6    1  0.9562506E-007  0.9707882E+03  0.7818608E-02  0.9341177E-01
         -1   -1    0    0    0  501 -0.00000000000E+00  0.00000000000E+00  0.17313279638E+03  0.17313279638E+03  0.00000000000E+00 0.  1.
          1   -1    0    0  501    0  0.00000000000E+00 -0.00000000000E+00 -0.13608481273E+04  0.13608481273E+04  0.00000000000E+00 0. -1.
         23    2    1    2    0    0 -0.11685266063E+02  0.48128472021E+03 -0.61163214239E+03  0.78321906567E+03  0.86986779877E+02 0.  0.
         13    1    3    3    0    0 -0.32794548007E+02  0.69073256329E+02 -0.94037786532E+02  0.12120108256E+03  0.00000000000E+00 0. -1.
        -13    1    3    3    0    0  0.21109281944E+02  0.41221146388E+03 -0.51759435586E+03  0.66201798311E+03  0.00000000000E+00 0.  1.
         22    1    1    2    0    0  0.11685266063E+02 -0.48128472021E+03 -0.57608318855E+03  0.75076185804E+03  0.00000000000E+00 0. -1.
<mgrwt>
<rscale>  0 0.97078822E+03</rscale>
<asrwt>0</asrwt>
<pdfrwt beam="1">  1        1 0.20936125E+00 0.97078822E+03</pdfrwt>
<pdfrwt beam="2">  1       -1 0.26635815E-01 0.97078822E+03</pdfrwt>
<totfact> 0.10317874E+02</totfact>
</mgrwt>
</event>
<event>
 6    1  0.9562506E-007  0.3752954E+04  0.7818608E-02  0.8056327E-01
          2   -1    0    0  501    0  0.00000000000E+00  0.00000000000E+00  0.13561240234E+04  0.13561240234E+04  0.00000000000E+00 0. -1.
         -2   -1    0    0    0  501 -0.00000000000E+00 -0.00000000000E+00 -0.25964929692E+04  0.25964929692E+04  0.00000000000E+00 0.  1.
         23    2    1    2    0    0  0.62696363170E+02  0.14636657547E+04  0.61238611636E+03  0.15906369765E+04  0.94132672932E+02 0.  0.
         13    1    3    3    0    0  0.99389827781E+00  0.45653577774E+03  0.14839476499E+03  0.48004886259E+03  0.00000000000E+00 0. -1.
        -13    1    3    3    0    0  0.61702464892E+02  0.10071299770E+04  0.46399135137E+03  0.11105881140E+04  0.00000000000E+00 0.  1.
         22    1    1    2    0    0 -0.62696363170E+02 -0.14636657547E+04 -0.18527550622E+04  0.23619800160E+04  0.00000000000E+00 0.  1.
<mgrwt>
<rscale>  0 0.37529543E+04</rscale>
<asrwt>0</asrwt>
<pdfrwt beam="1">  1        2 0.20863447E+00 0.37529543E+04</pdfrwt>
<pdfrwt beam="2">  1       -2 0.39946045E+00 0.37529543E+04</pdfrwt>
<totfact> 0.92307130E-02</totfact>
</mgrwt>
</event>
<event>
 6    1  0.9562506E-007  0.1792348E+04  0.7818608E-02  0.8710380E-01
          2   -1    0    0  501    0  0.00000000000E+00  0.00000000000E+00  0.20186795627E+04  0.20186795627E+04  0.00000000000E+00 0. -1.
         -2   -1    0    0    0  501 -0.00000000000E+00 -0.00000000000E+00 -0.39784793868E+03  0.39784793868E+03  0.00000000000E+00 0.  1.
         23    2    1    2    0    0  0.82657679876E+03 -0.21043135951E+03  0.11732826323E+04  0.14532982133E+04  0.89291659352E+02 0.  0.
         11    1    3    3    0    0  0.13079015560E+03 -0.22818574927E+02  0.23878002907E+03  0.27320807902E+03  0.00000000000E+00 0. -1.
        -11    1    3    3    0    0  0.69578664316E+03 -0.18761278458E+03  0.93450260319E+03  0.11800901343E+04  0.00000000000E+00 0.  1.
         22    1    1    2    0    0 -0.82657679876E+03  0.21043135951E+03  0.44754899174E+03  0.96322928803E+03  0.00000000000E+00 0.  1.
<mgrwt>
<rscale>  0 0.17923476E+04</rscale>
<asrwt>0</asrwt>
<pdfrwt beam="1">  1        2 0.31056608E+00 0.17923476E+04</pdfrwt>
<pdfrwt beam="2">  1       -2 0.61207376E-01 0.17923476E+04</pdfrwt>
<totfact> 0.15299145E+01</totfact>
</mgrwt>
</event>
<event>
 6    1  0.9562506E-007  0.2561997E+04  0.7818608E-02  0.8381226E-01
          2   -1    0    0  501    0  0.00000000000E+00  0.00000000000E+00  0.31965625201E+04  0.31965625201E+04  0.00000000000E+00 0. -1.
         -2   -1    0    0    0  501 -0.00000000000E+00 -0.00000000000E+00 -0.51335065801E+03  0.51335065801E+03  0.00000000000E+00 0.  1.
         23    2    1    2    0    0  0.61513502262E+03 -0.85517448390E+03  0.29234091874E+03  0.10972558409E+04  0.93769257427E+02 0.  0.
         11    1    3    3    0    0  0.19342006628E+03 -0.27607817704E+03  0.48755870885E+02  0.34059890902E+03  0.00000000000E+00 0. -1.
        -11    1    3    3    0    0  0.42171495634E+03 -0.57909630686E+03  0.24358504785E+03  0.75665693188E+03  0.00000000000E+00 0.  1.
         22    1    1    2    0    0 -0.61513502262E+03  0.85517448390E+03  0.23908709433E+04  0.26126573372E+04  0.00000000000E+00 0. -1.
<mgrwt>
<rscale>  0 0.25619972E+04</rscale>
<asrwt>0</asrwt>
<pdfrwt beam="1">  1        2 0.49177884E+00 0.25619972E+04</pdfrwt>
<pdfrwt beam="2">  1       -2 0.78977026E-01 0.25619972E+04</pdfrwt>
<totfact> 0.16461847E+00</totfact>
</mgrwt>
</event>
<event>
 6    1  0.9562506E-007  0.2016684E+04  0.7818608E-02  0.8598860E-01
         -1   -1    0    0    0  501 -0.00000000000E+00  0.00000000000E+00  0.16863099820E+04  0.16863099820E+04  0.00000000000E+00 0.  1.
          1   -1    0    0  501    0  0.00000000000E+00 -0.00000000000E+00 -0.60294608628E+03  0.60294608628E+03  0.00000000000E+00 0. -1.
         23    2    1    2    0    0 -0.26899778223E+03  0.22569773988E+03  0.16134549095E+04  0.16534135095E+04  0.85089432406E+02 0.  0.
         13    1    3    3    0    0 -0.17406932153E+03  0.91440949916E+02  0.84795492096E+03  0.87045340140E+03  0.00000000000E+00 0. -1.
        -13    1    3    3    0    0 -0.94928460703E+02  0.13425678996E+03  0.76549998858E+03  0.78296010807E+03  0.00000000000E+00 0.  1.
         22    1    1    2    0    0  0.26899778223E+03 -0.22569773988E+03 -0.53009101384E+03  0.63584255881E+03  0.00000000000E+00 0. -1.
<mgrwt>
<rscale>  0 0.20166844E+04</rscale>
<asrwt>0</asrwt>
<pdfrwt beam="1">  1        1 0.92760937E-01 0.20166844E+04</pdfrwt>
<pdfrwt beam="2">  1       -1 0.25943230E+00 0.20166844E+04</pdfrwt>
<totfact> 0.19063646E+00</totfact>
</mgrwt>
</event>
<event>
 6    1  0.9562506E-007  0.4595672E+04  0.7818608E-02  0.7894098E-01
          2   -1    0    0  501    0  0.00000000000E+00  0.00000000000E+00  0.20390823951E+04  0.20390823951E+04  0.00000000000E+00 0. -1.
         -2   -1    0    0    0  501 -0.00000000000E+00 -0.00000000000E+00 -0.25894244947E+04  0.25894244947E+04  0.00000000000E+00 0.  1.
         23    2    1    2    0    0  0.77727293422E+03 -0.92037297023E+03 -0.22449341959E+04  0.25493527370E+04  0.90720533202E+02 0.  0.
         13    1    3    3    0    0  0.17255502399E+02 -0.42274846991E+02 -0.10763491102E+03  0.11691958400E+03  0.00000000000E+00 0.  1.
        -13    1    3    3    0    0  0.76001743182E+03 -0.87809812324E+03 -0.21372992849E+04  0.24324331530E+04  0.00000000000E+00 0. -1.
         22    1    1    2    0    0 -0.77727293422E+03  0.92037297023E+03  0.16945920962E+04  0.20791541528E+04  0.00000000000E+00 0. -1.
<mgrwt>
<rscale>  0 0.45956718E+04</rscale>
<asrwt>0</asrwt>
<pdfrwt beam="1">  1        2 0.31370499E+00 0.45956718E+04</pdfrwt>
<pdfrwt beam="2">  1       -2 0.39837300E+00 0.45956718E+04</pdfrwt>
<totfact> 0.36350908E-02</totfact>
</mgrwt>
</event>
<event>
 6    1  0.9562506E-007  0.4197065E+04  0.7818608E-02  0.7965931E-01
         -1   -1    0    0    0  501 -0.00000000000E+00  0.00000000000E+00  0.22650520322E+04  0.22650520322E+04  0.00000000000E+00 0.  1.
          1   -1    0    0  501    0  0.00000000000E+00 -0.00000000000E+00 -0.19442547822E+04  0.19442547822E+04  0.00000000000E+00 0. -1.
         23    2    1    2    0    0  0.19331593699E+04  0.38899007592E+03  0.87751162393E+03  0.21603194249E+04  0.92384733016E+02 0.  0.
         11    1    3    3    0    0  0.71646184155E+03  0.18669824290E+03  0.31148715934E+03  0.80324221424E+03  0.00000000000E+00 0. -1.
        -11    1    3    3    0    0  0.12166975283E+04  0.20229183302E+03  0.56602446459E+03  0.13570772107E+04  0.00000000000E+00 0.  1.
         22    1    1    2    0    0 -0.19331593699E+04 -0.38899007592E+03 -0.55671437393E+03  0.20489873896E+04  0.00000000000E+00 0. -1.
<mgrwt>
<rscale>  0 0.41970648E+04</rscale>
<asrwt>0</asrwt>
<pdfrwt beam="1">  1        1 0.29911612E+00 0.41970648E+04</pdfrwt>
<pdfrwt beam="2">  1       -1 0.34846954E+00 0.41970648E+04</pdfrwt>
<totfact> 0.39816821E-02</totfact>
</mgrwt>
</event>
<event>
 6    1  0.9562506E-007  0.3745159E+04  0.7818608E-02  0.8058027E-01
          2   -1    0    0  501    0  0.00000000000E+00  0.00000000000E+00  0.24229334006E+04  0.24229334006E+04  0.00000000000E+00 0. -1.
         -2   -1    0    0    0  501 -0.00000000000E+00 -0.00000000000E+00 -0.14472352445E+04  0.14472352445E+04  0.00000000000E+00 0.  1.
         23    2    1    2    0    0 -0.24130145991E+03  0.16102881419E+04 -0.46556855027E+03  0.16956562829E+04  0.85099119440E+02 0.  0.
         13    1    3    3    0    0 -0.86033637962E+02  0.54135871458E+03 -0.11541128624E+03  0.56017033990E+03  0.00000000000E+00 0.  1.
        -13    1    3    3    0    0 -0.15526782195E+03  0.10689294273E+04 -0.35015726403E+03  0.11354859430E+04  0.00000000000E+00 0. -1.
         22    1    1    2    0    0  0.24130145991E+03 -0.16102881419E+04  0.14412667064E+04  0.21745123622E+04  0.00000000000E+00 0. -1.
<mgrwt>
<rscale>  0 0.37451593E+04</rscale>
<asrwt>0</asrwt>
<pdfrwt beam="1">  1        2 0.37275898E+00 0.37451593E+04</pdfrwt>
<pdfrwt beam="2">  1       -2 0.22265158E+00 0.37451593E+04</pdfrwt>
<totfact> 0.29537818E-01</totfact>
</mgrwt>
</event>
<event>
 6    1  0.9562506E-007  0.3719844E+04  0.7818608E-02  0.8063578E-01
         -4   -1    0    0    0  501 -0.00000000000E+00  0.00000000000E+00  0.20342345905E+04  0.20342345905E+04  0.00000000000E+00 0.  1.
          4   -1    0    0  501    0  0.00000000000E+00 -0.00000000000E+00 -0.17005463171E+04  0.17005463171E+04  0.00000000000E+00 0. -1.
         23    2    1    2    0    0  0.26770778859E+03  0.10882460769E+04 -0.13217859865E+04  0.17356455923E+04  0.96955887810E+02 0.  0.
         13    1    3    3    0    0  0.22166620939E+03  0.76606605900E+03 -0.89160763717E+03  0.11962262720E+04  0.00000000000E+00 0.  1.
        -13    1    3    3    0    0  0.46041579199E+02  0.32218001790E+03 -0.43017834929E+03  0.53941932034E+03  0.00000000000E+00 0. -1.
         22    1    1    2    0    0 -0.26770778859E+03 -0.10882460769E+04  0.16554742598E+04  0.19991353153E+04  0.00000000000E+00 0.  1.
<mgrwt>
<rscale>  0 0.37198442E+04</rscale>
<asrwt>0</asrwt>
<pdfrwt beam="1">  1        4 0.26162251E+00 0.37198442E+04</pdfrwt>
<pdfrwt beam="2">  1       -4 0.31295917E+00 0.37198442E+04</pdfrwt>
<totfact> 0.21726940E-03</totfact>
</mgrwt>
</event>
<event>
 6    1  0.9562506E-007  0.7797687E+03  0.7818608E-02  0.9589772E-01
          1   -1    0    0  501    0  0.00000000000E+00  0.00000000000E+00  0.28745821450E+03  0.28745821450E+03  0.00000000000E+00 0. -1.
         -1   -1    0    0    0  501 -0.00000000000E+00 -0.00000000000E+00 -0.52880659284E+03  0.52880659284E+03  0.00000000000E+00 0.  1.
         23    2    1    2    0    0  0.23149694877E+03 -0.13186204738E+03 -0.41121577173E+03  0.50030061923E+03  0.10111311415E+03 0.  0.
         11    1    3    3    0    0  0.64172914505E+02 -0.74951568353E+02 -0.89400820191E+02  0.13314806497E+03  0.00000000000E+00 0.  1.
        -11    1    3    3    0    0  0.16732403426E+03 -0.56910479030E+02 -0.32181495154E+03  0.36715255426E+03  0.00000000000E+00 0. -1.
         22    1    1    2    0    0 -0.23149694877E+03  0.13186204738E+03  0.16986739339E+03  0.31596418811E+03  0.00000000000E+00 0. -1.
<mgrwt>
<rscale>  0 0.77976868E+03</rscale>
<asrwt>0</asrwt>
<pdfrwt beam="1">  1        1 0.44224341E-01 0.77976868E+03</pdfrwt>
<pdfrwt beam="2">  1       -1 0.81354859E-01 0.77976868E+03</pdfrwt>
<totfact> 0.14134713E+02</totfact>
</mgrwt>
</event>
<event>
 6    1  0.9562506E-007  0.2457168E+04  0.7818608E-02  0.8418405E-01
         -4   -1    0    0    0  501 -0.00000000000E+00  0.00000000000E+00  0.10422466089E+04  0.10422466089E+04  0.00000000000E+00 0.  1.
          4   -1    0    0  501    0  0.00000000000E+00 -0.00000000000E+00 -0.14482359235E+04  0.14482359235E+04  0.00000000000E+00 0. -1.
         23    2    1    2    0    0 -0.98054780189E+03 -0.29321890155E+03 -0.88902904923E+03  0.13587675943E+04  0.91790025738E+02 0.  0.
         13    1    3    3    0    0 -0.36797111924E+03 -0.65926903671E+02 -0.34052184520E+03  0.50567205606E+03  0.00000000000E+00 0. -1.
        -13    1    3    3    0    0 -0.61257668265E+03 -0.22729199788E+03 -0.54850720403E+03  0.85309553820E+03  0.00000000000E+00 0.  1.
         22    1    1    2    0    0  0.98054780189E+03  0.29321890155E+03  0.48303973459E+03  0.11317149381E+04  0.00000000000E+00 0.  1.
<mgrwt>
<rscale>  0 0.24571683E+04</rscale>
<asrwt>0</asrwt>
<pdfrwt beam="1">  1        4 0.22280553E+00 0.24571683E+04</pdfrwt>
<pdfrwt beam="2">  1       -4 0.16034563E+00 0.24571683E+04</pdfrwt>
<totfact> 0.41578504E-02</totfact>
</mgrwt>
</event>
<event>
 6    1  0.9562506E-007  0.1296015E+04  0.7818608E-02  0.9032732E-01
         -2   -1    0    0    0  501 -0.00000000000E+00  0.00000000000E+00  0.26185619380E+03  0.26185619380E+03  0.00000000000E+00 0.  1.
          2   -1    0    0  501    0  0.00000000000E+00 -0.00000000000E+00 -0.16036033925E+04  0.16036033925E+04  0.00000000000E+00 0. -1.
         23    2    1    2    0    0 -0.36201560728E+03  0.17306042692E+03 -0.14007932635E+04  0.14598838855E+04  0.89632476705E+02 0.  0.
         13    1    3    3    0    0 -0.24648172763E+03  0.74177819296E+02 -0.81556418054E+03  0.85521957620E+03  0.00000000000E+00 0. -1.
        -13    1    3    3    0    0 -0.11553387965E+03  0.98882607620E+02 -0.58522908294E+03  0.60466430931E+03  0.00000000000E+00 0.  1.
         22    1    1    2    0    0  0.36201560728E+03 -0.17306042692E+03  0.59046064809E+02  0.40557570076E+03  0.00000000000E+00 0.  1.
<mgrwt>
<rscale>  0 0.12960146E+04</rscale>
<asrwt>0</asrwt>
<pdfrwt beam="1">  1        2 0.24670821E+00 0.12960146E+04</pdfrwt>
<pdfrwt beam="2">  1       -2 0.40285568E-01 0.12960146E+04</pdfrwt>
<totfact> 0.63453834E+01</totfact>
</mgrwt>
</event>
<event>
 6    1  0.9562506E-007  0.3263242E+04  0.7818608E-02  0.8172312E-01
          1   -1    0    0  501    0  0.00000000000E+00  0.00000000000E+00  0.37235426183E+04  0.37235426183E+04  0.00000000000E+00 0. -1.
         -1   -1    0    0    0  501 -0.00000000000E+00 -0.00000000000E+00 -0.71496087699E+03  0.71496087699E+03  0.00000000000E+00 0.  1.
         23    2    1    2    0    0 -0.27963211658E+03  0.73003667976E+03 -0.44020497872E+03  0.90222331484E+03  0.95282800858E+02 0.  0.
         13    1    3    3    0    0 -0.13260744975E+03  0.25152286909E+03 -0.12454869081E+03  0.31042046612E+03  0.00000000000E+00 0. -1.
        -13    1    3    3    0    0 -0.14702466683E+03  0.47851381067E+03 -0.31565628791E+03  0.59180284872E+03  0.00000000000E+00 0.  1.
         22    1    1    2    0    0  0.27963211658E+03 -0.73003667976E+03  0.34487867201E+04  0.35362801805E+04  0.00000000000E+00 0. -1.
<mgrwt>
<rscale>  0 0.32632421E+04</rscale>
<asrwt>0</asrwt>
<pdfrwt beam="1">  1        1 0.57285270E+00 0.32632421E+04</pdfrwt>
<pdfrwt beam="2">  1       -1 0.10999398E+00 0.32632421E+04</pdfrwt>
<totfact> 0.10464097E-01</totfact>
</mgrwt>
</event>
<event>
 6    1  0.9562506E-007  0.6272483E+03  0.7818608E-02  0.9850433E-01
         -1   -1    0    0    0  501 -0.00000000000E+00  0.00000000000E+00  0.34773043323E+03  0.34773043323E+03  0.00000000000E+00 0.  1.
          1   -1    0    0  501    0  0.00000000000E+00 -0.00000000000E+00 -0.28286307937E+03  0.28286307937E+03  0.00000000000E+00 0. -1.
         23    2    1    2    0    0 -0.20199969030E+03 -0.20085269079E+03 -0.81468428169E+02  0.31034386095E+03  0.92360862720E+02 0.  0.
         11    1    3    3    0    0 -0.10276448571E+03 -0.71024825677E+02 -0.77255930531E+02  0.14687935249E+03  0.00000000000E+00 0.  1.
        -11    1    3    3    0    0 -0.99235204594E+02 -0.12982786512E+03 -0.42124976378E+01  0.16346450846E+03  0.00000000000E+00 0. -1.
         22    1    1    2    0    0  0.20199969030E+03  0.20085269079E+03  0.14633578203E+03  0.32024965165E+03  0.00000000000E+00 0.  1.
<mgrwt>
<rscale>  0 0.62724828E+03</rscale>
<asrwt>0</asrwt>
<pdfrwt beam="1">  1        1 0.43517397E-01 0.62724828E+03</pdfrwt>
<pdfrwt beam="2">  1       -1 0.53496990E-01 0.62724828E+03</pdfrwt>
<totfact> 0.33836648E+02</totfact>
</mgrwt>
</event>
<event>
 6    1  0.9562506E-007  0.2317202E+04  0.7818608E-02  0.8471169E-01
          2   -1    0    0  501    0  0.00000000000E+00  0.00000000000E+00  0.30513250679E+04  0.30513250679E+04  0.00000000000E+00 0. -1.
         -2   -1    0    0    0  501 -0.00000000000E+00 -0.00000000000E+00 -0.43992582751E+03  0.43992582751E+03  0.00000000000E+00 0.  1.
         23    2    1    2    0    0 -0.57307824411E+03 -0.12448459432E+03  0.28101344191E+04  0.28720491840E+04  0.88859292163E+02 0.  0.
         13    1    3    3    0    0 -0.52196563712E+03 -0.94533326638E+02  0.26086137194E+04  0.26620011670E+04  0.00000000000E+00 0. -1.
        -13    1    3    3    0    0 -0.51112606987E+02 -0.29951267680E+02  0.20152069971E+03  0.21004801699E+03  0.00000000000E+00 0.  1.
         22    1    1    2    0    0  0.57307824411E+03  0.12448459432E+03 -0.19873517875E+03  0.61920171137E+03  0.00000000000E+00 0.  1.
<mgrwt>
<rscale>  0 0.23172024E+04</rscale>
<asrwt>0</asrwt>
<pdfrwt beam="1">  1        2 0.46943461E+00 0.23172024E+04</pdfrwt>
<pdfrwt beam="2">  1       -2 0.67680898E-01 0.23172024E+04</pdfrwt>
<totfact> 0.29296518E+00</totfact>
</mgrwt>
</event>
<event>
 6    1  0.9562506E-007  0.2031512E+04  0.7818608E-02  0.8592028E-01
         -2   -1    0    0    0  501 -0.00000000000E+00  0.00000000000E+00  0.33677725356E+03  0.33677725356E+03  0.00000000000E+00 0.  1.
          2   -1    0    0  501    0  0.00000000000E+00 -0.00000000000E+00 -0.30636283165E+04  0.30636283165E+04  0.00000000000E+00 0. -1.
         23    2    1    2    0    0  0.29054086468E+03 -0.46957719517E+03  0.56675966499E+02  0.56263541379E+03  0.91813438001E+02 0.  0.
         13    1    3    3    0    0  0.65755915604E+01 -0.64098215689E+02  0.52985590232E+00  0.64436793885E+02  0.00000000000E+00 0. -1.
        -13    1    3    3    0    0  0.28396527311E+03 -0.40547897948E+03  0.56146110597E+02  0.49819861990E+03  0.00000000000E+00 0.  1.
         22    1    1    2    0    0 -0.29054086468E+03  0.46957719517E+03 -0.27835270294E+04  0.28377701563E+04  0.00000000000E+00 0. -1.
<mgrwt>
<rscale>  0 0.20315121E+04</rscale>
<asrwt>0</asrwt>
<pdfrwt beam="1">  1        2 0.47132741E+00 0.20315121E+04</pdfrwt>
<pdfrwt beam="2">  1       -2 0.51811887E-01 0.20315121E+04</pdfrwt>
<totfact> 0.51878545E+00</totfact>
</mgrwt>
</event>
<event>
 6    1  0.9562506E-007  0.1371209E+04  0.7818608E-02  0.8974926E-01
         -2   -1    0    0    0  501 -0.00000000000E+00  0.00000000000E+00  0.22415354786E+03  0.22415354786E+03  0.00000000000E+00 0.  1.
          2   -1    0    0  501    0  0.00000000000E+00 -0.00000000000E+00 -0.20970165169E+04  0.20970165169E+04  0.00000000000E+00 0. -1.
         23    2    1    2    0    0 -0.22825775570E+03  0.52753494160E+03 -0.15641585646E+04  0.16687184367E+04  0.87375558240E+02 0.  0.
         13    1    3    3    0    0 -0.11050901164E+03  0.15651706462E+03 -0.48232216107E+03  0.51898410403E+03  0.00000000000E+00 0. -1.
        -13    1    3    3    0    0 -0.11774874406E+03  0.37101787698E+03 -0.10818364035E+04  0.11497343327E+04  0.00000000000E+00 0.  1.
         22    1    1    2    0    0  0.22825775570E+03 -0.52753494160E+03 -0.30870440448E+03  0.65245162809E+03  0.00000000000E+00 0.  1.
<mgrwt>
<rscale>  0 0.13712092E+04</rscale>
<asrwt>0</asrwt>
<pdfrwt beam="1">  1        2 0.32261793E+00 0.13712092E+04</pdfrwt>
<pdfrwt beam="2">  1       -2 0.34485161E-01 0.13712092E+04</pdfrwt>
<totfact> 0.45390069E+01</totfact>
</mgrwt>
</event>
<event>
 6    1  0.9562506E-007  0.3211189E+04  0.7818608E-02  0.8185868E-01
         -2   -1    0    0    0  501 -0.00000000000E+00  0.00000000000E+00  0.83533795487E+03  0.83533795487E+03  0.00000000000E+00 0.  1.
          2   -1    0    0  501    0  0.00000000000E+00 -0.00000000000E+00 -0.30860974216E+04  0.30860974216E+04  0.00000000000E+00 0. -1.
         23    2    1    2    0    0 -0.25887587248E+02  0.49774966952E+03 -0.29882894365E+04  0.30312806951E+04  0.10180371168E+03 0.  0.
         13    1    3    3    0    0  0.82323890318E+01  0.43819324339E+03 -0.26635801380E+04  0.26993962736E+04  0.00000000000E+00 0. -1.
        -13    1    3    3    0    0 -0.34119976280E+02  0.59556426128E+02 -0.32470929849E+03  0.33188442145E+03  0.00000000000E+00 0.  1.
         22    1    1    2    0    0  0.25887587248E+02 -0.49774966952E+03  0.73752996969E+03  0.89015468143E+03  0.00000000000E+00 0.  1.
<mgrwt>
<rscale>  0 0.32111894E+04</rscale>
<asrwt>0</asrwt>
<pdfrwt beam="1">  1        2 0.47478422E+00 0.32111894E+04</pdfrwt>
<pdfrwt beam="2">  1       -2 0.12851353E+00 0.32111894E+04</pdfrwt>
<totfact> 0.57729088E-01</totfact>
</mgrwt>
</event>
<event>
 6    1  0.9562506E-007  0.1876306E+04  0.7818608E-02  0.8666741E-01
          1   -1    0    0  501    0  0.00000000000E+00  0.00000000000E+00  0.94497024238E+03  0.94497024238E+03  0.00000000000E+00 0. -1.
         -1   -1    0    0    0  501 -0.00000000000E+00 -0.00000000000E+00 -0.93138510893E+03  0.93138510893E+03  0.00000000000E+00 0.  1.
         23    2    1    2    0    0  0.76212242415E+03 -0.54329741627E+03  0.17935830581E+02  0.94039509548E+03  0.89546466460E+02 0.  0.
         13    1    3    3    0    0  0.19354168156E+03 -0.12672029254E+03  0.42054320010E+02  0.23512758424E+03  0.00000000000E+00 0.  1.
        -13    1    3    3    0    0  0.56858074259E+03 -0.41657712374E+03 -0.24118489429E+02  0.70526751123E+03  0.00000000000E+00 0. -1.
         22    1    1    2    0    0 -0.76212242415E+03  0.54329741627E+03 -0.43506971271E+01  0.93596025583E+03  0.00000000000E+00 0. -1.
<mgrwt>
<rscale>  0 0.18763062E+04</rscale>
<asrwt>0</asrwt>
<pdfrwt beam="1">  1        1 0.14538004E+00 0.18763062E+04</pdfrwt>
<pdfrwt beam="2">  1       -1 0.14329002E+00 0.18763062E+04</pdfrwt>
<totfact> 0.61847438E+00</totfact>
</mgrwt>
</event>
<event>
 6    1  0.9562506E-007  0.2026048E+04  0.7818608E-02  0.8594538E-01
         -1   -1    0    0    0  501 -0.00000000000E+00  0.00000000000E+00  0.54825177250E+03  0.54825177250E+03  0.00000000000E+00 0.  1.
          1   -1    0    0  501    0  0.00000000000E+00 -0.00000000000E+00 -0.18718001775E+04  0.18718001775E+04  0.00000000000E+00 0. -1.
         23    2    1    2    0    0 -0.97679337448E+03  0.21989117946E+03 -0.83348184284E+03  0.13053131185E+04  0.81687989763E+02 0.  0.
         13    1    3    3    0    0 -0.90102832934E+02 -0.28930333064E+00 -0.60089409735E+02  0.10830208383E+03  0.00000000000E+00 0.  1.
        -13    1    3    3    0    0 -0.88669054155E+03  0.22018048279E+03 -0.77339243311E+03  0.11970110346E+04  0.00000000000E+00 0. -1.
         22    1    1    2    0    0  0.97679337448E+03 -0.21989117946E+03 -0.49006656220E+03  0.11147388316E+04  0.00000000000E+00 0.  1.
<mgrwt>
<rscale>  0 0.20260481E+04</rscale>
<asrwt>0</asrwt>
<pdfrwt beam="1">  1        1 0.28796926E+00 0.20260481E+04</pdfrwt>
<pdfrwt beam="2">  1       -1 0.84346426E-01 0.20260481E+04</pdfrwt>
<totfact> 0.46913849E+00</totfact>
</mgrwt>
</event>
<event>
 6    1  0.9562506E-007  0.2143632E+04  0.7818608E-02  0.8542263E-01
         -1   -1    0    0    0  501 -0.00000000000E+00  0.00000000000E+00  0.92278570698E+03  0.92278570698E+03  0.00000000000E+00 0.  1.
          1   -1    0    0  501    0  0.00000000000E+00 -0.00000000000E+00 -0.12449150472E+04  0.12449150472E+04  0.00000000000E+00 0. -1.
         23    2    1    2    0    0  0.51267813001E+03  0.61601611779E+03  0.55499449285E+03  0.97956736904E+03  0.96013650148E+02 0.  0.
         13    1    3    3    0    0  0.14313824568E+03  0.12831243084E+03  0.17011095315E+03  0.25669120294E+03  0.00000000000E+00 0.  1.
        -13    1    3    3    0    0  0.36953988433E+03  0.48770368696E+03  0.38488353970E+03  0.72287616610E+03  0.00000000000E+00 0. -1.
         22    1    1    2    0    0 -0.51267813001E+03 -0.61601611779E+03 -0.87712383311E+03  0.11881333852E+04  0.00000000000E+00 0. -1.
<mgrwt>
<rscale>  0 0.21436323E+04</rscale>
<asrwt>0</asrwt>
<pdfrwt beam="1">  1        1 0.19152539E+00 0.21436323E+04</pdfrwt>
<pdfrwt beam="2">  1       -1 0.14196703E+00 0.21436323E+04</pdfrwt>
<totfact> 0.36692878E+00</totfact>
</mgrwt>
</event>
<event>
 6    1  0.9562506E-007  0.6645300E+04  0.7818608E-02  0.7615165E-01
         -1   -1    0    0    0  501 -0.00000000000E+00  0.00000000000E+00  0.41542968927E+04  0.41542968927E+04  0.00000000000E+00 0.  1.
          1   -1    0    0  501    0  0.00000000000E+00 -0.00000000000E+00 -0.26574902397E+04  0.26574902397E+04  0.00000000000E+00 0. -1.
         23    2    1    2    0    0 -0.10873929718E+04 -0.24975064415E+04 -0.12006378154E+04  0.29782289209E+04  0.91402631125E+02 0.  0.
         13    1    3    3    0    0 -0.67429183267E+03 -0.15793655915E+04 -0.71041074375E+03  0.18584263698E+04  0.00000000000E+00 0.  1.
        -13    1    3    3    0    0 -0.41310113910E+03 -0.91814085002E+03 -0.49022707163E+03  0.11198025511E+04  0.00000000000E+00 0. -1.
         22    1    1    2    0    0  0.10873929718E+04  0.24975064415E+04  0.26974444684E+04  0.38335582115E+04  0.00000000000E+00 0.  1.
<mgrwt>
<rscale>  0 0.66453001E+04</rscale>
<asrwt>0</asrwt>
<pdfrwt beam="1">  1        1 0.40884466E+00 0.66453001E+04</pdfrwt>
<pdfrwt beam="2">  1       -1 0.63912259E+00 0.66453001E+04</pdfrwt>
<totfact> 0.21871133E-04</totfact>
</mgrwt>
</event>
<event>
 6    1  0.9562506E-007  0.9042435E+03  0.7818608E-02  0.9420292E-01
          2   -1    0    0  501    0  0.00000000000E+00  0.00000000000E+00  0.40258142872E+03  0.40258142872E+03  0.00000000000E+00 0. -1.
         -2   -1    0    0    0  501 -0.00000000000E+00 -0.00000000000E+00 -0.50775836412E+03  0.50775836412E+03  0.00000000000E+00 0.  1.
         23    2    1    2    0    0 -0.12594105963E+03 -0.34304118780E+03 -0.31329568647E+03  0.48980225400E+03  0.90629210726E+02 0.  0.
         13    1    3    3    0    0 -0.64180358686E+02 -0.22384142988E+03 -0.14419821696E+03  0.27389273438E+03  0.00000000000E+00 0. -1.
        -13    1    3    3    0    0 -0.61760700940E+02 -0.11919975792E+03 -0.16909746951E+03  0.21590951963E+03  0.00000000000E+00 0.  1.
         22    1    1    2    0    0  0.12594105963E+03  0.34304118780E+03  0.20811875107E+03  0.42053753884E+03  0.00000000000E+00 0. -1.
<mgrwt>
<rscale>  0 0.90424352E+03</rscale>
<asrwt>0</asrwt>
<pdfrwt beam="1">  1        2 0.61935604E-01 0.90424352E+03</pdfrwt>
<pdfrwt beam="2">  1       -2 0.78116671E-01 0.90424352E+03</pdfrwt>
<totfact> 0.11555452E+02</totfact>
</mgrwt>
</event>
<event>
 6    1  0.9562506E-007  0.2155401E+04  0.7818608E-02  0.8537224E-01
         -1   -1    0    0    0  501 -0.00000000000E+00  0.00000000000E+00  0.46301769432E+03  0.46301769432E+03  0.00000000000E+00 0.  1.
          1   -1    0    0  501    0  0.00000000000E+00 -0.00000000000E+00 -0.25084094617E+04  0.25084094617E+04  0.00000000000E+00 0. -1.
         23    2    1    2    0    0  0.17159692049E+02 -0.10714608865E+04 -0.11511289281E+04  0.15757090928E+04  0.97151683343E+02 0.  0.
         11    1    3    3    0    0  0.26155701629E+02 -0.90076171535E+02 -0.11794748107E+03  0.15069653512E+03  0.00000000000E+00 0.  1.
        -11    1    3    3    0    0 -0.89960095803E+01 -0.98138471498E+03 -0.10331814470E+04  0.14250125577E+04  0.00000000000E+00 0. -1.
         22    1    1    2    0    0 -0.17159692049E+02  0.10714608865E+04 -0.89426283933E+03  0.13957180633E+04  0.00000000000E+00 0. -1.
<mgrwt>
<rscale>  0 0.21554006E+04</rscale>
<asrwt>0</asrwt>
<pdfrwt beam="1">  1        1 0.38590915E+00 0.21554006E+04</pdfrwt>
<pdfrwt beam="2">  1       -1 0.71233491E-01 0.21554006E+04</pdfrwt>
<totfact> 0.24351504E+00</totfact>
</mgrwt>
</event>
<event>
 6    1  0.9562506E-007  0.2547394E+04  0.7818608E-02  0.8386293E-01
          2   -1    0    0  501    0  0.00000000000E+00  0.00000000000E+00  0.12330718858E+04  0.12330718858E+04  0.00000000000E+00 0. -1.
         -2   -1    0    0    0  501 -0.00000000000E+00 -0.00000000000E+00 -0.13156601938E+04  0.13156601938E+04  0.00000000000E+00 0.  1.
         23    2    1    2    0    0 -0.27057978949E+02  0.73765712177E+03  0.99521515602E+03  0.12423896779E+04  0.90602105658E+02 0.  0.
         13    1    3    3    0    0  0.31493234504E+02  0.31965235723E+03  0.40977893405E+03  0.52066133723E+03  0.00000000000E+00 0. -1.
        -13    1    3    3    0    0 -0.58551213453E+02  0.41800476454E+03  0.58543622197E+03  0.72172834070E+03  0.00000000000E+00 0.  1.
         22    1    1    2    0    0  0.27057978949E+02 -0.73765712177E+03 -0.10778034639E+04  0.13063424017E+04  0.00000000000E+00 0.  1.
<mgrwt>
<rscale>  0 0.25473936E+04</rscale>
<asrwt>0</asrwt>
<pdfrwt beam="1">  1        2 0.18970337E+00 0.25473936E+04</pdfrwt>
<pdfrwt beam="2">  1       -2 0.20240926E+00 0.25473936E+04</pdfrwt>
<totfact> 0.20623469E+00</totfact>
</mgrwt>
</event>
<event>
 6    1  0.9562506E-007  0.7726589E+03  0.7818608E-02  0.9600458E-01
          1   -1    0    0  501    0  0.00000000000E+00  0.00000000000E+00  0.16282539584E+03  0.16282539584E+03  0.00000000000E+00 0. -1.
         -1   -1    0    0    0  501 -0.00000000000E+00 -0.00000000000E+00 -0.91662874963E+03  0.91662874963E+03  0.00000000000E+00 0.  1.
         23    2    1    2    0    0 -0.48276892554E+01 -0.33439974134E+03 -0.12708805699E+03  0.36908905847E+03  0.90713093106E+02 0.  0.
         11    1    3    3    0    0 -0.27334897475E+02 -0.95304462157E+02 -0.39939662548E+01  0.99227460380E+02  0.00000000000E+00 0. -1.
        -11    1    3    3    0    0  0.22507208220E+02 -0.23909527919E+03 -0.12309409074E+03  0.26986159809E+03  0.00000000000E+00 0.  1.
         22    1    1    2    0    0  0.48276892554E+01  0.33439974134E+03 -0.62671529680E+03  0.71036508700E+03  0.00000000000E+00 0.  1.
<mgrwt>
<rscale>  0 0.77265889E+03</rscale>
<asrwt>0</asrwt>
<pdfrwt beam="1">  1        1 0.25050061E-01 0.77265889E+03</pdfrwt>
<pdfrwt beam="2">  1       -1 0.14101981E+00 0.77265889E+03</pdfrwt>
<totfact> 0.81334588E+01</totfact>
</mgrwt>
</event>
<event>
 6    1  0.9562506E-007  0.2087701E+04  0.7818608E-02  0.8566680E-01
         -4   -1    0    0    0  501 -0.00000000000E+00  0.00000000000E+00  0.62798445989E+03  0.62798445989E+03  0.00000000000E+00 0.  1.
          4   -1    0    0  501    0  0.00000000000E+00 -0.00000000000E+00 -0.17351131934E+04  0.17351131934E+04  0.00000000000E+00 0. -1.
         23    2    1    2    0    0  0.31465333892E+03 -0.12467724786E+03 -0.16699332512E+04  0.17063632588E+04  0.91909563432E+02 0.  0.
         13    1    3    3    0    0  0.27995678835E+03 -0.10403266924E+03 -0.12817339406E+04  0.13160700947E+04  0.00000000000E+00 0. -1.
        -13    1    3    3    0    0  0.34696550564E+02 -0.20644578626E+02 -0.38819931062E+03  0.39029316419E+03  0.00000000000E+00 0.  1.
         22    1    1    2    0    0 -0.31465333892E+03  0.12467724786E+03  0.56280451764E+03  0.65673439449E+03  0.00000000000E+00 0.  1.
<mgrwt>
<rscale>  0 0.20877012E+04</rscale>
<asrwt>0</asrwt>
<pdfrwt beam="1">  1        4 0.26694049E+00 0.20877012E+04</pdfrwt>
<pdfrwt beam="2">  1       -4 0.96612993E-01 0.20877012E+04</pdfrwt>
<totfact> 0.81979508E-02</totfact>
</mgrwt>
</event>
<event>
 6    1  0.9562506E-007  0.9156146E+03  0.7818608E-02  0.9406270E-01
         -2   -1    0    0    0  501 -0.00000000000E+00  0.00000000000E+00  0.17238918822E+03  0.17238918822E+03  0.00000000000E+00 0.  1.
          2   -1    0    0  501    0  0.00000000000E+00 -0.00000000000E+00 -0.12157811834E+04  0.12157811834E+04  0.00000000000E+00 0. -1.
         23    2    1    2    0    0 -0.38242834169E+02 -0.37006397168E+03 -0.91913707497E+03  0.99593429132E+03  0.93071437797E+02 0.  0.
         11    1    3    3    0    0 -0.12712364076E+02 -0.32988146714E+03 -0.73485969460E+03  0.80560670138E+03  0.00000000000E+00 0.  1.
        -11    1    3    3    0    0 -0.25530470093E+02 -0.40182504542E+02 -0.18427738037E+03  0.19032758994E+03  0.00000000000E+00 0. -1.
         22    1    1    2    0    0  0.38242834169E+02  0.37006397168E+03 -0.12425492023E+03  0.39223608032E+03  0.00000000000E+00 0.  1.
<mgrwt>
<rscale>  0 0.91561462E+03</rscale>
<asrwt>0</asrwt>
<pdfrwt beam="1">  1        2 0.18704325E+00 0.91561462E+03</pdfrwt>
<pdfrwt beam="2">  1       -2 0.26521414E-01 0.91561462E+03</pdfrwt>
<totfact> 0.23885831E+02</totfact>
</mgrwt>
</event>
<event>
 6    1  0.9562506E-007  0.2700675E+04  0.7818608E-02  0.8334786E-01
          2   -1    0    0  501    0  0.00000000000E+00  0.00000000000E+00  0.25909141691E+04  0.25909141691E+04  0.00000000000E+00 0. -1.
         -2   -1    0    0    0  501 -0.00000000000E+00 -0.00000000000E+00 -0.70377150640E+03  0.70377150640E+03  0.00000000000E+00 0.  1.
         23    2    1    2    0    0 -0.46872164470E+03  0.12484330629E+04  0.11814884077E+04  0.17859666757E+04  0.12440665826E+03 0.  0.
         11    1    3    3    0    0 -0.41126154143E+03  0.94699510687E+03  0.91316554382E+03  0.13783349006E+04  0.00000000000E+00 0. -1.
        -11    1    3    3    0    0 -0.57460103265E+02  0.30143795601E+03  0.26832286390E+03  0.40763177511E+03  0.00000000000E+00 0.  1.
         22    1    1    2    0    0  0.46872164470E+03 -0.12484330629E+04  0.70565425503E+03  0.15087189998E+04  0.00000000000E+00 0. -1.
<mgrwt>
<rscale>  0 0.27006752E+04</rscale>
<asrwt>0</asrwt>
<pdfrwt beam="1">  1        2 0.39860218E+00 0.27006752E+04</pdfrwt>
<pdfrwt beam="2">  1       -2 0.10827254E+00 0.27006752E+04</pdfrwt>
<totfact> 0.18445454E+00</totfact>
</mgrwt>
</event>
<event>
 6    1  0.9562506E-007  0.3202681E+04  0.7818608E-02  0.8188109E-01
          1   -1    0    0  501    0  0.00000000000E+00  0.00000000000E+00  0.16871407319E+04  0.16871407319E+04  0.00000000000E+00 0. -1.
         -1   -1    0    0    0  501 -0.00000000000E+00 -0.00000000000E+00 -0.15199039410E+04  0.15199039410E+04  0.00000000000E+00 0.  1.
         23    2    1    2    0    0 -0.11698544596E+04 -0.13681174568E+03  0.11680668201E+04  0.16614258138E+04  0.93159691948E+02 0.  0.
         11    1    3    3    0    0 -0.29655955961E+03 -0.27499385768E+02  0.35317618069E+03  0.46199264412E+03  0.00000000000E+00 0. -1.
        -11    1    3    3    0    0 -0.87329489997E+03 -0.10931235991E+03  0.81489063939E+03  0.11994331697E+04  0.00000000000E+00 0.  1.
         22    1    1    2    0    0  0.11698544596E+04  0.13681174568E+03 -0.10008300292E+04  0.15456188592E+04  0.00000000000E+00 0.  1.
<mgrwt>
<rscale>  0 0.32026813E+04</rscale>
<asrwt>0</asrwt>
<pdfrwt beam="1">  1        1 0.25956011E+00 0.32026813E+04</pdfrwt>
<pdfrwt beam="2">  1       -1 0.23383138E+00 0.32026813E+04</pdfrwt>
<totfact> 0.36220796E-01</totfact>
</mgrwt>
</event>
<event>
 6    1  0.9562506E-007  0.3125893E+04  0.7818608E-02  0.8208668E-01
         -1   -1    0    0    0  501 -0.00000000000E+00  0.00000000000E+00  0.64258869626E+03  0.64258869626E+03  0.00000000000E+00 0.  1.
          1   -1    0    0  501    0  0.00000000000E+00 -0.00000000000E+00 -0.38015015148E+04  0.38015015148E+04  0.00000000000E+00 0. -1.
         23    2    1    2    0    0 -0.53596308649E+02  0.90311923144E+03 -0.33904116078E+04  0.35102333698E+04  0.91381233970E+02 0.  0.
         13    1    3    3    0    0 -0.70363612117E+02  0.64348071976E+03 -0.25158063145E+04  0.25977490038E+04  0.00000000000E+00 0. -1.
        -13    1    3    3    0    0  0.16767303467E+02  0.25963851168E+03 -0.87460529324E+03  0.91248436599E+03  0.00000000000E+00 0.  1.
         22    1    1    2    0    0  0.53596308649E+02 -0.90311923144E+03  0.23149878924E+03  0.93385684123E+03  0.00000000000E+00 0.  1.
<mgrwt>
<rscale>  0 0.31258931E+04</rscale>
<asrwt>0</asrwt>
<pdfrwt beam="1">  1        1 0.58484638E+00 0.31258931E+04</pdfrwt>
<pdfrwt beam="2">  1       -1 0.98859801E-01 0.31258931E+04</pdfrwt>
<totfact> 0.11692403E-01</totfact>
</mgrwt>
</event>
<event>
 6    1  0.9562506E-007  0.1990517E+04  0.7818608E-02  0.8611067E-01
         -2   -1    0    0    0  501 -0.00000000000E+00  0.00000000000E+00  0.51503529284E+03  0.51503529284E+03  0.00000000000E+00 0.  1.
          2   -1    0    0  501    0  0.00000000000E+00 -0.00000000000E+00 -0.19232467920E+04  0.19232467920E+04  0.00000000000E+00 0. -1.
         23    2    1    2    0    0  0.22108812377E+03 -0.42399234005E+03 -0.17719610097E+04  0.18374799799E+04  0.88529056105E+02 0.  0.
         11    1    3    3    0    0  0.13818455551E+03 -0.23483443400E+03 -0.11614214376E+04  0.11929551284E+04  0.00000000000E+00 0. -1.
        -11    1    3    3    0    0  0.82903568252E+02 -0.18915790605E+03 -0.61053957211E+03  0.64452485147E+03  0.00000000000E+00 0.  1.
         22    1    1    2    0    0 -0.22108812377E+03  0.42399234005E+03  0.36374951053E+03  0.60080210494E+03  0.00000000000E+00 0.  1.
<mgrwt>
<rscale>  0 0.19905175E+04</rscale>
<asrwt>0</asrwt>
<pdfrwt beam="1">  1        2 0.29588412E+00 0.19905175E+04</pdfrwt>
<pdfrwt beam="2">  1       -2 0.79236199E-01 0.19905175E+04</pdfrwt>
<totfact> 0.96791880E+00</totfact>
</mgrwt>
</event>
<event>
 6    1  0.9562506E-007  0.2361534E+04  0.7818608E-02  0.8454047E-01
         -2   -1    0    0    0  501 -0.00000000000E+00  0.00000000000E+00  0.11364721479E+04  0.11364721479E+04  0.00000000000E+00 0.  1.
          2   -1    0    0  501    0  0.00000000000E+00 -0.00000000000E+00 -0.12267886203E+04  0.12267886203E+04  0.00000000000E+00 0. -1.
         23    2    1    2    0    0  0.72251568266E+03 -0.16990099039E+03  0.87143346115E+03  0.11484117269E+04  0.92509237771E+02 0.  0.
         11    1    3    3    0    0  0.52985612987E+03 -0.91937960013E+02  0.58643793469E+03  0.79568181963E+03  0.00000000000E+00 0. -1.
        -11    1    3    3    0    0  0.19265955279E+03 -0.77963030375E+02  0.28499552646E+03  0.35272990728E+03  0.00000000000E+00 0.  1.
         22    1    1    2    0    0 -0.72251568266E+03  0.16990099039E+03 -0.96174993360E+03  0.12148490412E+04  0.00000000000E+00 0. -1.
<mgrwt>
<rscale>  0 0.23615343E+04</rscale>
<asrwt>0</asrwt>
<pdfrwt beam="1">  1        2 0.18873671E+00 0.23615343E+04</pdfrwt>
<pdfrwt beam="2">  1       -2 0.17484187E+00 0.23615343E+04</pdfrwt>
<totfact> 0.32441648E+00</totfact>
</mgrwt>
</event>
<event>
 6    1  0.9562506E-007  0.2793886E+04  0.7818608E-02  0.8305169E-01
          2   -1    0    0  501    0  0.00000000000E+00  0.00000000000E+00  0.15238815061E+04  0.15238815061E+04  0.00000000000E+00 0. -1.
         -2   -1    0    0    0  501 -0.00000000000E+00 -0.00000000000E+00 -0.12805781315E+04  0.12805781315E+04  0.00000000000E+00 0.  1.
         23    2    1    2    0    0  0.80334070151E+03  0.10517849220E+04 -0.32229207201E+03  0.13651868997E+04  0.90858606805E+02 0.  0.
         11    1    3    3    0    0  0.35943248027E+03  0.39784489176E+03 -0.12393470625E+03  0.55030180554E+03  0.00000000000E+00 0. -1.
        -11    1    3    3    0    0  0.44390822125E+03  0.65394003025E+03 -0.19835736577E+03  0.81488509412E+03  0.00000000000E+00 0.  1.
         22    1    1    2    0    0 -0.80334070151E+03 -0.10517849220E+04  0.56559544666E+03  0.14392727379E+04  0.00000000000E+00 0. -1.
<mgrwt>
<rscale>  0 0.27938857E+04</rscale>
<asrwt>0</asrwt>
<pdfrwt beam="1">  1        2 0.23444331E+00 0.27938857E+04</pdfrwt>
<pdfrwt beam="2">  1       -2 0.19701202E+00 0.27938857E+04</pdfrwt>
<totfact> 0.14911904E+00</totfact>
</mgrwt>
</event>
<event>
 6    1  0.9562506E-007  0.4443836E+03  0.7818608E-02  0.1029410E+00
         -2   -1    0    0    0  501 -0.00000000000E+00  0.00000000000E+00  0.19602398389E+03  0.19602398389E+03  0.00000000000E+00 0.  1.
          2   -1    0    0  501    0  0.00000000000E+00 -0.00000000000E+00 -0.25185283670E+03  0.25185283670E+03  0.00000000000E+00 0. -1.
         23    2    1    2    0    0 -0.11953763196E+03  0.13461780233E+03  0.85494658219E+02  0.21900232895E+03  0.90782626882E+02 0.  0.
         13    1    3    3    0    0 -0.10113848325E+02  0.22235830937E+01  0.39999673782E+02  0.41318375481E+02  0.00000000000E+00 0.  1.
        -13    1    3    3    0    0 -0.10942378363E+03  0.13239421924E+03  0.45494984437E+02  0.17768395347E+03  0.00000000000E+00 0. -1.
         22    1    1    2    0    0  0.11953763196E+03 -0.13461780233E+03 -0.14132351103E+03  0.22887449165E+03  0.00000000000E+00 0. -1.
<mgrwt>
<rscale>  0 0.44438360E+03</rscale>
<asrwt>0</asrwt>
<pdfrwt beam="1">  1        2 0.38746590E-01 0.44438360E+03</pdfrwt>
<pdfrwt beam="2">  1       -2 0.30157536E-01 0.44438360E+03</pdfrwt>
<totfact> 0.13497877E+03</totfact>
</mgrwt>
</event>
<event>
 6    1  0.9562506E-007  0.2045725E+04  0.7818608E-02  0.8585536E-01
          2   -1    0    0  501    0  0.00000000000E+00  0.00000000000E+00  0.98088964546E+03  0.98088964546E+03  0.00000000000E+00 0. -1.
         -2   -1    0    0    0  501 -0.00000000000E+00 -0.00000000000E+00 -0.10666316431E+04  0.10666316431E+04  0.00000000000E+00 0.  1.
         23    2    1    2    0    0  0.19194747867E+03  0.89365312296E+03 -0.49834446283E+03  0.10446750725E+04  0.86827787358E+02 0.  0.
         11    1    3    3    0    0  0.10551288126E+03  0.42044393608E+03 -0.28265628959E+03  0.51749458890E+03  0.00000000000E+00 0.  1.
        -11    1    3    3    0    0  0.86434597415E+02  0.47320918688E+03 -0.21568817325E+03  0.52718048357E+03  0.00000000000E+00 0. -1.
         22    1    1    2    0    0 -0.19194747867E+03 -0.89365312296E+03  0.41260246523E+03  0.10028462161E+04  0.00000000000E+00 0. -1.
<mgrwt>
<rscale>  0 0.20457252E+04</rscale>
<asrwt>0</asrwt>
<pdfrwt beam="1">  1        2 0.15090610E+00 0.20457252E+04</pdfrwt>
<pdfrwt beam="2">  1       -2 0.16409717E+00 0.20457252E+04</pdfrwt>
<totfact> 0.56370818E+00</totfact>
</mgrwt>
</event>
<event>
 6    1  0.9562506E-007  0.1541323E+04  0.7818608E-02  0.8857429E-01
          1   -1    0    0  501    0  0.00000000000E+00  0.00000000000E+00  0.14523721095E+04  0.14523721095E+04  0.00000000000E+00 0. -1.
         -1   -1    0    0    0  501 -0.00000000000E+00 -0.00000000000E+00 -0.40893022710E+03  0.40893022710E+03  0.00000000000E+00 0.  1.
         23    2    1    2    0    0  0.37484499405E+03 -0.57895937853E+03  0.93035280998E+03  0.11623804026E+04  0.99343433551E+02 0.  0.
         13    1    3    3    0    0  0.25273079031E+03 -0.40457051082E+03  0.71532810132E+03  0.85979325604E+03  0.00000000000E+00 0.  1.
        -13    1    3    3    0    0  0.12211420374E+03 -0.17438886770E+03  0.21502470865E+03  0.30258714656E+03  0.00000000000E+00 0. -1.
         22    1    1    2    0    0 -0.37484499405E+03  0.57895937853E+03  0.11308907245E+03  0.69892193402E+03  0.00000000000E+00 0. -1.
<mgrwt>
<rscale>  0 0.15413226E+04</rscale>
<asrwt>0</asrwt>
<pdfrwt beam="1">  1        1 0.22344186E+00 0.15413226E+04</pdfrwt>
<pdfrwt beam="2">  1       -1 0.62912343E-01 0.15413226E+04</pdfrwt>
<totfact> 0.17443109E+01</totfact>
</mgrwt>
</event>
<event>
 6    1  0.9562506E-007  0.1189222E+04  0.7818608E-02  0.9122344E-01
          1   -1    0    0  501    0  0.00000000000E+00  0.00000000000E+00  0.39421251835E+04  0.39421251835E+04  0.00000000000E+00 0. -1.
         -1   -1    0    0    0  501 -0.00000000000E+00 -0.00000000000E+00 -0.89688164248E+02  0.89688164248E+02  0.00000000000E+00 0.  1.
         23    2    1    2    0    0 -0.37777091283E+03 -0.31168530642E+03  0.30625626002E+04  0.31024263504E+04  0.76817883263E+02 0.  0.
         13    1    3    3    0    0 -0.21765262155E+03 -0.13000428920E+03  0.15882923691E+04  0.16083987157E+04  0.00000000000E+00 0.  1.
        -13    1    3    3    0    0 -0.16011829128E+03 -0.18168101723E+03  0.14742702310E+04  0.14940276347E+04  0.00000000000E+00 0. -1.
         22    1    1    2    0    0  0.37777091283E+03  0.31168530642E+03  0.78987441909E+03  0.92938699730E+03  0.00000000000E+00 0.  1.
<mgrwt>
<rscale>  0 0.11892215E+04</rscale>
<asrwt>0</asrwt>
<pdfrwt beam="1">  1        1 0.60648066E+00 0.11892215E+04</pdfrwt>
<pdfrwt beam="2">  1       -1 0.13798182E-01 0.11892215E+04</pdfrwt>
<totfact> 0.41620114E+00</totfact>
</mgrwt>
</event>
<event>
 6    1  0.9562506E-007  0.2410564E+03  0.7818608E-02  0.1119091E+00
          2   -1    0    0  501    0  0.00000000000E+00  0.00000000000E+00  0.94573170069E+03  0.94573170069E+03  0.00000000000E+00 0. -1.
         -2   -1    0    0    0  501 -0.00000000000E+00 -0.00000000000E+00 -0.15360641374E+02  0.15360641374E+02  0.00000000000E+00 0.  1.
         23    2    1    2    0    0 -0.88806353009E+02 -0.18035610233E+01  0.74666216987E+03  0.75703652316E+03  0.87807063016E+02 0.  0.
         13    1    3    3    0    0 -0.38017669675E+01 -0.31070393570E+02  0.12264335503E+03  0.12657493955E+03  0.00000000000E+00 0. -1.
        -13    1    3    3    0    0 -0.85004586042E+02  0.29266832546E+02  0.62401881484E+03  0.63046158361E+03  0.00000000000E+00 0.  1.
         22    1    1    2    0    0  0.88806353009E+02  0.18035610233E+01  0.18370888944E+03  0.20405581890E+03  0.00000000000E+00 0.  1.
<mgrwt>
<rscale>  0 0.24105639E+03</rscale>
<asrwt>0</asrwt>
<pdfrwt beam="1">  1        2 0.14549714E+00 0.24105639E+03</pdfrwt>
<pdfrwt beam="2">  1       -2 0.23631763E-02 0.24105639E+03</pdfrwt>
<totfact> 0.16984247E+04</totfact>
</mgrwt>
</event>
<event>
 6    1  0.9562506E-007  0.1880545E+04  0.7818608E-02  0.8664601E-01
         -2   -1    0    0    0  501 -0.00000000000E+00  0.00000000000E+00  0.17386937153E+04  0.17386937153E+04  0.00000000000E+00 0.  1.
          2   -1    0    0  501    0  0.00000000000E+00 -0.00000000000E+00 -0.50849231278E+03  0.50849231278E+03  0.00000000000E+00 0. -1.
         23    2    1    2    0    0  0.20901321040E+02 -0.72708710730E+03  0.13243535039E+04  0.15137304091E+04  0.91515143495E+02 0.  0.
         11    1    3    3    0    0  0.37109271801E+02 -0.47164063208E+03  0.78120912393E+03  0.91329605233E+03  0.00000000000E+00 0. -1.
        -11    1    3    3    0    0 -0.16207950761E+02 -0.25544647522E+03  0.54314437994E+03  0.60043435681E+03  0.00000000000E+00 0.  1.
         22    1    1    2    0    0 -0.20901321040E+02  0.72708710730E+03 -0.94152101333E+02  0.73345561898E+03  0.00000000000E+00 0. -1.
<mgrwt>
<rscale>  0 0.18805450E+04</rscale>
<asrwt>0</asrwt>
<pdfrwt beam="1">  1        2 0.78229588E-01 0.18805450E+04</pdfrwt>
<pdfrwt beam="2">  1       -2 0.26749134E+00 0.18805450E+04</pdfrwt>
<totfact> 0.28446580E+00</totfact>
</mgrwt>
</event>
<event>
 6    1  0.9562506E-007  0.1467491E+04  0.7818608E-02  0.8906363E-01
          1   -1    0    0  501    0  0.00000000000E+00  0.00000000000E+00  0.24022105740E+04  0.24022105740E+04  0.00000000000E+00 0. -1.
         -1   -1    0    0    0  501 -0.00000000000E+00 -0.00000000000E+00 -0.22411959787E+03  0.22411959787E+03  0.00000000000E+00 0.  1.
         23    2    1    2    0    0 -0.48320565049E+03 -0.84899995454E+02  0.12356985176E+03  0.51404402640E+03  0.90972759191E+02 0.  0.
         11    1    3    3    0    0 -0.18913496755E+03 -0.76207536381E+02  0.65465456156E+02  0.21416197259E+03  0.00000000000E+00 0. -1.
        -11    1    3    3    0    0 -0.29407068294E+03 -0.86924590727E+01  0.58104395606E+02  0.29988205381E+03  0.00000000000E+00 0.  1.
         22    1    1    2    0    0  0.48320565049E+03  0.84899995454E+02  0.20545211243E+04  0.21122861454E+04  0.00000000000E+00 0. -1.
<mgrwt>
<rscale>  0 0.14674910E+04</rscale>
<asrwt>0</asrwt>
<pdfrwt beam="1">  1        1 0.36957084E+00 0.14674910E+04</pdfrwt>
<pdfrwt beam="2">  1       -1 0.34479940E-01 0.14674910E+04</pdfrwt>
<totfact> 0.12267888E+01</totfact>
</mgrwt>
</event>
<event>
 6    1  0.9562506E-007  0.2461595E+04  0.7818608E-02  0.8416796E-01
         -2   -1    0    0    0  501 -0.00000000000E+00  0.00000000000E+00  0.12616975591E+04  0.12616975591E+04  0.00000000000E+00 0.  1.
          2   -1    0    0  501    0  0.00000000000E+00 -0.00000000000E+00 -0.12006546902E+04  0.12006546902E+04  0.00000000000E+00 0. -1.
         23    2    1    2    0    0 -0.52812127864E+03 -0.70497963172E+03 -0.82691617746E+03  0.12116006215E+04  0.90979863059E+02 0.  0.
         11    1    3    3    0    0 -0.35260839789E+03 -0.39672730635E+03 -0.48950800383E+03  0.72204108171E+03  0.00000000000E+00 0. -1.
        -11    1    3    3    0    0 -0.17551288075E+03 -0.30825232537E+03 -0.33740817363E+03  0.48955953983E+03  0.00000000000E+00 0.  1.
         22    1    1    2    0    0  0.52812127864E+03  0.70497963172E+03  0.88795904637E+03  0.12507516277E+04  0.00000000000E+00 0.  1.
<mgrwt>
<rscale>  0 0.24615955E+04</rscale>
<asrwt>0</asrwt>
<pdfrwt beam="1">  1        2 0.18471611E+00 0.24615955E+04</pdfrwt>
<pdfrwt beam="2">  1       -2 0.19410732E+00 0.24615955E+04</pdfrwt>
<totfact> 0.24633417E+00</totfact>
</mgrwt>
</event>
<event>
 6    1  0.9562506E-007  0.3137875E+04  0.7818608E-02  0.8205420E-01
         -1   -1    0    0    0  501 -0.00000000000E+00  0.00000000000E+00  0.23733163397E+04  0.23733163397E+04  0.00000000000E+00 0.  1.
          1   -1    0    0  501    0  0.00000000000E+00 -0.00000000000E+00 -0.10371836121E+04  0.10371836121E+04  0.00000000000E+00 0. -1.
         23    2    1    2    0    0 -0.34118947077E+03  0.36608292903E+03 -0.94605578778E+03  0.10740900165E+04  0.90668870829E+02 0.  0.
         11    1    3    3    0    0 -0.27353636478E+03  0.29067751067E+03 -0.66812219371E+03  0.77826912041E+03  0.00000000000E+00 0. -1.
        -11    1    3    3    0    0 -0.67653105991E+02  0.75405418368E+02 -0.27793359407E+03  0.29582089612E+03  0.00000000000E+00 0.  1.
         22    1    1    2    0    0  0.34118947077E+03 -0.36608292903E+03  0.22821885154E+04  0.23364099353E+04  0.00000000000E+00 0.  1.
<mgrwt>
<rscale>  0 0.31378750E+04</rscale>
<asrwt>0</asrwt>
<pdfrwt beam="1">  1        1 0.15956671E+00 0.31378750E+04</pdfrwt>
<pdfrwt beam="2">  1       -1 0.36512559E+00 0.31378750E+04</pdfrwt>
<totfact> 0.14662163E-01</totfact>
</mgrwt>
</event>
<event>
 6    1  0.9562506E-007  0.4052559E+04  0.7818608E-02  0.7994027E-01
          2   -1    0    0  501    0  0.00000000000E+00  0.00000000000E+00  0.23963655874E+04  0.23963655874E+04  0.00000000000E+00 0. -1.
         -2   -1    0    0    0  501 -0.00000000000E+00 -0.00000000000E+00 -0.17133484837E+04  0.17133484837E+04  0.00000000000E+00 0.  1.
         23    2    1    2    0    0 -0.98337217702E+03 -0.16987798510E+04  0.84810945269E+03  0.21399096888E+04  0.83964346450E+02 0.  0.
         13    1    3    3    0    0 -0.18704104194E+03 -0.26578350353E+03  0.15362086340E+03  0.35947822158E+03  0.00000000000E+00 0.  1.
        -13    1    3    3    0    0 -0.79633113508E+03 -0.14329963475E+04  0.69448858929E+03  0.17804314672E+04  0.00000000000E+00 0. -1.
         22    1    1    2    0    0  0.98337217702E+03  0.16987798510E+04 -0.16509234902E+03  0.19698043823E+04  0.00000000000E+00 0. -1.
<mgrwt>
<rscale>  0 0.40525594E+04</rscale>
<asrwt>0</asrwt>
<pdfrwt beam="1">  1        2 0.36867163E+00 0.40525594E+04</pdfrwt>
<pdfrwt beam="2">  1       -2 0.26359207E+00 0.40525594E+04</pdfrwt>
<totfact> 0.16644705E-01</totfact>
</mgrwt>
</event>
<event>
 6    1  0.9562506E-007  0.1608567E+04  0.7818608E-02  0.8815302E-01
          2   -1    0    0  501    0  0.00000000000E+00  0.00000000000E+00  0.92674586688E+03  0.92674586688E+03  0.00000000000E+00 0. -1.
         -2   -1    0    0    0  501 -0.00000000000E+00 -0.00000000000E+00 -0.69800342084E+03  0.69800342084E+03  0.00000000000E+00 0.  1.
         23    2    1    2    0    0  0.79140404383E+03  0.86486085518E+01  0.24396739283E+03  0.83315156285E+03  0.90698836203E+02 0.  0.
         13    1    3    3    0    0  0.29551678975E+03 -0.23128998456E+02  0.12810639383E+03  0.32291852182E+03  0.00000000000E+00 0.  1.
        -13    1    3    3    0    0  0.49588725408E+03  0.31777607008E+02  0.11586099900E+03  0.51023304103E+03  0.00000000000E+00 0. -1.
         22    1    1    2    0    0 -0.79140404383E+03 -0.86486085518E+01 -0.15224946785E+02  0.79159772488E+03  0.00000000000E+00 0.  1.
<mgrwt>
<rscale>  0 0.16085668E+04</rscale>
<asrwt>0</asrwt>
<pdfrwt beam="1">  1        2 0.14257629E+00 0.16085668E+04</pdfrwt>
<pdfrwt beam="2">  1       -2 0.10738514E+00 0.16085668E+04</pdfrwt>
<totfact> 0.18776292E+01</totfact>
</mgrwt>
</event>
<event>
 6    1  0.9562506E-007  0.2237926E+04  0.7818608E-02  0.8502806E-01
         -2   -1    0    0    0  501 -0.00000000000E+00  0.00000000000E+00  0.61113394317E+03  0.61113394317E+03  0.00000000000E+00 0.  1.
          2   -1    0    0  501    0  0.00000000000E+00 -0.00000000000E+00 -0.20487788215E+04  0.20487788215E+04  0.00000000000E+00 0. -1.
         23    2    1    2    0    0 -0.66850159698E+03  0.88412655136E+03 -0.55504029628E+03  0.12430270981E+04  0.92046141091E+02 0.  0.
         11    1    3    3    0    0 -0.47465527932E+03  0.58250041727E+03 -0.41254802880E+03  0.85720490337E+03  0.00000000000E+00 0.  1.
        -11    1    3    3    0    0 -0.19384631765E+03  0.30162613410E+03 -0.14249226749E+03  0.38582219471E+03  0.00000000000E+00 0. -1.
         22    1    1    2    0    0  0.66850159698E+03 -0.88412655136E+03 -0.88260458208E+03  0.14168856666E+04  0.00000000000E+00 0.  1.
<mgrwt>
<rscale>  0 0.22379261E+04</rscale>
<asrwt>0</asrwt>
<pdfrwt beam="1">  1        2 0.31519674E+00 0.22379261E+04</pdfrwt>
<pdfrwt beam="2">  1       -2 0.94020607E-01 0.22379261E+04</pdfrwt>
<totfact> 0.54599260E+00</totfact>
</mgrwt>
</event>
<event>
 6    1  0.9562506E-007  0.2237897E+04  0.7818608E-02  0.8502818E-01
         -1   -1    0    0    0  501 -0.00000000000E+00  0.00000000000E+00  0.46663701250E+03  0.46663701250E+03  0.00000000000E+00 0.  1.
          1   -1    0    0  501    0  0.00000000000E+00 -0.00000000000E+00 -0.26831260860E+04  0.26831260860E+04  0.00000000000E+00 0. -1.
         23    2    1    2    0    0  0.65975126516E+03 -0.73434149836E+03 -0.37427561455E+03  0.10597201333E+04  0.91626181768E+02 0.  0.
         13    1    3    3    0    0  0.48454099588E+03 -0.48572871147E+03 -0.28310525762E+03  0.74220007055E+03  0.00000000000E+00 0.  1.
        -13    1    3    3    0    0  0.17521026928E+03 -0.24861278689E+03 -0.91170356938E+02  0.31752006275E+03  0.00000000000E+00 0. -1.
         22    1    1    2    0    0 -0.65975126516E+03  0.73434149836E+03 -0.18422134590E+04  0.20900429652E+04  0.00000000000E+00 0. -1.
<mgrwt>
<rscale>  0 0.22378972E+04</rscale>
<asrwt>0</asrwt>
<pdfrwt beam="1">  1        1 0.41278863E+00 0.22378972E+04</pdfrwt>
<pdfrwt beam="2">  1       -1 0.71790310E-01 0.22378972E+04</pdfrwt>
<totfact> 0.17954245E+00</totfact>
</mgrwt>
</event>
<event>
 6    1  0.9562506E-007  0.1712629E+04  0.7818608E-02  0.8754194E-01
         -2   -1    0    0    0  501 -0.00000000000E+00  0.00000000000E+00  0.17767035415E+04  0.17767035415E+04  0.00000000000E+00 0.  1.
          2   -1    0    0  501    0  0.00000000000E+00 -0.00000000000E+00 -0.41271637606E+03  0.41271637606E+03  0.00000000000E+00 0. -1.
         23    2    1    2    0    0  0.20756740927E+03 -0.73710566729E+03  0.11669427382E+04  0.13987015730E+04  0.90563469186E+02 0.  0.
         13    1    3    3    0    0  0.77387689742E+02 -0.43636505019E+03  0.68767479442E+03  0.81810753231E+03  0.00000000000E+00 0.  1.
        -13    1    3    3    0    0  0.13017971953E+03 -0.30074061710E+03  0.47926794375E+03  0.58059404067E+03  0.00000000000E+00 0. -1.
         22    1    1    2    0    0 -0.20756740927E+03  0.73710566729E+03  0.19704442728E+03  0.79071834458E+03  0.00000000000E+00 0. -1.
<mgrwt>
<rscale>  0 0.17126291E+04</rscale>
<asrwt>0</asrwt>
<pdfrwt beam="1">  1        2 0.63494828E-01 0.17126291E+04</pdfrwt>
<pdfrwt beam="2">  1       -2 0.27333900E+00 0.17126291E+04</pdfrwt>
<totfact> 0.33771729E+00</totfact>
</mgrwt>
</event>
<event>
 6    1  0.9562506E-007  0.3670001E+04  0.7818608E-02  0.8074643E-01
         -2   -1    0    0    0  501 -0.00000000000E+00  0.00000000000E+00  0.11817662736E+04  0.11817662736E+04  0.00000000000E+00 0.  1.
          2   -1    0    0  501    0  0.00000000000E+00 -0.00000000000E+00 -0.28493171060E+04  0.28493171060E+04  0.00000000000E+00 0. -1.
         23    2    1    2    0    0 -0.95535183253E+03 -0.31896350725E+03 -0.25175768601E+04  0.27131383540E+04  0.92150087283E+02 0.  0.
         11    1    3    3    0    0 -0.16460890173E+03 -0.29553489596E+02 -0.48603048783E+03  0.51399915795E+03  0.00000000000E+00 0. -1.
        -11    1    3    3    0    0 -0.79074293080E+03 -0.28941001765E+03 -0.20315463722E+04  0.21991391960E+04  0.00000000000E+00 0.  1.
         22    1    1    2    0    0  0.95535183253E+03  0.31896350725E+03  0.85002602770E+03  0.13179450257E+04  0.00000000000E+00 0.  1.
<mgrwt>
<rscale>  0 0.36700010E+04</rscale>
<asrwt>0</asrwt>
<pdfrwt beam="1">  1        2 0.43835648E+00 0.36700010E+04</pdfrwt>
<pdfrwt beam="2">  1       -2 0.18181020E+00 0.36700010E+04</pdfrwt>
<totfact> 0.30800385E-01</totfact>
</mgrwt>
</event>
<event>
 6    1  0.9562506E-007  0.1776300E+04  0.7818608E-02  0.8719005E-01
          1   -1    0    0  501    0  0.00000000000E+00  0.00000000000E+00  0.42368486350E+03  0.42368486350E+03  0.00000000000E+00 0. -1.
         -1   -1    0    0    0  501 -0.00000000000E+00 -0.00000000000E+00 -0.18617863301E+04  0.18617863301E+04  0.00000000000E+00 0.  1.
         23    2    1    2    0    0  0.63451642898E+03 -0.50619734446E+03 -0.26459408321E+03  0.85859823882E+03  0.91291054620E+02 0.  0.
         11    1    3    3    0    0  0.19813796598E+03 -0.12563922521E+03 -0.42370469930E+02  0.23840957447E+03  0.00000000000E+00 0.  1.
        -11    1    3    3    0    0  0.43637846300E+03 -0.38055811925E+03 -0.22222361328E+03  0.62018866436E+03  0.00000000000E+00 0. -1.
         22    1    1    2    0    0 -0.63451642898E+03  0.50619734446E+03 -0.11735073834E+04  0.14268729547E+04  0.00000000000E+00 0.  1.
<mgrwt>
<rscale>  0 0.17763003E+04</rscale>
<asrwt>0</asrwt>
<pdfrwt beam="1">  1        1 0.65182287E-01 0.17763003E+04</pdfrwt>
<pdfrwt beam="2">  1       -1 0.28642866E+00 0.17763003E+04</pdfrwt>
<totfact> 0.21256871E+00</totfact>
</mgrwt>
</event>
<event>
 6    1  0.9562506E-007  0.2518155E+04  0.7818608E-02  0.8396546E-01
          1   -1    0    0  501    0  0.00000000000E+00  0.00000000000E+00  0.15074776226E+04  0.15074776226E+04  0.00000000000E+00 0. -1.
         -1   -1    0    0    0  501 -0.00000000000E+00 -0.00000000000E+00 -0.10516085805E+04  0.10516085805E+04  0.00000000000E+00 0.  1.
         23    2    1    2    0    0 -0.10494589148E+04  0.67405664622E+03  0.66290150494E+02  0.12523773261E+04  0.91313782021E+02 0.  0.
         13    1    3    3    0    0 -0.24562707786E+03  0.20476815398E+03  0.12451405127E+02  0.32002764842E+03  0.00000000000E+00 0. -1.
        -13    1    3    3    0    0 -0.80383183696E+03  0.46928849224E+03  0.53838745366E+02  0.93234967773E+03  0.00000000000E+00 0.  1.
         22    1    1    2    0    0  0.10494589148E+04 -0.67405664622E+03  0.38957889157E+03  0.13067088769E+04  0.00000000000E+00 0. -1.
<mgrwt>
<rscale>  0 0.25181552E+04</rscale>
<asrwt>0</asrwt>
<pdfrwt beam="1">  1        1 0.23191963E+00 0.25181552E+04</pdfrwt>
<pdfrwt beam="2">  1       -1 0.16178593E+00 0.25181552E+04</pdfrwt>
<totfact> 0.16243623E+00</totfact>
</mgrwt>
</event>
<event>
 6    1  0.9562506E-007  0.7361854E+04  0.7818608E-02  0.7541226E-01
         -1   -1    0    0    0  501 -0.00000000000E+00  0.00000000000E+00  0.46581530710E+04  0.46581530710E+04  0.00000000000E+00 0.  1.
          1   -1    0    0  501    0  0.00000000000E+00 -0.00000000000E+00 -0.29087114244E+04  0.29087114244E+04  0.00000000000E+00 0. -1.
         23    2    1    2    0    0 -0.33511185212E+04  0.97256172719E+03 -0.32796583894E+03  0.35058925037E+04  0.88594582865E+02 0.  0.
         11    1    3    3    0    0 -0.10117437422E+04  0.25874048506E+03 -0.12111833661E+03  0.10513047559E+04  0.00000000000E+00 0. -1.
        -11    1    3    3    0    0 -0.23393747790E+04  0.71382124213E+03 -0.20684750234E+03  0.24545877478E+04  0.00000000000E+00 0.  1.
         22    1    1    2    0    0  0.33511185212E+04 -0.97256172719E+03  0.20774074856E+04  0.40609719917E+04  0.00000000000E+00 0.  1.
<mgrwt>
<rscale>  0 0.73618539E+04</rscale>
<asrwt>0</asrwt>
<pdfrwt beam="1">  1        1 0.44749406E+00 0.73618539E+04</pdfrwt>
<pdfrwt beam="2">  1       -1 0.71663894E+00 0.73618539E+04</pdfrwt>
<totfact> 0.75198002E-05</totfact>
</mgrwt>
</event>
<event>
 6    1  0.9562506E-007  0.2032400E+04  0.7818608E-02  0.8591621E-01
         -2   -1    0    0    0  501 -0.00000000000E+00  0.00000000000E+00  0.34795322310E+03  0.34795322310E+03  0.00000000000E+00 0.  1.
          2   -1    0    0  501    0  0.00000000000E+00 -0.00000000000E+00 -0.29678195759E+04  0.29678195759E+04  0.00000000000E+00 0. -1.
         23    2    1    2    0    0 -0.32074168648E+03 -0.93830199289E+03 -0.16593516588E+04  0.19352387224E+04  0.91733994185E+02 0.  0.
         13    1    3    3    0    0 -0.26321921567E+03 -0.82120735144E+03 -0.14886684219E+04  0.17204067949E+04  0.00000000000E+00 0.  1.
        -13    1    3    3    0    0 -0.57522470808E+02 -0.11709464145E+03 -0.17068323691E+03  0.21483192749E+03  0.00000000000E+00 0. -1.
         22    1    1    2    0    0  0.32074168648E+03  0.93830199289E+03 -0.96051469398E+03  0.13805340766E+04  0.00000000000E+00 0.  1.
<mgrwt>
<rscale>  0 0.20323999E+04</rscale>
<asrwt>0</asrwt>
<pdfrwt beam="1">  1        2 0.45658763E+00 0.20323999E+04</pdfrwt>
<pdfrwt beam="2">  1       -2 0.53531264E-01 0.20323999E+04</pdfrwt>
<totfact> 0.55690195E+00</totfact>
</mgrwt>
</event>
<event>
 6    1  0.9562506E-007  0.2624719E+04  0.7818608E-02  0.8359853E-01
          2   -1    0    0  501    0  0.00000000000E+00  0.00000000000E+00  0.95549371024E+03  0.95549371024E+03  0.00000000000E+00 0. -1.
         -2   -1    0    0    0  501 -0.00000000000E+00 -0.00000000000E+00 -0.18025107244E+04  0.18025107244E+04  0.00000000000E+00 0.  1.
         23    2    1    2    0    0 -0.78997349522E+03 -0.52680869408E+03 -0.13735330639E+04  0.16722767184E+04  0.91273336678E+02 0.  0.
         13    1    3    3    0    0 -0.45847129719E+03 -0.31196577867E+03 -0.87944248521E+03  0.10396815196E+04  0.00000000000E+00 0. -1.
        -13    1    3    3    0    0 -0.33150219803E+03 -0.21484291541E+03 -0.49409057868E+03  0.63259519880E+03  0.00000000000E+00 0.  1.
         22    1    1    2    0    0  0.78997349522E+03  0.52680869408E+03  0.52651604969E+03  0.10857277163E+04  0.00000000000E+00 0. -1.
<mgrwt>
<rscale>  0 0.26247192E+04</rscale>
<asrwt>0</asrwt>
<pdfrwt beam="1">  1        2 0.14699903E+00 0.26247192E+04</pdfrwt>
<pdfrwt beam="2">  1       -2 0.27730934E+00 0.26247192E+04</pdfrwt>
<totfact> 0.10394634E+00</totfact>
</mgrwt>
</event>
<event>
 6    1  0.9562506E-007  0.2340520E+04  0.7818608E-02  0.8462114E-01
         -1   -1    0    0    0  501 -0.00000000000E+00  0.00000000000E+00  0.71284794929E+03  0.71284794929E+03  0.00000000000E+00 0.  1.
          1   -1    0    0  501    0  0.00000000000E+00 -0.00000000000E+00 -0.19211792594E+04  0.19211792594E+04  0.00000000000E+00 0. -1.
         23    2    1    2    0    0  0.54856814770E+03 -0.58708780234E+03  0.34965210248E+03  0.88105504285E+03  0.91664035726E+02 0.  0.
         13    1    3    3    0    0  0.37522208909E+03 -0.41241993603E+03  0.28710825132E+03  0.62714668759E+03  0.00000000000E+00 0.  1.
        -13    1    3    3    0    0  0.17334605860E+03 -0.17466786631E+03  0.62543851154E+02  0.25390835526E+03  0.00000000000E+00 0. -1.
         22    1    1    2    0    0 -0.54856814770E+03  0.58708780234E+03 -0.15579834126E+04  0.17529721659E+04  0.00000000000E+00 0. -1.
<mgrwt>
<rscale>  0 0.23405202E+04</rscale>
<asrwt>0</asrwt>
<pdfrwt beam="1">  1        1 0.29556604E+00 0.23405202E+04</pdfrwt>
<pdfrwt beam="2">  1       -1 0.10966892E+00 0.23405202E+04</pdfrwt>
<totfact> 0.23332730E+00</totfact>
</mgrwt>
</event>
<event>
 6    1  0.9562506E-007  0.2410377E+04  0.7818608E-02  0.8435629E-01
          3   -1    0    0  501    0  0.00000000000E+00  0.00000000000E+00  0.61912010673E+03  0.61912010673E+03  0.00000000000E+00 0. -1.
         -3   -1    0    0    0  501 -0.00000000000E+00 -0.00000000000E+00 -0.23460388597E+04  0.23460388597E+04  0.00000000000E+00 0.  1.
         23    2    1    2    0    0  0.48163748124E+03 -0.20554876007E+03  0.46767612452E+03  0.70895161063E+03  0.98318221474E+02 0.  0.
         13    1    3    3    0    0  0.11564987292E+03 -0.22974562241E+02  0.15158526148E+03  0.19204378437E+03  0.00000000000E+00 0.  1.
        -13    1    3    3    0    0  0.36598760832E+03 -0.18257419783E+03  0.31609086303E+03  0.51690782626E+03  0.00000000000E+00 0. -1.
         22    1    1    2    0    0 -0.48163748124E+03  0.20554876007E+03 -0.21945948775E+04  0.22562073558E+04  0.00000000000E+00 0.  1.
<mgrwt>
<rscale>  0 0.24103774E+04</rscale>
<asrwt>0</asrwt>
<pdfrwt beam="1">  1        3 0.95249245E-01 0.24103774E+04</pdfrwt>
<pdfrwt beam="2">  1       -3 0.36092906E+00 0.24103774E+04</pdfrwt>
<totfact> 0.39945488E-02</totfact>
</mgrwt>
</event>
<event>
 6    1  0.9562506E-007  0.5108891E+04  0.7818608E-02  0.7811926E-01
         -2   -1    0    0    0  501 -0.00000000000E+00  0.00000000000E+00  0.14723861003E+04  0.14723861003E+04  0.00000000000E+00 0.  1.
          2   -1    0    0  501    0  0.00000000000E+00 -0.00000000000E+00 -0.44317129137E+04  0.44317129137E+04  0.00000000000E+00 0. -1.
         23    2    1    2    0    0  0.60792002905E+03 -0.16505127948E+04  0.65931018423E+03  0.18806312351E+04  0.91239663515E+02 0.  0.
         13    1    3    3    0    0  0.29188376135E+03 -0.84321696390E+03  0.37935703761E+03  0.96959926791E+03  0.00000000000E+00 0. -1.
        -13    1    3    3    0    0  0.31603626771E+03 -0.80729583085E+03  0.27995314662E+03  0.91103196723E+03  0.00000000000E+00 0.  1.
         22    1    1    2    0    0 -0.60792002905E+03  0.16505127948E+04 -0.36186369976E+04  0.40234677789E+04  0.00000000000E+00 0. -1.
<mgrwt>
<rscale>  0 0.51088913E+04</rscale>
<asrwt>0</asrwt>
<pdfrwt beam="1">  1        2 0.68180198E+00 0.51088913E+04</pdfrwt>
<pdfrwt beam="2">  1       -2 0.22652094E+00 0.51088913E+04</pdfrwt>
<totfact> 0.92108460E-03</totfact>
</mgrwt>
</event>
<event>
 6    1  0.9562506E-007  0.9227591E+03  0.7818608E-02  0.9397570E-01
          1   -1    0    0  501    0  0.00000000000E+00  0.00000000000E+00  0.23676362506E+03  0.23676362506E+03  0.00000000000E+00 0. -1.
         -1   -1    0    0    0  501 -0.00000000000E+00 -0.00000000000E+00 -0.89908697061E+03  0.89908697061E+03  0.00000000000E+00 0.  1.
         23    2    1    2    0    0 -0.47370411723E+02 -0.16037610632E+03  0.18643565270E+03  0.27077470971E+03  0.10293803687E+03 0.  0.
         13    1    3    3    0    0 -0.25439090885E+02 -0.15922269777E+03  0.12054627672E+03  0.20132168205E+03  0.00000000000E+00 0.  1.
        -13    1    3    3    0    0 -0.21931320838E+02 -0.11534085524E+01  0.65889375972E+02  0.69453027658E+02  0.00000000000E+00 0. -1.
         22    1    1    2    0    0  0.47370411723E+02  0.16037610632E+03 -0.84875899824E+03  0.86507588597E+03  0.00000000000E+00 0.  1.
<mgrwt>
<rscale>  0 0.92275910E+03</rscale>
<asrwt>0</asrwt>
<pdfrwt beam="1">  1        1 0.36425174E-01 0.92275910E+03</pdfrwt>
<pdfrwt beam="2">  1       -1 0.13832107E+00 0.92275910E+03</pdfrwt>
<totfact> 0.52021388E+01</totfact>
</mgrwt>
</event>
<event>
 6    1  0.9562506E-007  0.3334338E+04  0.7818608E-02  0.8154213E-01
          2   -1    0    0  501    0  0.00000000000E+00  0.00000000000E+00  0.21094680147E+04  0.21094680147E+04  0.00000000000E+00 0. -1.
         -2   -1    0    0    0  501 -0.00000000000E+00 -0.00000000000E+00 -0.13176079163E+04  0.13176079163E+04  0.00000000000E+00 0.  1.
         23    2    1    2    0    0 -0.13624591582E+04 -0.10632647066E+03  0.13754724203E+04  0.19410733677E+04  0.90780856477E+02 0.  0.
         13    1    3    3    0    0 -0.15207274158E+03 -0.12730446178E+02  0.11530109379E+03  0.19126558818E+03  0.00000000000E+00 0.  1.
        -13    1    3    3    0    0 -0.12103864166E+04 -0.93596024484E+02  0.12601713265E+04  0.17498077795E+04  0.00000000000E+00 0. -1.
         22    1    1    2    0    0  0.13624591582E+04  0.10632647066E+03 -0.58361232189E+03  0.14860025633E+04  0.00000000000E+00 0.  1.
<mgrwt>
<rscale>  0 0.33343376E+04</rscale>
<asrwt>0</asrwt>
<pdfrwt beam="1">  1        2 0.32453354E+00 0.33343376E+04</pdfrwt>
<pdfrwt beam="2">  1       -2 0.20270891E+00 0.33343376E+04</pdfrwt>
<totfact> 0.61727669E-01</totfact>
</mgrwt>
</event>
<event>
 6    1  0.9562506E-007  0.4412522E+04  0.7818608E-02  0.7926133E-01
         -2   -1    0    0    0  501 -0.00000000000E+00  0.00000000000E+00  0.26505359800E+04  0.26505359800E+04  0.00000000000E+00 0.  1.
          2   -1    0    0  501    0  0.00000000000E+00 -0.00000000000E+00 -0.18364538040E+04  0.18364538040E+04  0.00000000000E+00 0. -1.
         23    2    1    2    0    0 -0.16266581361E+04  0.61276968029E+03  0.17872801913E+04  0.24948507954E+04  0.91687710564E+02 0.  0.
         11    1    3    3    0    0 -0.10432087389E+04  0.37949634323E+03  0.12011374385E+04  0.16355528404E+04  0.00000000000E+00 0.  1.
        -11    1    3    3    0    0 -0.58344939716E+03  0.23327333706E+03  0.58614275279E+03  0.85929795501E+03  0.00000000000E+00 0. -1.
         22    1    1    2    0    0  0.16266581361E+04 -0.61276968029E+03 -0.97319801539E+03  0.19921389886E+04  0.00000000000E+00 0. -1.
<mgrwt>
<rscale>  0 0.44125217E+04</rscale>
<asrwt>0</asrwt>
<pdfrwt beam="1">  1        2 0.28253135E+00 0.44125217E+04</pdfrwt>
<pdfrwt beam="2">  1       -2 0.40777477E+00 0.44125217E+04</pdfrwt>
<totfact> 0.41484823E-02</totfact>
</mgrwt>
</event>
<event>
 6    1  0.9562506E-007  0.1481315E+04  0.7818608E-02  0.8896974E-01
          2   -1    0    0  501    0  0.00000000000E+00  0.00000000000E+00  0.19334910868E+04  0.19334910868E+04  0.00000000000E+00 0. -1.
         -2   -1    0    0    0  501 -0.00000000000E+00 -0.00000000000E+00 -0.28372194868E+03  0.28372194868E+03  0.00000000000E+00 0.  1.
         23    2    1    2    0    0 -0.67627950912E+03 -0.69941679107E+02  0.39869292822E+03  0.79333189722E+03  0.90408158926E+02 0.  0.
         13    1    3    3    0    0 -0.41864113182E+03 -0.83608678470E+02  0.22801260038E+03  0.48398404343E+03  0.00000000000E+00 0.  1.
        -13    1    3    3    0    0 -0.25763837730E+03  0.13666999363E+02  0.17068032785E+03  0.30934785379E+03  0.00000000000E+00 0. -1.
         22    1    1    2    0    0  0.67627950912E+03  0.69941679107E+02  0.12510762099E+04  0.14238811383E+04  0.00000000000E+00 0. -1.
<mgrwt>
<rscale>  0 0.14813154E+04</rscale>
<asrwt>0</asrwt>
<pdfrwt beam="1">  1        2 0.29746016E+00 0.14813154E+04</pdfrwt>
<pdfrwt beam="2">  1       -2 0.43649532E-01 0.14813154E+04</pdfrwt>
<totfact> 0.35041483E+01</totfact>
</mgrwt>
</event>
<event>
 6    1  0.9562506E-007  0.3642343E+04  0.7818608E-02  0.8080861E-01
          1   -1    0    0  501    0  0.00000000000E+00  0.00000000000E+00  0.43672960525E+04  0.43672960525E+04  0.00000000000E+00 0. -1.
         -1   -1    0    0    0  501 -0.00000000000E+00 -0.00000000000E+00 -0.75943239742E+03  0.75943239742E+03  0.00000000000E+00 0.  1.
         23    2    1    2    0    0  0.10563977551E+04  0.59552361314E+03  0.37152881069E+04  0.39092866223E+04  0.92366591917E+02 0.  0.
         13    1    3    3    0    0  0.73403739692E+03  0.37410626716E+03  0.26009821500E+04  0.27283464853E+04  0.00000000000E+00 0.  1.
        -13    1    3    3    0    0  0.32236035816E+03  0.22141734598E+03  0.11143059569E+04  0.11809401371E+04  0.00000000000E+00 0. -1.
         22    1    1    2    0    0 -0.10563977551E+04 -0.59552361314E+03 -0.10742445184E+03  0.12174418276E+04  0.00000000000E+00 0.  1.
<mgrwt>
<rscale>  0 0.36423433E+04</rscale>
<asrwt>0</asrwt>
<pdfrwt beam="1">  1        1 0.67189168E+00 0.36423433E+04</pdfrwt>
<pdfrwt beam="2">  1       -1 0.11683576E+00 0.36423433E+04</pdfrwt>
<totfact> 0.23224874E-02</totfact>
</mgrwt>
</event>
<event>
 6    1  0.9562506E-007  0.3275797E+04  0.7818608E-02  0.8169081E-01
          2   -1    0    0  501    0  0.00000000000E+00  0.00000000000E+00  0.18857497347E+04  0.18857497347E+04  0.00000000000E+00 0. -1.
         -2   -1    0    0    0  501 -0.00000000000E+00 -0.00000000000E+00 -0.14226236054E+04  0.14226236054E+04  0.00000000000E+00 0.  1.
         23    2    1    2    0    0  0.15128480153E+04  0.11918827154E+03 -0.38669520708E+03  0.15690886407E+04  0.97933742074E+02 0.  0.
         13    1    3    3    0    0  0.66061161209E+03  0.34633926555E+01 -0.16462073059E+03  0.68082279784E+03  0.00000000000E+00 0. -1.
        -13    1    3    3    0    0  0.85223640322E+03  0.11572487888E+03 -0.22207447649E+03  0.88826584291E+03  0.00000000000E+00 0.  1.
         22    1    1    2    0    0 -0.15128480153E+04 -0.11918827154E+03  0.84982133638E+03  0.17392846993E+04  0.00000000000E+00 0. -1.
<mgrwt>
<rscale>  0 0.32757974E+04</rscale>
<asrwt>0</asrwt>
<pdfrwt beam="1">  1        2 0.29011534E+00 0.32757974E+04</pdfrwt>
<pdfrwt beam="2">  1       -2 0.21886517E+00 0.32757974E+04</pdfrwt>
<totfact> 0.65035254E-01</totfact>
</mgrwt>
</event>
<event>
 6    1  0.9562506E-007  0.5187287E+04  0.7818608E-02  0.7800248E-01
          2   -1    0    0  501    0  0.00000000000E+00  0.00000000000E+00  0.34696082138E+04  0.34696082138E+04  0.00000000000E+00 0. -1.
         -2   -1    0    0    0  501 -0.00000000000E+00 -0.00000000000E+00 -0.19388314062E+04  0.19388314062E+04  0.00000000000E+00 0.  1.
         23    2    1    2    0    0  0.22477713460E+04 -0.11483820358E+04  0.14729014156E+03  0.25300211863E+04  0.89752401632E+02 0.  0.
         13    1    3    3    0    0  0.11544234291E+04 -0.60118687123E+03  0.11971148486E+03  0.13070768712E+04  0.00000000000E+00 0.  1.
        -13    1    3    3    0    0  0.10933479169E+04 -0.54719516454E+03  0.27578656698E+02  0.12229443151E+04  0.00000000000E+00 0. -1.
         22    1    1    2    0    0 -0.22477713460E+04  0.11483820358E+04  0.13834866661E+04  0.28784184337E+04  0.00000000000E+00 0. -1.
<mgrwt>
<rscale>  0 0.51872865E+04</rscale>
<asrwt>0</asrwt>
<pdfrwt beam="1">  1        2 0.53378588E+00 0.51872865E+04</pdfrwt>
<pdfrwt beam="2">  1       -2 0.29828176E+00 0.51872865E+04</pdfrwt>
<totfact> 0.19901993E-02</totfact>
</mgrwt>
</event>
<event>
 6    1  0.9562506E-007  0.9168144E+03  0.7818608E-02  0.9404803E-01
         -2   -1    0    0    0  501 -0.00000000000E+00  0.00000000000E+00  0.30709479944E+03  0.30709479944E+03  0.00000000000E+00 0.  1.
          2   -1    0    0  501    0  0.00000000000E+00 -0.00000000000E+00 -0.68427459031E+03  0.68427459031E+03  0.00000000000E+00 0. -1.
         23    2    1    2    0    0  0.33027873926E+03 -0.51526124028E+02 -0.52236801282E+03  0.62692651787E+03  0.91812476982E+02 0.  0.
         11    1    3    3    0    0  0.42594578327E+02 -0.39292051089E+02 -0.72759190011E+02  0.93016466890E+02  0.00000000000E+00 0. -1.
        -11    1    3    3    0    0  0.28768416093E+03 -0.12234072939E+02 -0.44960882281E+03  0.53391005098E+03  0.00000000000E+00 0.  1.
         22    1    1    2    0    0 -0.33027873926E+03  0.51526124028E+02  0.14518822196E+03  0.36444287187E+03  0.00000000000E+00 0.  1.
<mgrwt>
<rscale>  0 0.91681442E+03</rscale>
<asrwt>0</asrwt>
<pdfrwt beam="1">  1        2 0.10527301E+00 0.91681442E+03</pdfrwt>
<pdfrwt beam="2">  1       -2 0.47245354E-01 0.91681442E+03</pdfrwt>
<totfact> 0.17946166E+02</totfact>
</mgrwt>
</event>
<event>
 6    1  0.9562506E-007  0.1737014E+04  0.7818608E-02  0.8740531E-01
         -2   -1    0    0    0  501 -0.00000000000E+00  0.00000000000E+00  0.23975232205E+03  0.23975232205E+03  0.00000000000E+00 0.  1.
          2   -1    0    0  501    0  0.00000000000E+00 -0.00000000000E+00 -0.31461835604E+04  0.31461835604E+04  0.00000000000E+00 0. -1.
         23    2    1    2    0    0 -0.20911855120E+03  0.83918235730E+03 -0.13680918115E+04  0.16211566358E+04  0.92282369780E+02 0.  0.
         13    1    3    3    0    0 -0.11624906871E+03  0.46793123273E+03 -0.84726821382E+03  0.97485225070E+03  0.00000000000E+00 0. -1.
        -13    1    3    3    0    0 -0.92869482489E+02  0.37125112457E+03 -0.52082359765E+03  0.64630438506E+03  0.00000000000E+00 0.  1.
         22    1    1    2    0    0  0.20911855120E+03 -0.83918235730E+03 -0.15383394269E+04  0.17647792467E+04  0.00000000000E+00 0.  1.
<mgrwt>
<rscale>  0 0.17370145E+04</rscale>
<asrwt>0</asrwt>
<pdfrwt beam="1">  1        2 0.48402827E+00 0.17370145E+04</pdfrwt>
<pdfrwt beam="2">  1       -2 0.36884970E-01 0.17370145E+04</pdfrwt>
<totfact> 0.92872350E+00</totfact>
</mgrwt>
</event>
<event>
 6    1  0.9562506E-007  0.1154054E+04  0.7818608E-02  0.9154052E-01
         -1   -1    0    0    0  501 -0.00000000000E+00  0.00000000000E+00  0.35340419842E+03  0.35340419842E+03  0.00000000000E+00 0.  1.
          1   -1    0    0  501    0  0.00000000000E+00 -0.00000000000E+00 -0.94215110104E+03  0.94215110104E+03  0.00000000000E+00 0. -1.
         23    2    1    2    0    0  0.24625409713E+03  0.20798632039E+03 -0.82827780302E+03  0.89396540657E+03  0.96076216332E+02 0.  0.
         11    1    3    3    0    0  0.61261688901E+02  0.19296862324E+02 -0.96328689579E+02  0.11577814931E+03  0.00000000000E+00 0. -1.
        -11    1    3    3    0    0  0.18499240823E+03  0.18868945806E+03 -0.73194911344E+03  0.77818725726E+03  0.00000000000E+00 0.  1.
         22    1    1    2    0    0 -0.24625409713E+03 -0.20798632039E+03  0.23953090041E+03  0.40158989289E+03  0.00000000000E+00 0.  1.
<mgrwt>
<rscale>  0 0.11540540E+04</rscale>
<asrwt>0</asrwt>
<pdfrwt beam="1">  1        1 0.14494632E+00 0.11540540E+04</pdfrwt>
<pdfrwt beam="2">  1       -1 0.54369877E-01 0.11540540E+04</pdfrwt>
<totfact> 0.57040367E+01</totfact>
</mgrwt>
</event>
<event>
 6    1  0.9562506E-007  0.5274584E+04  0.7818608E-02  0.7787492E-01
          1   -1    0    0  501    0  0.00000000000E+00  0.00000000000E+00  0.23384197313E+04  0.23384197313E+04  0.00000000000E+00 0. -1.
         -1   -1    0    0    0  501 -0.00000000000E+00 -0.00000000000E+00 -0.29743633015E+04  0.29743633015E+04  0.00000000000E+00 0.  1.
         23    2    1    2    0    0  0.95470694899E+03  0.83805285244E+03 -0.26452371181E+04  0.29355875206E+04  0.81220306277E+02 0.  0.
         11    1    3    3    0    0  0.76414174477E+03  0.63438833528E+03 -0.20192125324E+04  0.22502400799E+04  0.00000000000E+00 0. -1.
        -11    1    3    3    0    0  0.19056520423E+03  0.20366451716E+03 -0.62602458566E+03  0.68534744069E+03  0.00000000000E+00 0.  1.
         22    1    1    2    0    0 -0.95470694899E+03 -0.83805285244E+03  0.20092935479E+04  0.23771955122E+04  0.00000000000E+00 0. -1.
<mgrwt>
<rscale>  0 0.52745843E+04</rscale>
<asrwt>0</asrwt>
<pdfrwt beam="1">  1        1 0.35975688E+00 0.52745843E+04</pdfrwt>
<pdfrwt beam="2">  1       -1 0.45759435E+00 0.52745843E+04</pdfrwt>
<totfact> 0.35623188E-03</totfact>
</mgrwt>
</event>
<event>
 6    1  0.9562506E-007  0.4106375E+04  0.7818608E-02  0.7983425E-01
          2   -1    0    0  501    0  0.00000000000E+00  0.00000000000E+00  0.22016509146E+04  0.22016509146E+04  0.00000000000E+00 0. -1.
         -2   -1    0    0    0  501 -0.00000000000E+00 -0.00000000000E+00 -0.19147352883E+04  0.19147352883E+04  0.00000000000E+00 0.  1.
         23    2    1    2    0    0  0.14962338836E+03  0.10816042477E+04 -0.15982748104E+04  0.19378091698E+04  0.91471864044E+02 0.  0.
         11    1    3    3    0    0  0.47509621653E+02  0.21163065472E+03 -0.26361100068E+03  0.34137290145E+03  0.00000000000E+00 0. -1.
        -11    1    3    3    0    0  0.10211376671E+03  0.86997359301E+03 -0.13346638097E+04  0.15964362683E+04  0.00000000000E+00 0.  1.
         22    1    1    2    0    0 -0.14962338836E+03 -0.10816042477E+04  0.18851904366E+04  0.21785770332E+04  0.00000000000E+00 0. -1.
<mgrwt>
<rscale>  0 0.41063749E+04</rscale>
<asrwt>0</asrwt>
<pdfrwt beam="1">  1        2 0.33871553E+00 0.41063749E+04</pdfrwt>
<pdfrwt beam="2">  1       -2 0.29457466E+00 0.41063749E+04</pdfrwt>
<totfact> 0.13827596E-01</totfact>
</mgrwt>
</event>
<event>
 6    1  0.9562506E-007  0.1915376E+04  0.7818608E-02  0.8647240E-01
          2   -1    0    0  501    0  0.00000000000E+00  0.00000000000E+00  0.92444428074E+03  0.92444428074E+03  0.00000000000E+00 0. -1.
         -2   -1    0    0    0  501 -0.00000000000E+00 -0.00000000000E+00 -0.99212741447E+03  0.99212741447E+03  0.00000000000E+00 0.  1.
         23    2    1    2    0    0 -0.79239465014E+03  0.27151285525E+03  0.42661298347E+03  0.94397868494E+03  0.86536742548E+02 0.  0.
         11    1    3    3    0    0 -0.26754360072E+03  0.12067456115E+03  0.18406571934E+03  0.34644208323E+03  0.00000000000E+00 0.  1.
        -11    1    3    3    0    0 -0.52485104942E+03  0.15083829410E+03  0.24254726413E+03  0.59753660171E+03  0.00000000000E+00 0. -1.
         22    1    1    2    0    0  0.79239465014E+03 -0.27151285525E+03 -0.49429611720E+03  0.97259301027E+03  0.00000000000E+00 0.  1.
<mgrwt>
<rscale>  0 0.19153762E+04</rscale>
<asrwt>0</asrwt>
<pdfrwt beam="1">  1        2 0.14222220E+00 0.19153762E+04</pdfrwt>
<pdfrwt beam="2">  1       -2 0.15263499E+00 0.19153762E+04</pdfrwt>
<totfact> 0.75524227E+00</totfact>
</mgrwt>
</event>
<event>
 6    1  0.9562506E-007  0.2349211E+04  0.7818608E-02  0.8458767E-01
          2   -1    0    0  501    0  0.00000000000E+00  0.00000000000E+00  0.20916380825E+04  0.20916380825E+04  0.00000000000E+00 0. -1.
         -2   -1    0    0    0  501 -0.00000000000E+00 -0.00000000000E+00 -0.65962565757E+03  0.65962565757E+03  0.00000000000E+00 0.  1.
         23    2    1    2    0    0 -0.30014849421E+03 -0.32865611417E+03  0.19879014105E+04  0.20391425957E+04  0.90810504707E+02 0.  0.
         13    1    3    3    0    0 -0.19249247998E+03 -0.14587568109E+03  0.10055884484E+04  0.10341862486E+04  0.00000000000E+00 0. -1.
        -13    1    3    3    0    0 -0.10765601423E+03 -0.18278043308E+03  0.98231296206E+03  0.10049563471E+04  0.00000000000E+00 0.  1.
         22    1    1    2    0    0  0.30014849421E+03  0.32865611417E+03 -0.55588898558E+03  0.71212114436E+03  0.00000000000E+00 0.  1.
<mgrwt>
<rscale>  0 0.23492111E+04</rscale>
<asrwt>0</asrwt>
<pdfrwt beam="1">  1        2 0.32179047E+00 0.23492111E+04</pdfrwt>
<pdfrwt beam="2">  1       -2 0.10148087E+00 0.23492111E+04</pdfrwt>
<totfact> 0.42772847E+00</totfact>
</mgrwt>
</event>
<event>
 6    1  0.9562506E-007  0.3336652E+04  0.7818608E-02  0.8153631E-01
         -1   -1    0    0    0  501 -0.00000000000E+00  0.00000000000E+00  0.10863161392E+04  0.10863161392E+04  0.00000000000E+00 0.  1.
          1   -1    0    0  501    0  0.00000000000E+00 -0.00000000000E+00 -0.25621564269E+04  0.25621564269E+04  0.00000000000E+00 0. -1.
         23    2    1    2    0    0  0.38944457020E+03 -0.13983395407E+04  0.15754790350E+03  0.14633003697E+04  0.96984975918E+02 0.  0.
         13    1    3    3    0    0  0.17081222087E+03 -0.72854217227E+03  0.11868915532E+03  0.75765270881E+03  0.00000000000E+00 0.  1.
        -13    1    3    3    0    0  0.21863234933E+03 -0.66979736848E+03  0.38858748172E+02  0.70564766088E+03  0.00000000000E+00 0. -1.
         22    1    1    2    0    0 -0.38944457020E+03  0.13983395407E+04 -0.16333881912E+04  0.21851721964E+04  0.00000000000E+00 0. -1.
<mgrwt>
<rscale>  0 0.33366521E+04</rscale>
<asrwt>0</asrwt>
<pdfrwt beam="1">  1        1 0.39417791E+00 0.33366521E+04</pdfrwt>
<pdfrwt beam="2">  1       -1 0.16712556E+00 0.33366521E+04</pdfrwt>
<totfact> 0.26199391E-01</totfact>
</mgrwt>
</event>
<event>
 6    1  0.9562506E-007  0.3576014E+04  0.7818608E-02  0.8096008E-01
          2   -1    0    0  501    0  0.00000000000E+00  0.00000000000E+00  0.37822858814E+04  0.37822858814E+04  0.00000000000E+00 0. -1.
         -2   -1    0    0    0  501 -0.00000000000E+00 -0.00000000000E+00 -0.84524787067E+03  0.84524787067E+03  0.00000000000E+00 0.  1.
         23    2    1    2    0    0  0.91305419226E+03 -0.59367219297E+03 -0.36393062429E+03  0.11515434529E+04  0.86557460043E+02 0.  0.
         13    1    3    3    0    0  0.77891784387E+03 -0.53712525606E+03 -0.33016405703E+03  0.10021101999E+04  0.00000000000E+00 0. -1.
        -13    1    3    3    0    0  0.13413634839E+03 -0.56546936910E+02 -0.33766567251E+02  0.14943325299E+03  0.00000000000E+00 0.  1.
         22    1    1    2    0    0 -0.91305419226E+03  0.59367219297E+03  0.33009686350E+04  0.34759902992E+04  0.00000000000E+00 0. -1.
<mgrwt>
<rscale>  0 0.35760140E+04</rscale>
<asrwt>0</asrwt>
<pdfrwt beam="1">  1        2 0.58189013E+00 0.35760140E+04</pdfrwt>
<pdfrwt beam="2">  1       -2 0.13003814E+00 0.35760140E+04</pdfrwt>
<totfact> 0.17911275E-01</totfact>
</mgrwt>
</event>
<event>
 6    1  0.9562506E-007  0.1246035E+04  0.7818608E-02  0.9073489E-01
          2   -1    0    0  501    0  0.00000000000E+00  0.00000000000E+00  0.76057739861E+03  0.76057739861E+03  0.00000000000E+00 0. -1.
         -2   -1    0    0    0  501 -0.00000000000E+00 -0.00000000000E+00 -0.51033730025E+03  0.51033730025E+03  0.00000000000E+00 0.  1.
         23    2    1    2    0    0  0.32737519895E+03  0.52428889511E+03  0.80114627475E+02  0.62982496859E+03  0.90596749959E+02 0.  0.
         11    1    3    3    0    0  0.33340708593E+03  0.51299511545E+03  0.76989771765E+02  0.61664552085E+03  0.00000000000E+00 0. -1.
        -11    1    3    3    0    0 -0.60318869844E+01  0.11293779658E+02  0.31248557095E+01  0.13179447741E+02  0.00000000000E+00 0.  1.
         22    1    1    2    0    0 -0.32737519895E+03 -0.52428889511E+03  0.17012547089E+03  0.64108973028E+03  0.00000000000E+00 0.  1.
<mgrwt>
<rscale>  0 0.12460353E+04</rscale>
<asrwt>0</asrwt>
<pdfrwt beam="1">  1        2 0.11701191E+00 0.12460353E+04</pdfrwt>
<pdfrwt beam="2">  1       -2 0.78513432E-01 0.12460353E+04</pdfrwt>
<totfact> 0.52251580E+01</totfact>
</mgrwt>
</event>
<event>
 6    1  0.9562506E-007  0.6363501E+03  0.7818608E-02  0.9832735E-01
         -1   -1    0    0    0  501 -0.00000000000E+00  0.00000000000E+00  0.10807185980E+03  0.10807185980E+03  0.00000000000E+00 0.  1.
          1   -1    0    0  501    0  0.00000000000E+00 -0.00000000000E+00 -0.93674111444E+03  0.93674111444E+03  0.00000000000E+00 0. -1.
         23    2    1    2    0    0 -0.20403543382E+02 -0.36096104990E+02 -0.92986143792E+03  0.93545534380E+03  0.93355091627E+02 0.  0.
         11    1    3    3    0    0 -0.37056768848E+02 -0.65033189541E+01 -0.81009377198E+03  0.81096696399E+03  0.00000000000E+00 0. -1.
        -11    1    3    3    0    0  0.16653225466E+02 -0.29592786036E+02 -0.11976766594E+03  0.12448837981E+03  0.00000000000E+00 0.  1.
         22    1    1    2    0    0  0.20403543382E+02  0.36096104990E+02  0.10119218328E+03  0.10935763044E+03  0.00000000000E+00 0.  1.
<mgrwt>
<rscale>  0 0.63635007E+03</rscale>
<asrwt>0</asrwt>
<pdfrwt beam="1">  1        1 0.14411402E+00 0.63635007E+03</pdfrwt>
<pdfrwt beam="2">  1       -1 0.16626440E-01 0.63635007E+03</pdfrwt>
<totfact> 0.47820777E+02</totfact>
</mgrwt>
</event>
<event>
 6    1  0.9562506E-007  0.1825543E+04  0.7818608E-02  0.8692833E-01
         -2   -1    0    0    0  501 -0.00000000000E+00  0.00000000000E+00  0.72471463796E+03  0.72471463796E+03  0.00000000000E+00 0.  1.
          2   -1    0    0  501    0  0.00000000000E+00 -0.00000000000E+00 -0.11496275649E+04  0.11496275649E+04  0.00000000000E+00 0. -1.
         23    2    1    2    0    0  0.50321471827E+03 -0.16397937701E+01 -0.99197510882E+03  0.11161949482E+04  0.92998947495E+02 0.  0.
         11    1    3    3    0    0  0.22555132586E+03  0.13137672375E+02 -0.54248456763E+03  0.58765253777E+03  0.00000000000E+00 0.  1.
        -11    1    3    3    0    0  0.27766339241E+03 -0.14777466145E+02 -0.44949054120E+03  0.52854241042E+03  0.00000000000E+00 0. -1.
         22    1    1    2    0    0 -0.50321471827E+03  0.16397937701E+01  0.56706218190E+03  0.75814725465E+03  0.00000000000E+00 0.  1.
<mgrwt>
<rscale>  0 0.18255431E+04</rscale>
<asrwt>0</asrwt>
<pdfrwt beam="1">  1        2 0.17686578E+00 0.18255431E+04</pdfrwt>
<pdfrwt beam="2">  1       -2 0.11149456E+00 0.18255431E+04</pdfrwt>
<totfact> 0.12170771E+01</totfact>
</mgrwt>
</event>
<event>
 6    1  0.9562506E-007  0.1258844E+04  0.7818608E-02  0.9062854E-01
         -2   -1    0    0    0  501 -0.00000000000E+00  0.00000000000E+00  0.23387749878E+03  0.23387749878E+03  0.00000000000E+00 0.  1.
          2   -1    0    0  501    0  0.00000000000E+00 -0.00000000000E+00 -0.16939305579E+04  0.16939305579E+04  0.00000000000E+00 0. -1.
         23    2    1    2    0    0 -0.49005995250E+03 -0.29525575231E+03 -0.34424752126E+03  0.67387156920E+03  0.90894551844E+02 0.  0.
         11    1    3    3    0    0 -0.11481002655E+03 -0.30677414537E+02 -0.52818429881E+02  0.13004703955E+03  0.00000000000E+00 0.  1.
        -11    1    3    3    0    0 -0.37524992595E+03 -0.26457833777E+03 -0.29142909138E+03  0.54382452965E+03  0.00000000000E+00 0. -1.
         22    1    1    2    0    0  0.49005995250E+03  0.29525575231E+03 -0.11158055378E+04  0.12539364875E+04  0.00000000000E+00 0. -1.
<mgrwt>
<rscale>  0 0.12588443E+04</rscale>
<asrwt>0</asrwt>
<pdfrwt beam="1">  1        2 0.26060471E+00 0.12588443E+04</pdfrwt>
<pdfrwt beam="2">  1       -2 0.35981153E-01 0.12588443E+04</pdfrwt>
<totfact> 0.70561242E+01</totfact>
</mgrwt>
</event>
<event>
 6    1  0.9562506E-007  0.1928703E+04  0.7818608E-02  0.8640700E-01
          2   -1    0    0  501    0  0.00000000000E+00  0.00000000000E+00  0.16590603511E+04  0.16590603511E+04  0.00000000000E+00 0. -1.
         -2   -1    0    0    0  501 -0.00000000000E+00 -0.00000000000E+00 -0.56054239698E+03  0.56054239698E+03  0.00000000000E+00 0.  1.
         23    2    1    2    0    0 -0.92249840319E+03 -0.15899771476E+03  0.80677978304E+03  0.12390953602E+04  0.90443994487E+02 0.  0.
         13    1    3    3    0    0 -0.27967826078E+03 -0.39825392301E+02  0.19120008320E+03  0.34112089241E+03  0.00000000000E+00 0. -1.
        -13    1    3    3    0    0 -0.64282014241E+03 -0.11917232246E+03  0.61557969983E+03  0.89797446777E+03  0.00000000000E+00 0.  1.
         22    1    1    2    0    0  0.92249840319E+03  0.15899771476E+03  0.29173817104E+03  0.98050738785E+03  0.00000000000E+00 0.  1.
<mgrwt>
<rscale>  0 0.19287028E+04</rscale>
<asrwt>0</asrwt>
<pdfrwt beam="1">  1        2 0.25524005E+00 0.19287028E+04</pdfrwt>
<pdfrwt beam="2">  1       -2 0.86237292E-01 0.19287028E+04</pdfrwt>
<totfact> 0.11258988E+01</totfact>
</mgrwt>
</event>
<event>
 6    1  0.9562506E-007  0.2854365E+04  0.7818608E-02  0.8286586E-01
          1   -1    0    0  501    0  0.00000000000E+00  0.00000000000E+00  0.14307275622E+04  0.14307275622E+04  0.00000000000E+00 0. -1.
         -1   -1    0    0    0  501 -0.00000000000E+00 -0.00000000000E+00 -0.14236462436E+04  0.14236462436E+04  0.00000000000E+00 0.  1.
         23    2    1    2    0    0 -0.30653262967E+02  0.12146186082E+04  0.74937258932E+03  0.14305640163E+04  0.93360276034E+02 0.  0.
         11    1    3    3    0    0 -0.10353494681E+02  0.77156923773E+03  0.52697185221E+03  0.93441190943E+03  0.00000000000E+00 0. -1.
        -11    1    3    3    0    0 -0.20299768286E+02  0.44304937048E+03  0.22240073711E+03  0.49615210686E+03  0.00000000000E+00 0.  1.
         22    1    1    2    0    0  0.30653262967E+02 -0.12146186082E+04 -0.74229127073E+03  0.14238097894E+04  0.00000000000E+00 0.  1.
<mgrwt>
<rscale>  0 0.28543650E+04</rscale>
<asrwt>0</asrwt>
<pdfrwt beam="1">  1        1 0.22011193E+00 0.28543650E+04</pdfrwt>
<pdfrwt beam="2">  1       -1 0.21902250E+00 0.28543650E+04</pdfrwt>
<totfact> 0.70386656E-01</totfact>
</mgrwt>
</event>
<event>
 6    1  0.9562506E-007  0.1227554E+04  0.7818608E-02  0.9089075E-01
          2   -1    0    0  501    0  0.00000000000E+00  0.00000000000E+00  0.15298048954E+04  0.15298048954E+04  0.00000000000E+00 0. -1.
         -2   -1    0    0    0  501 -0.00000000000E+00 -0.00000000000E+00 -0.24625500000E+03  0.24625500000E+03  0.00000000000E+00 0.  1.
         23    2    1    2    0    0 -0.24049366352E+03  0.19213948262E+03 -0.11843581886E+03  0.34067885681E+03  0.85324423932E+02 0.  0.
         13    1    3    3    0    0 -0.13712753952E+03  0.77753194827E+02 -0.96828636474E+02  0.18500082768E+03  0.00000000000E+00 0.  1.
        -13    1    3    3    0    0 -0.10336612400E+03  0.11438628779E+03 -0.21607182381E+02  0.15567802914E+03  0.00000000000E+00 0. -1.
         22    1    1    2    0    0  0.24049366352E+03 -0.19213948262E+03  0.14019857143E+04  0.14353810386E+04  0.00000000000E+00 0. -1.
<mgrwt>
<rscale>  0 0.12275538E+04</rscale>
<asrwt>0</asrwt>
<pdfrwt beam="1">  1        2 0.23535459E+00 0.12275538E+04</pdfrwt>
<pdfrwt beam="2">  1       -2 0.37885386E-01 0.12275538E+04</pdfrwt>
<totfact> 0.79050716E+01</totfact>
</mgrwt>
</event>
<event>
 6    1  0.9562506E-007  0.4408110E+04  0.7818608E-02  0.7926924E-01
         -2   -1    0    0    0  501 -0.00000000000E+00  0.00000000000E+00  0.30885340596E+04  0.30885340596E+04  0.00000000000E+00 0.  1.
          2   -1    0    0  501    0  0.00000000000E+00 -0.00000000000E+00 -0.15728689134E+04  0.15728689134E+04  0.00000000000E+00 0. -1.
         23    2    1    2    0    0 -0.67693090852E+03  0.54081288743E+03 -0.13838128652E+04  0.16352359628E+04  0.91348640269E+02 0.  0.
         11    1    3    3    0    0 -0.32497491922E+03  0.31216024692E+03 -0.67893087446E+03  0.81486185956E+03  0.00000000000E+00 0. -1.
        -11    1    3    3    0    0 -0.35195598930E+03  0.22865264051E+03 -0.70488199077E+03  0.82037410328E+03  0.00000000000E+00 0.  1.
         22    1    1    2    0    0  0.67693090852E+03 -0.54081288743E+03  0.28994780115E+04  0.30261670101E+04  0.00000000000E+00 0.  1.
<mgrwt>
<rscale>  0 0.44081103E+04</rscale>
<asrwt>0</asrwt>
<pdfrwt beam="1">  1        2 0.24197983E+00 0.44081103E+04</pdfrwt>
<pdfrwt beam="2">  1       -2 0.47515908E+00 0.44081103E+04</pdfrwt>
<totfact> 0.20968281E-02</totfact>
</mgrwt>
</event>
<event>
 6    1  0.9562506E-007  0.2964212E+04  0.7818608E-02  0.8254025E-01
         -2   -1    0    0    0  501 -0.00000000000E+00  0.00000000000E+00  0.11849531350E+04  0.11849531350E+04  0.00000000000E+00 0.  1.
          2   -1    0    0  501    0  0.00000000000E+00 -0.00000000000E+00 -0.18537758635E+04  0.18537758635E+04  0.00000000000E+00 0. -1.
         23    2    1    2    0    0  0.97997408884E+03  0.11031450961E+04 -0.46031519799E+03  0.15485096495E+04  0.93347389139E+02 0.  0.
         11    1    3    3    0    0  0.23825327171E+03  0.21184807672E+03 -0.10810401393E+03  0.33664626378E+03  0.00000000000E+00 0.  1.
        -11    1    3    3    0    0  0.74172081713E+03  0.89129701941E+03 -0.35221118406E+03  0.12118633857E+04  0.00000000000E+00 0. -1.
         22    1    1    2    0    0 -0.97997408884E+03 -0.11031450961E+04 -0.20850753056E+03  0.14902193490E+04  0.00000000000E+00 0.  1.
<mgrwt>
<rscale>  0 0.29642115E+04</rscale>
<asrwt>0</asrwt>
<pdfrwt beam="1">  1        2 0.28519628E+00 0.29642115E+04</pdfrwt>
<pdfrwt beam="2">  1       -2 0.18230048E+00 0.29642115E+04</pdfrwt>
<totfact> 0.12092604E+00</totfact>
</mgrwt>
</event>
<event>
 6    1  0.9562506E-007  0.9116680E+03  0.7818608E-02  0.9411112E-01
         -2   -1    0    0    0  501 -0.00000000000E+00  0.00000000000E+00  0.58737215636E+03  0.58737215636E+03  0.00000000000E+00 0.  1.
          2   -1    0    0  501    0  0.00000000000E+00 -0.00000000000E+00 -0.35375297760E+03  0.35375297760E+03  0.00000000000E+00 0. -1.
         23    2    1    2    0    0 -0.58390218759E+01  0.40747859031E+03 -0.81991163941E+02  0.42568087494E+03  0.91699294375E+02 0.  0.
         13    1    3    3    0    0 -0.30965485302E+02  0.28388566151E+03 -0.23142310181E+02  0.28650566594E+03  0.00000000000E+00 0.  1.
        -13    1    3    3    0    0  0.25126463426E+02  0.12359292880E+03 -0.58848853760E+02  0.13917520901E+03  0.00000000000E+00 0. -1.
         22    1    1    2    0    0  0.58390218759E+01 -0.40747859031E+03  0.31561034270E+03  0.51544425902E+03  0.00000000000E+00 0.  1.
<mgrwt>
<rscale>  0 0.91166803E+03</rscale>
<asrwt>0</asrwt>
<pdfrwt beam="1">  1        2 0.54423535E-01 0.91166803E+03</pdfrwt>
<pdfrwt beam="2">  1       -2 0.90364947E-01 0.91166803E+03</pdfrwt>
<totfact> 0.95904008E+01</totfact>
</mgrwt>
</event>
<event>
 6    1  0.9562506E-007  0.1737026E+04  0.7818608E-02  0.8740525E-01
         -2   -1    0    0    0  501 -0.00000000000E+00  0.00000000000E+00  0.13438391529E+04  0.13438391529E+04  0.00000000000E+00 0.  1.
          2   -1    0    0  501    0  0.00000000000E+00 -0.00000000000E+00 -0.56131312651E+03  0.56131312651E+03  0.00000000000E+00 0. -1.
         23    2    1    2    0    0  0.33932767598E+03 -0.12311041536E+03 -0.46886188483E+03  0.60274253190E+03  0.11475036670E+03 0.  0.
         11    1    3    3    0    0  0.26675793164E+03 -0.14370908858E+03 -0.36512013890E+03  0.47447319425E+03  0.00000000000E+00 0. -1.
        -11    1    3    3    0    0  0.72569744339E+02  0.20598673220E+02 -0.10374174593E+03  0.12826933764E+03  0.00000000000E+00 0.  1.
         22    1    1    2    0    0 -0.33932767598E+03  0.12311041536E+03  0.12513879112E+04  0.13024097475E+04  0.00000000000E+00 0.  1.
<mgrwt>
<rscale>  0 0.17370257E+04</rscale>
<asrwt>0</asrwt>
<pdfrwt beam="1">  1        2 0.86355866E-01 0.17370257E+04</pdfrwt>
<pdfrwt beam="2">  1       -2 0.20674448E+00 0.17370257E+04</pdfrwt>
<totfact> 0.61221950E+00</totfact>
</mgrwt>
</event>
<event>
 6    1  0.9562506E-007  0.2418374E+04  0.7818608E-02  0.8432657E-01
         -2   -1    0    0    0  501 -0.00000000000E+00  0.00000000000E+00  0.11618188413E+04  0.11618188413E+04  0.00000000000E+00 0.  1.
          2   -1    0    0  501    0  0.00000000000E+00 -0.00000000000E+00 -0.12584859255E+04  0.12584859255E+04  0.00000000000E+00 0. -1.
         23    2    1    2    0    0 -0.54522896726E+03  0.49055902627E+02  0.10286848603E+04  0.11688663515E+04  0.91514466493E+02 0.  0.
         13    1    3    3    0    0 -0.38725010289E+03  0.91494774267E+01  0.79016202934E+03  0.88000135666E+03  0.00000000000E+00 0.  1.
        -13    1    3    3    0    0 -0.15797886438E+03  0.39906425200E+02  0.23852283095E+03  0.28886499485E+03  0.00000000000E+00 0. -1.
         22    1    1    2    0    0  0.54522896726E+03 -0.49055902627E+02 -0.11253519444E+04  0.12514384153E+04  0.00000000000E+00 0. -1.
<mgrwt>
<rscale>  0 0.24183736E+04</rscale>
<asrwt>0</asrwt>
<pdfrwt beam="1">  1        2 0.19361322E+00 0.24183736E+04</pdfrwt>
<pdfrwt beam="2">  1       -2 0.17874136E+00 0.24183736E+04</pdfrwt>
<totfact> 0.29045961E+00</totfact>
</mgrwt>
</event>
<event>
 6    1  0.9562506E-007  0.2313784E+04  0.7818608E-02  0.8472506E-01
         -2   -1    0    0    0  501 -0.00000000000E+00  0.00000000000E+00  0.40555458470E+03  0.40555458470E+03  0.00000000000E+00 0.  1.
          2   -1    0    0  501    0  0.00000000000E+00 -0.00000000000E+00 -0.33001697933E+04  0.33001697933E+04  0.00000000000E+00 0. -1.
         23    2    1    2    0    0 -0.21176935090E+03 -0.75276511751E+03 -0.28111131578E+04  0.29192930888E+04  0.91724436254E+02 0.  0.
         11    1    3    3    0    0 -0.26305298906E+02 -0.23514140100E+03 -0.78327530351E+03  0.81823202596E+03  0.00000000000E+00 0.  1.
        -11    1    3    3    0    0 -0.18546405199E+03 -0.51762371651E+03 -0.20278378543E+04  0.21010610628E+04  0.00000000000E+00 0. -1.
         22    1    1    2    0    0  0.21176935090E+03  0.75276511751E+03 -0.83502050769E+02  0.78643128918E+03  0.00000000000E+00 0.  1.
<mgrwt>
<rscale>  0 0.23137839E+04</rscale>
<asrwt>0</asrwt>
<pdfrwt beam="1">  1        2 0.50771843E+00 0.23137839E+04</pdfrwt>
<pdfrwt beam="2">  1       -2 0.62393013E-01 0.23137839E+04</pdfrwt>
<totfact> 0.24075859E+00</totfact>
</mgrwt>
</event>
<event>
 6    1  0.9562506E-007  0.2416128E+04  0.7818608E-02  0.8433490E-01
         -1   -1    0    0    0  501 -0.00000000000E+00  0.00000000000E+00  0.62429388207E+03  0.62429388207E+03  0.00000000000E+00 0.  1.
          1   -1    0    0  501    0  0.00000000000E+00 -0.00000000000E+00 -0.23377114257E+04  0.23377114257E+04  0.00000000000E+00 0. -1.
         23    2    1    2    0    0 -0.76830944578E+02  0.90575046919E+03 -0.18301853336E+04  0.20455329278E+04  0.91321941011E+02 0.  0.
         11    1    3    3    0    0 -0.18915774457E+02  0.58924576929E+03 -0.12515469256E+04  0.13834515134E+04  0.00000000000E+00 0. -1.
        -11    1    3    3    0    0 -0.57915170121E+02  0.31650469990E+03 -0.57863840806E+03  0.66208141438E+03  0.00000000000E+00 0.  1.
         22    1    1    2    0    0  0.76830944578E+02 -0.90575046919E+03  0.11676778997E+03  0.91647237997E+03  0.00000000000E+00 0.  1.
<mgrwt>
<rscale>  0 0.24161283E+04</rscale>
<asrwt>0</asrwt>
<pdfrwt beam="1">  1        1 0.35964791E+00 0.24161283E+04</pdfrwt>
<pdfrwt beam="2">  1       -1 0.96045214E-01 0.24161283E+04</pdfrwt>
<totfact> 0.16388398E+00</totfact>
</mgrwt>
</event>
<event>
 6    1  0.9562506E-007  0.7569531E+03  0.7818608E-02  0.9624505E-01
         -2   -1    0    0    0  501 -0.00000000000E+00  0.00000000000E+00  0.35514036369E+03  0.35514036369E+03  0.00000000000E+00 0.  1.
          2   -1    0    0  501    0  0.00000000000E+00 -0.00000000000E+00 -0.40334616041E+03  0.40334616041E+03  0.00000000000E+00 0. -1.
         23    2    1    2    0    0 -0.23689051079E+03 -0.17516599461E+03  0.20432712649E+03  0.37044900390E+03  0.93180738881E+02 0.  0.
         11    1    3    3    0    0 -0.48358208081E+01  0.92215712443E+01  0.16639111171E+02  0.19628615836E+02  0.00000000000E+00 0.  1.
        -11    1    3    3    0    0 -0.23205468998E+03 -0.18438756586E+03  0.18768801532E+03  0.35082038806E+03  0.00000000000E+00 0. -1.
         22    1    1    2    0    0  0.23689051079E+03  0.17516599461E+03 -0.25253292322E+03  0.38803752020E+03  0.00000000000E+00 0. -1.
<mgrwt>
<rscale>  0 0.75695311E+03</rscale>
<asrwt>0</asrwt>
<pdfrwt beam="1">  1        2 0.62053256E-01 0.75695311E+03</pdfrwt>
<pdfrwt beam="2">  1       -2 0.54636979E-01 0.75695311E+03</pdfrwt>
<totfact> 0.25042598E+02</totfact>
</mgrwt>
</event>
<event>
 6    1  0.9562506E-007  0.1836077E+04  0.7818608E-02  0.8687346E-01
         -1   -1    0    0    0  501 -0.00000000000E+00  0.00000000000E+00  0.89218914239E+03  0.89218914239E+03  0.00000000000E+00 0.  1.
          1   -1    0    0  501    0  0.00000000000E+00 -0.00000000000E+00 -0.94463689014E+03  0.94463689014E+03  0.00000000000E+00 0. -1.
         23    2    1    2    0    0  0.58967726757E+03  0.62446615119E+03 -0.34349916216E+03  0.92996982580E+03  0.95785952127E+02 0.  0.
         13    1    3    3    0    0  0.50503250649E+03  0.48505151991E+03 -0.29472987571E+03  0.75973581541E+03  0.00000000000E+00 0. -1.
        -13    1    3    3    0    0  0.84644761080E+02  0.13941463128E+03 -0.48769286444E+02  0.17023401039E+03  0.00000000000E+00 0.  1.
         22    1    1    2    0    0 -0.58967726757E+03 -0.62446615119E+03  0.29105141440E+03  0.90685620673E+03  0.00000000000E+00 0.  1.
<mgrwt>
<rscale>  0 0.18360771E+04</rscale>
<asrwt>0</asrwt>
<pdfrwt beam="1">  1        1 0.14532875E+00 0.18360771E+04</pdfrwt>
<pdfrwt beam="2">  1       -1 0.13725987E+00 0.18360771E+04</pdfrwt>
<totfact> 0.69506958E+00</totfact>
</mgrwt>
</event>
<event>
 6    1  0.9562506E-007  0.1877539E+04  0.7818608E-02  0.8666118E-01
         -2   -1    0    0    0  501 -0.00000000000E+00  0.00000000000E+00  0.54928441783E+03  0.54928441783E+03  0.00000000000E+00 0.  1.
          2   -1    0    0  501    0  0.00000000000E+00 -0.00000000000E+00 -0.16044294833E+04  0.16044294833E+04  0.00000000000E+00 0. -1.
         23    2    1    2    0    0  0.46961992305E+03 -0.14411231099E+03  0.38583688694E+03  0.63130127064E+03  0.91432820599E+02 0.  0.
         13    1    3    3    0    0  0.28263280265E+03 -0.50855198989E+02  0.18582227925E+03  0.34204893198E+03  0.00000000000E+00 0.  1.
        -13    1    3    3    0    0  0.18698712039E+03 -0.93257111996E+02  0.20001460769E+03  0.28925233866E+03  0.00000000000E+00 0. -1.
         22    1    1    2    0    0 -0.46961992305E+03  0.14411231099E+03 -0.14409819524E+04  0.15224126305E+04  0.00000000000E+00 0. -1.
<mgrwt>
<rscale>  0 0.18775389E+04</rscale>
<asrwt>0</asrwt>
<pdfrwt beam="1">  1        2 0.24683531E+00 0.18775389E+04</pdfrwt>
<pdfrwt beam="2">  1       -2 0.84505295E-01 0.18775389E+04</pdfrwt>
<totfact> 0.12703034E+01</totfact>
</mgrwt>
</event>
<event>
 6    1  0.9562506E-007  0.2707054E+04  0.7818608E-02  0.8332720E-01
         -1   -1    0    0    0  501 -0.00000000000E+00  0.00000000000E+00  0.13593166575E+04  0.13593166575E+04  0.00000000000E+00 0.  1.
          1   -1    0    0  501    0  0.00000000000E+00 -0.00000000000E+00 -0.13477618958E+04  0.13477618958E+04  0.00000000000E+00 0. -1.
         23    2    1    2    0    0  0.11245613043E+04  0.50331540822E+03  0.56256390029E+03  0.13574209679E+04  0.90271894342E+02 0.  0.
         13    1    3    3    0    0  0.33803912665E+03  0.19597761202E+03  0.18885605190E+03  0.43398650198E+03  0.00000000000E+00 0. -1.
        -13    1    3    3    0    0  0.78652217764E+03  0.30733779620E+03  0.37370784839E+03  0.92343446591E+03  0.00000000000E+00 0.  1.
         22    1    1    2    0    0 -0.11245613043E+04 -0.50331540822E+03 -0.55100913856E+03  0.13496575855E+04  0.00000000000E+00 0.  1.
<mgrwt>
<rscale>  0 0.27070539E+04</rscale>
<asrwt>0</asrwt>
<pdfrwt beam="1">  1        1 0.20734798E+00 0.27070539E+04</pdfrwt>
<pdfrwt beam="2">  1       -1 0.20912564E+00 0.27070539E+04</pdfrwt>
<totfact> 0.95126269E-01</totfact>
</mgrwt>
</event>
<event>
 6    1  0.9562506E-007  0.2427991E+04  0.7818608E-02  0.8429098E-01
          2   -1    0    0  501    0  0.00000000000E+00  0.00000000000E+00  0.21587133861E+04  0.21587133861E+04  0.00000000000E+00 0. -1.
         -2   -1    0    0    0  501 -0.00000000000E+00 -0.00000000000E+00 -0.68271472681E+03  0.68271472681E+03  0.00000000000E+00 0.  1.
         23    2    1    2    0    0  0.31158779836E+03 -0.82137735976E+03  0.17166367494E+04  0.19305744400E+04  0.92348337681E+02 0.  0.
         13    1    3    3    0    0  0.24595441874E+03 -0.64200996231E+03  0.12548161752E+04  0.14308158516E+04  0.00000000000E+00 0. -1.
        -13    1    3    3    0    0  0.65633379619E+02 -0.17936739744E+03  0.46182057426E+03  0.49975858832E+03  0.00000000000E+00 0.  1.
         22    1    1    2    0    0 -0.31158779836E+03  0.82137735976E+03 -0.24063809010E+03  0.91085367300E+03  0.00000000000E+00 0.  1.
<mgrwt>
<rscale>  0 0.24279913E+04</rscale>
<asrwt>0</asrwt>
<pdfrwt beam="1">  1        2 0.33210975E+00 0.24279913E+04</pdfrwt>
<pdfrwt beam="2">  1       -2 0.10503304E+00 0.24279913E+04</pdfrwt>
<totfact> 0.35893372E+00</totfact>
</mgrwt>
</event>
<event>
 6    1  0.9562506E-007  0.3084621E+04  0.7818608E-02  0.8219971E-01
         -1   -1    0    0    0  501 -0.00000000000E+00  0.00000000000E+00  0.16265594685E+04  0.16265594685E+04  0.00000000000E+00 0.  1.
          1   -1    0    0  501    0  0.00000000000E+00 -0.00000000000E+00 -0.14624255721E+04  0.14624255721E+04  0.00000000000E+00 0. -1.
         23    2    1    2    0    0 -0.50558689191E+03  0.13879540396E+04 -0.35680034969E+03  0.15226495050E+04  0.95501331637E+02 0.  0.
         11    1    3    3    0    0 -0.13733862105E+03  0.45998875206E+03 -0.15155255066E+03  0.50340810926E+03  0.00000000000E+00 0. -1.
        -11    1    3    3    0    0 -0.36824827086E+03  0.92796528754E+03 -0.20524779903E+03  0.10192413958E+04  0.00000000000E+00 0.  1.
         22    1    1    2    0    0  0.50558689191E+03 -0.13879540396E+04  0.52093424605E+03  0.15663355356E+04  0.00000000000E+00 0.  1.
<mgrwt>
<rscale>  0 0.30846213E+04</rscale>
<asrwt>0</asrwt>
<pdfrwt beam="1">  1        1 0.22498855E+00 0.30846213E+04</pdfrwt>
<pdfrwt beam="2">  1       -1 0.25023992E+00 0.30846213E+04</pdfrwt>
<totfact> 0.40777707E-01</totfact>
</mgrwt>
</event>
<event>
 6    1  0.9562506E-007  0.7641567E+03  0.7818608E-02  0.9613399E-01
         -1   -1    0    0    0  501 -0.00000000000E+00  0.00000000000E+00  0.34277118018E+03  0.34277118018E+03  0.00000000000E+00 0.  1.
          1   -1    0    0  501    0  0.00000000000E+00 -0.00000000000E+00 -0.42589310760E+03  0.42589310760E+03  0.00000000000E+00 0. -1.
         23    2    1    2    0    0  0.24065776999E+03 -0.24003568532E+03  0.12152971113E+03  0.37190795747E+03  0.89514052876E+02 0.  0.
         11    1    3    3    0    0  0.19558585265E+03 -0.16544556505E+03  0.54368522699E+02  0.26188164696E+03  0.00000000000E+00 0.  1.
        -11    1    3    3    0    0  0.45071917332E+02 -0.74590120264E+02  0.67161188432E+02  0.11002631051E+03  0.00000000000E+00 0. -1.
         22    1    1    2    0    0 -0.24065776999E+03  0.24003568532E+03 -0.20465163854E+03  0.39675633031E+03  0.00000000000E+00 0. -1.
<mgrwt>
<rscale>  0 0.76415675E+03</rscale>
<asrwt>0</asrwt>
<pdfrwt beam="1">  1        1 0.65522016E-01 0.76415675E+03</pdfrwt>
<pdfrwt beam="2">  1       -1 0.52734028E-01 0.76415675E+03</pdfrwt>
<totfact> 0.20246959E+02</totfact>
</mgrwt>
</event>
<event>
 6    1  0.9562506E-007  0.1520768E+04  0.7818608E-02  0.8870759E-01
         -2   -1    0    0    0  501 -0.00000000000E+00  0.00000000000E+00  0.14279754503E+03  0.14279754503E+03  0.00000000000E+00 0.  1.
          2   -1    0    0  501    0  0.00000000000E+00 -0.00000000000E+00 -0.40489769592E+04  0.40489769592E+04  0.00000000000E+00 0. -1.
         23    2    1    2    0    0  0.54020335031E+03  0.52765002338E+03 -0.17875262945E+04  0.19425690338E+04  0.89944374913E+02 0.  0.
         13    1    3    3    0    0  0.37390083234E+03  0.41721654334E+03 -0.13513208557E+04  0.14628532160E+04  0.00000000000E+00 0. -1.
        -13    1    3    3    0    0  0.16630251797E+03  0.11043348003E+03 -0.43620543876E+03  0.47971581775E+03  0.00000000000E+00 0.  1.
         22    1    1    2    0    0 -0.54020335031E+03 -0.52765002338E+03 -0.21186531196E+04  0.22492054704E+04  0.00000000000E+00 0. -1.
<mgrwt>
<rscale>  0 0.15207682E+04</rscale>
<asrwt>0</asrwt>
<pdfrwt beam="1">  1        2 0.62291940E+00 0.15207682E+04</pdfrwt>
<pdfrwt beam="2">  1       -2 0.21968858E-01 0.15207682E+04</pdfrwt>
<totfact> 0.55804869E+00</totfact>
</mgrwt>
</event>
<event>
 6    1  0.9562506E-007  0.2438139E+04  0.7818608E-02  0.8425361E-01
          2   -1    0    0  501    0  0.00000000000E+00  0.00000000000E+00  0.21084317764E+04  0.21084317764E+04  0.00000000000E+00 0. -1.
         -2   -1    0    0    0  501 -0.00000000000E+00 -0.00000000000E+00 -0.70485135163E+03  0.70485135163E+03  0.00000000000E+00 0.  1.
         23    2    1    2    0    0 -0.10132199264E+04 -0.23478583724E+03  0.14327246799E+04  0.17728080460E+04  0.91702514870E+02 0.  0.
         13    1    3    3    0    0 -0.13959944519E+03 -0.64504450927E+02  0.19732593139E+03  0.25017264536E+03  0.00000000000E+00 0.  1.
        -13    1    3    3    0    0 -0.87362048121E+03 -0.17028138631E+03  0.12353987485E+04  0.15226354007E+04  0.00000000000E+00 0. -1.
         22    1    1    2    0    0  0.10132199264E+04  0.23478583724E+03 -0.29144255093E+02  0.10404750820E+04  0.00000000000E+00 0.  1.
<mgrwt>
<rscale>  0 0.24381394E+04</rscale>
<asrwt>0</asrwt>
<pdfrwt beam="1">  1        2 0.32437412E+00 0.24381394E+04</pdfrwt>
<pdfrwt beam="2">  1       -2 0.10843867E+00 0.24381394E+04</pdfrwt>
<totfact> 0.35435487E+00</totfact>
</mgrwt>
</event>
<event>
 6    1  0.9562506E-007  0.1413855E+04  0.7818608E-02  0.8943850E-01
          2   -1    0    0  501    0  0.00000000000E+00  0.00000000000E+00  0.23736457889E+03  0.23736457889E+03  0.00000000000E+00 0. -1.
         -2   -1    0    0    0  501 -0.00000000000E+00 -0.00000000000E+00 -0.21053954166E+04  0.21053954166E+04  0.00000000000E+00 0.  1.
         23    2    1    2    0    0 -0.23538838838E+03 -0.64002561994E+03 -0.12277447776E+04  0.14073420534E+04  0.90630728031E+02 0.  0.
         11    1    3    3    0    0 -0.62057567453E+02 -0.23544429418E+03 -0.36418615586E+03  0.43808299837E+03  0.00000000000E+00 0.  1.
        -11    1    3    3    0    0 -0.17333082093E+03 -0.40458132576E+03 -0.86355862171E+03  0.96925905504E+03  0.00000000000E+00 0. -1.
         22    1    1    2    0    0  0.23538838838E+03  0.64002561994E+03 -0.64028606016E+03  0.93541794209E+03  0.00000000000E+00 0. -1.
<mgrwt>
<rscale>  0 0.14138547E+04</rscale>
<asrwt>0</asrwt>
<pdfrwt beam="1">  1        2 0.36517627E-01 0.14138547E+04</pdfrwt>
<pdfrwt beam="2">  1       -2 0.32390699E+00 0.14138547E+04</pdfrwt>
<totfact> 0.31623485E+00</totfact>
</mgrwt>
</event>
<event>
 6    1  0.9562506E-007  0.2582694E+04  0.7818608E-02  0.8374103E-01
         -1   -1    0    0    0  501 -0.00000000000E+00  0.00000000000E+00  0.10740011846E+04  0.10740011846E+04  0.00000000000E+00 0.  1.
          1   -1    0    0  501    0  0.00000000000E+00 -0.00000000000E+00 -0.15526771843E+04  0.15526771843E+04  0.00000000000E+00 0. -1.
         23    2    1    2    0    0  0.41891672506E+03 -0.11536424610E+04 -0.64270050683E+03  0.13884190305E+04  0.90891762192E+02 0.  0.
         11    1    3    3    0    0  0.30010250159E+03 -0.72691282928E+03 -0.38004280758E+03  0.87343935589E+03  0.00000000000E+00 0. -1.
        -11    1    3    3    0    0  0.11881422346E+03 -0.42672963170E+03 -0.26265769925E+03  0.51497967460E+03  0.00000000000E+00 0.  1.
         22    1    1    2    0    0 -0.41891672506E+03  0.11536424610E+04  0.16402450708E+03  0.12382593384E+04  0.00000000000E+00 0. -1.
<mgrwt>
<rscale>  0 0.25826940E+04</rscale>
<asrwt>0</asrwt>
<pdfrwt beam="1">  1        1 0.23887341E+00 0.25826940E+04</pdfrwt>
<pdfrwt beam="2">  1       -1 0.16523095E+00 0.25826940E+04</pdfrwt>
<totfact> 0.14162578E+00</totfact>
</mgrwt>
</event>
<event>
 6    1  0.9562506E-007  0.2545853E+04  0.7818608E-02  0.8386830E-01
         -2   -1    0    0    0  501 -0.00000000000E+00  0.00000000000E+00  0.20836872763E+04  0.20836872763E+04  0.00000000000E+00 0.  1.
          2   -1    0    0  501    0  0.00000000000E+00 -0.00000000000E+00 -0.77763191627E+03  0.77763191627E+03  0.00000000000E+00 0. -1.
         23    2    1    2    0    0  0.63785913624E+03 -0.10961638571E+04  0.75263053677E+03  0.14775856510E+04  0.91472137042E+02 0.  0.
         13    1    3    3    0    0  0.28954227864E+03 -0.48860942283E+03  0.28464437264E+03  0.63529230916E+03  0.00000000000E+00 0.  1.
        -13    1    3    3    0    0  0.34831685760E+03 -0.60755443423E+03  0.46798616413E+03  0.84229334181E+03  0.00000000000E+00 0. -1.
         22    1    1    2    0    0 -0.63785913624E+03  0.10961638571E+04  0.55342482330E+03  0.13837335416E+04  0.00000000000E+00 0. -1.
<mgrwt>
<rscale>  0 0.25458529E+04</rscale>
<asrwt>0</asrwt>
<pdfrwt beam="1">  1        2 0.11963568E+00 0.25458529E+04</pdfrwt>
<pdfrwt beam="2">  1       -2 0.32056727E+00 0.25458529E+04</pdfrwt>
<totfact> 0.75499621E-01</totfact>
</mgrwt>
</event>
<event>
 6    1  0.9562506E-007  0.1694951E+04  0.7818608E-02  0.8764249E-01
          2   -1    0    0  501    0  0.00000000000E+00  0.00000000000E+00  0.11116427240E+04  0.11116427240E+04  0.00000000000E+00 0. -1.
         -2   -1    0    0    0  501 -0.00000000000E+00 -0.00000000000E+00 -0.64608405613E+03  0.64608405613E+03  0.00000000000E+00 0.  1.
         23    2    1    2    0    0  0.30057283512E+03  0.57780486192E+03 -0.32468344135E+03  0.73367352035E+03  0.93032304624E+02 0.  0.
         13    1    3    3    0    0  0.30117867321E+03  0.53105834110E+03 -0.30972502478E+03  0.68458830390E+03  0.00000000000E+00 0.  1.
        -13    1    3    3    0    0 -0.60583808928E+00  0.46746520816E+02 -0.14958416568E+02  0.49085216454E+02  0.00000000000E+00 0. -1.
         22    1    1    2    0    0 -0.30057283512E+03 -0.57780486192E+03  0.79024210923E+03  0.10240532598E+04  0.00000000000E+00 0. -1.
<mgrwt>
<rscale>  0 0.16949509E+04</rscale>
<asrwt>0</asrwt>
<pdfrwt beam="1">  1        2 0.17102196E+00 0.16949509E+04</pdfrwt>
<pdfrwt beam="2">  1       -2 0.99397547E-01 0.16949509E+04</pdfrwt>
<totfact> 0.17095541E+01</totfact>
</mgrwt>
</event>
<event>
 6    1  0.9562506E-007  0.1111099E+04  0.7818608E-02  0.9194441E-01
          4   -1    0    0  501    0  0.00000000000E+00  0.00000000000E+00  0.20329508575E+04  0.20329508575E+04  0.00000000000E+00 0. -1.
         -4   -1    0    0    0  501 -0.00000000000E+00 -0.00000000000E+00 -0.15181628029E+03  0.15181628029E+03  0.00000000000E+00 0.  1.
         23    2    1    2    0    0 -0.28248659281E+03  0.23298230178E+03  0.17587020036E+04  0.17986723785E+04  0.90056425599E+02 0.  0.
         11    1    3    3    0    0 -0.25535944000E+03  0.21554744251E+03  0.16907493291E+04  0.17234565377E+04  0.00000000000E+00 0.  1.
        -11    1    3    3    0    0 -0.27127152804E+02  0.17434859270E+02  0.67952674439E+02  0.75215840754E+02  0.00000000000E+00 0. -1.
         22    1    1    2    0    0  0.28248659281E+03 -0.23298230178E+03  0.12243257363E+03  0.38609475928E+03  0.00000000000E+00 0.  1.
<mgrwt>
<rscale>  0 0.11110986E+04</rscale>
<asrwt>0</asrwt>
<pdfrwt beam="1">  1        4 0.31276165E+00 0.11110986E+04</pdfrwt>
<pdfrwt beam="2">  1       -4 0.23356352E-01 0.11110986E+04</pdfrwt>
<totfact> 0.89649929E-01</totfact>
</mgrwt>
</event>
<event>
 6    1  0.9562506E-007  0.3735908E+04  0.7818608E-02  0.8060050E-01
         -1   -1    0    0    0  501 -0.00000000000E+00  0.00000000000E+00  0.18931045619E+04  0.18931045619E+04  0.00000000000E+00 0.  1.
          1   -1    0    0  501    0  0.00000000000E+00 -0.00000000000E+00 -0.18431378830E+04  0.18431378830E+04  0.00000000000E+00 0. -1.
         23    2    1    2    0    0  0.99185756827E+03 -0.51640896427E+03  0.15206463987E+04  0.18887147746E+04  0.66470865172E+02 0.  0.
         11    1    3    3    0    0  0.24215295555E+03 -0.10566462923E+03  0.32332447073E+03  0.41754255008E+03  0.00000000000E+00 0. -1.
        -11    1    3    3    0    0  0.74970461272E+03 -0.41074433504E+03  0.11973219279E+04  0.14711722245E+04  0.00000000000E+00 0.  1.
         22    1    1    2    0    0 -0.99185756827E+03  0.51640896427E+03 -0.14706797198E+04  0.18475276703E+04  0.00000000000E+00 0. -1.
<mgrwt>
<rscale>  0 0.37359083E+04</rscale>
<asrwt>0</asrwt>
<pdfrwt beam="1">  1        1 0.28355967E+00 0.37359083E+04</pdfrwt>
<pdfrwt beam="2">  1       -1 0.29124686E+00 0.37359083E+04</pdfrwt>
<totfact> 0.11463525E-01</totfact>
</mgrwt>
</event>
<event>
 6    1  0.9562506E-007  0.1969923E+04  0.7818608E-02  0.8620813E-01
          1   -1    0    0  501    0  0.00000000000E+00  0.00000000000E+00  0.77744576342E+03  0.77744576342E+03  0.00000000000E+00 0. -1.
         -1   -1    0    0    0  501 -0.00000000000E+00 -0.00000000000E+00 -0.12478670440E+04  0.12478670440E+04  0.00000000000E+00 0.  1.
         23    2    1    2    0    0  0.58595926040E+03  0.21575085528E+03 -0.10162451737E+04  0.11959634187E+04  0.87621683378E+02 0.  0.
         11    1    3    3    0    0  0.15401052466E+03  0.47716151221E+02 -0.33794131431E+03  0.37443344497E+03  0.00000000000E+00 0. -1.
        -11    1    3    3    0    0  0.43194873574E+03  0.16803470406E+03 -0.67830385938E+03  0.82152997372E+03  0.00000000000E+00 0.  1.
         22    1    1    2    0    0 -0.58595926040E+03 -0.21575085528E+03  0.54582389307E+03  0.82934938877E+03  0.00000000000E+00 0. -1.
<mgrwt>
<rscale>  0 0.19699228E+04</rscale>
<asrwt>0</asrwt>
<pdfrwt beam="1">  1        1 0.11960704E+00 0.19699228E+04</pdfrwt>
<pdfrwt beam="2">  1       -1 0.19197954E+00 0.19699228E+04</pdfrwt>
<totfact> 0.36834010E+00</totfact>
</mgrwt>
</event>
<event>
 6    1  0.9562506E-007  0.3435552E+04  0.7818608E-02  0.8129235E-01
         -2   -1    0    0    0  501 -0.00000000000E+00  0.00000000000E+00  0.14150899774E+04  0.14150899774E+04  0.00000000000E+00 0.  1.
          2   -1    0    0  501    0  0.00000000000E+00 -0.00000000000E+00 -0.20852060762E+04  0.20852060762E+04  0.00000000000E+00 0. -1.
         23    2    1    2    0    0 -0.16836025320E+04 -0.42533301256E+02  0.39189861236E+01  0.16862812071E+04  0.84866856533E+02 0.  0.
         13    1    3    3    0    0 -0.17343530683E+03  0.12607068524E+02 -0.19048738446E+02  0.17493312513E+03  0.00000000000E+00 0. -1.
        -13    1    3    3    0    0 -0.15101672252E+04 -0.55140369780E+02  0.22967724569E+02  0.15113480819E+04  0.00000000000E+00 0.  1.
         22    1    1    2    0    0  0.16836025320E+04  0.42533301256E+02 -0.67403508489E+03  0.18140148465E+04  0.00000000000E+00 0.  1.
<mgrwt>
<rscale>  0 0.34355519E+04</rscale>
<asrwt>0</asrwt>
<pdfrwt beam="1">  1        2 0.32080093E+00 0.34355519E+04</pdfrwt>
<pdfrwt beam="2">  1       -2 0.21770615E+00 0.34355519E+04</pdfrwt>
<totfact> 0.50564838E-01</totfact>
</mgrwt>
</event>
<event>
 6    1  0.9562506E-007  0.4145142E+04  0.7818608E-02  0.7975890E-01
         -1   -1    0    0    0  501 -0.00000000000E+00  0.00000000000E+00  0.16860554651E+04  0.16860554651E+04  0.00000000000E+00 0.  1.
          1   -1    0    0  501    0  0.00000000000E+00 -0.00000000000E+00 -0.25476919501E+04  0.25476919501E+04  0.00000000000E+00 0. -1.
         23    2    1    2    0    0 -0.13705065190E+04 -0.12835447042E+04  0.46374227605E+03  0.19353993157E+04  0.70274363886E+02 0.  0.
         13    1    3    3    0    0 -0.88997825769E+03 -0.79581596883E+03  0.31495749633E+03  0.12347398835E+04  0.00000000000E+00 0.  1.
        -13    1    3    3    0    0 -0.48052826133E+03 -0.48772873538E+03  0.14878477972E+03  0.70065943219E+03  0.00000000000E+00 0. -1.
         22    1    1    2    0    0  0.13705065190E+04  0.12835447042E+04 -0.13253787611E+04  0.22983480995E+04  0.00000000000E+00 0. -1.
<mgrwt>
<rscale>  0 0.41451417E+04</rscale>
<asrwt>0</asrwt>
<pdfrwt beam="1">  1        1 0.39195261E+00 0.41451417E+04</pdfrwt>
<pdfrwt beam="2">  1       -1 0.25939315E+00 0.41451417E+04</pdfrwt>
<totfact> 0.58778853E-02</totfact>
</mgrwt>
</event>
<event>
 6    1  0.9562506E-007  0.2078727E+04  0.7818608E-02  0.8570673E-01
          2   -1    0    0  501    0  0.00000000000E+00  0.00000000000E+00  0.18083205743E+04  0.18083205743E+04  0.00000000000E+00 0. -1.
         -2   -1    0    0    0  501 -0.00000000000E+00 -0.00000000000E+00 -0.59739215920E+03  0.59739215920E+03  0.00000000000E+00 0.  1.
         23    2    1    2    0    0 -0.25376339197E+03 -0.14756220827E+03 -0.54459842663E+03  0.62581246763E+03  0.94251439950E+02 0.  0.
         11    1    3    3    0    0 -0.45423333671E+02 -0.20886286376E+02 -0.35440727131E+02  0.61282634898E+02  0.00000000000E+00 0. -1.
        -11    1    3    3    0    0 -0.20834005830E+03 -0.12667592189E+03 -0.50915769950E+03  0.56452983273E+03  0.00000000000E+00 0.  1.
         22    1    1    2    0    0  0.25376339197E+03  0.14756220827E+03  0.17555268418E+04  0.17799002659E+04  0.00000000000E+00 0. -1.
<mgrwt>
<rscale>  0 0.20787270E+04</rscale>
<asrwt>0</asrwt>
<pdfrwt beam="1">  1        2 0.27820316E+00 0.20787270E+04</pdfrwt>
<pdfrwt beam="2">  1       -2 0.91906487E-01 0.20787270E+04</pdfrwt>
<totfact> 0.79342943E+00</totfact>
</mgrwt>
</event>
<event>
 6    1  0.9562506E-007  0.4053573E+03  0.7818608E-02  0.1041940E+00
         -1   -1    0    0    0  501 -0.00000000000E+00  0.00000000000E+00  0.46054078605E+03  0.46054078605E+03  0.00000000000E+00 0.  1.
          1   -1    0    0  501    0  0.00000000000E+00 -0.00000000000E+00 -0.89196511649E+02  0.89196511649E+02  0.00000000000E+00 0. -1.
         23    2    1    2    0    0 -0.13000223595E+02 -0.95588094181E+02  0.42077809347E+03  0.44134084004E+03  0.91768423652E+02 0.  0.
         11    1    3    3    0    0 -0.33913776169E+02 -0.73799301789E+02  0.16626361945E+03  0.18504073149E+03  0.00000000000E+00 0. -1.
        -11    1    3    3    0    0  0.20913552574E+02 -0.21788792392E+02  0.25451447403E+03  0.25630010856E+03  0.00000000000E+00 0.  1.
         22    1    1    2    0    0  0.13000223595E+02  0.95588094181E+02 -0.49433819077E+02  0.10839645765E+03  0.00000000000E+00 0. -1.
<mgrwt>
<rscale>  0 0.40535728E+03</rscale>
<asrwt>0</asrwt>
<pdfrwt beam="1">  1        1 0.13722541E-01 0.40535728E+03</pdfrwt>
<pdfrwt beam="2">  1       -1 0.70852427E-01 0.40535728E+03</pdfrwt>
<totfact> 0.88041295E+02</totfact>
</mgrwt>
</event>
<event>
 6    1  0.9562506E-007  0.3770711E+03  0.7818608E-02  0.1052022E+00
         -1   -1    0    0    0  501 -0.00000000000E+00  0.00000000000E+00  0.80279227688E+02  0.80279227688E+02  0.00000000000E+00 0.  1.
          1   -1    0    0  501    0  0.00000000000E+00 -0.00000000000E+00 -0.44277525365E+03  0.44277525365E+03  0.00000000000E+00 0. -1.
         23    2    1    2    0    0  0.10374726378E+03 -0.34469245409E+02 -0.38574677642E+03  0.41128587654E+03  0.91672640951E+02 0.  0.
         13    1    3    3    0    0  0.44941933172E+02  0.28273126258E+02 -0.19409309735E+03  0.20122444549E+03  0.00000000000E+00 0.  1.
        -13    1    3    3    0    0  0.58805330606E+02 -0.62742371667E+02 -0.19165367907E+03  0.21006143104E+03  0.00000000000E+00 0. -1.
         22    1    1    2    0    0 -0.10374726378E+03  0.34469245409E+02  0.23250750466E+02  0.11176860479E+03  0.00000000000E+00 0.  1.
<mgrwt>
<rscale>  0 0.37707111E+03</rscale>
<asrwt>0</asrwt>
<pdfrwt beam="1">  1        1 0.68119269E-01 0.37707111E+03</pdfrwt>
<pdfrwt beam="2">  1       -1 0.12350651E-01 0.37707111E+03</pdfrwt>
<totfact> 0.23321732E+03</totfact>
</mgrwt>
</event>
<event>
 6    1  0.9562506E-007  0.2218601E+04  0.7818608E-02  0.8510726E-01
         -1   -1    0    0    0  501 -0.00000000000E+00  0.00000000000E+00  0.65303529985E+03  0.65303529985E+03  0.00000000000E+00 0.  1.
          1   -1    0    0  501    0  0.00000000000E+00 -0.00000000000E+00 -0.18843501696E+04  0.18843501696E+04  0.00000000000E+00 0. -1.
         23    2    1    2    0    0  0.26668613488E+03  0.98986549832E+03 -0.10959140595E+04  0.15033213618E+04  0.89399618851E+02 0.  0.
         13    1    3    3    0    0  0.14800571755E+03  0.38154110636E+03 -0.43997001421E+03  0.60087679409E+03  0.00000000000E+00 0. -1.
        -13    1    3    3    0    0  0.11868041733E+03  0.60832439196E+03 -0.65594404529E+03  0.90244456775E+03  0.00000000000E+00 0.  1.
         22    1    1    2    0    0 -0.26668613488E+03 -0.98986549832E+03 -0.13540081029E+03  0.10340641077E+04  0.00000000000E+00 0.  1.
<mgrwt>
<rscale>  0 0.22186006E+04</rscale>
<asrwt>0</asrwt>
<pdfrwt beam="1">  1        1 0.28990003E+00 0.22186006E+04</pdfrwt>
<pdfrwt beam="2">  1       -1 0.10046697E+00 0.22186006E+04</pdfrwt>
<totfact> 0.30641443E+00</totfact>
</mgrwt>
</event>
<event>
 6    1  0.9562506E-007  0.1598386E+04  0.7818608E-02  0.8821540E-01
          2   -1    0    0  501    0  0.00000000000E+00  0.00000000000E+00  0.17144084349E+04  0.17144084349E+04  0.00000000000E+00 0. -1.
         -2   -1    0    0    0  501 -0.00000000000E+00 -0.00000000000E+00 -0.37255396340E+03  0.37255396340E+03  0.00000000000E+00 0.  1.
         23    2    1    2    0    0  0.77591671897E+03  0.79147600160E+02  0.88444715320E+03  0.11827873311E+04  0.91804174055E+02 0.  0.
         11    1    3    3    0    0  0.63853858551E+03  0.38410785369E+02  0.75629575922E+03  0.99055044749E+03  0.00000000000E+00 0. -1.
        -11    1    3    3    0    0  0.13737813346E+03  0.40736814791E+02  0.12815139399E+03  0.19223688359E+03  0.00000000000E+00 0.  1.
         22    1    1    2    0    0 -0.77591671897E+03 -0.79147600160E+02  0.45740731834E+03  0.90417506726E+03  0.00000000000E+00 0.  1.
<mgrwt>
<rscale>  0 0.15983863E+04</rscale>
<asrwt>0</asrwt>
<pdfrwt beam="1">  1        2 0.26375514E+00 0.15983863E+04</pdfrwt>
<pdfrwt beam="2">  1       -2 0.57315995E-01 0.15983863E+04</pdfrwt>
<totfact> 0.26331825E+01</totfact>
</mgrwt>
</event>
<event>
 6    1  0.9562506E-007  0.3950534E+04  0.7818608E-02  0.8014600E-01
          1   -1    0    0  501    0  0.00000000000E+00  0.00000000000E+00  0.45112351600E+04  0.45112351600E+04  0.00000000000E+00 0. -1.
         -1   -1    0    0    0  501 -0.00000000000E+00 -0.00000000000E+00 -0.86488050112E+03  0.86488050112E+03  0.00000000000E+00 0.  1.
         23    2    1    2    0    0  0.15488320043E+04  0.24801569759E+03  0.34554855224E+04  0.37959816823E+04  0.93297226058E+02 0.  0.
         11    1    3    3    0    0  0.40894840405E+03  0.24710445122E+02  0.91903911036E+03  0.10062217895E+04  0.00000000000E+00 0. -1.
        -11    1    3    3    0    0  0.11398836003E+04  0.22330525247E+03  0.25364464121E+04  0.27897598928E+04  0.00000000000E+00 0.  1.
         22    1    1    2    0    0 -0.15488320043E+04 -0.24801569759E+03  0.19086913644E+03  0.15801339789E+04  0.00000000000E+00 0.  1.
<mgrwt>
<rscale>  0 0.39505338E+04</rscale>
<asrwt>0</asrwt>
<pdfrwt beam="1">  1        1 0.69403616E+00 0.39505338E+04</pdfrwt>
<pdfrwt beam="2">  1       -1 0.13305854E+00 0.39505338E+04</pdfrwt>
<totfact> 0.11714159E-02</totfact>
</mgrwt>
</event>
<event>
 6    1  0.9562506E-007  0.2242734E+04  0.7818608E-02  0.8500849E-01
          2   -1    0    0  501    0  0.00000000000E+00  0.00000000000E+00  0.18622190875E+04  0.18622190875E+04  0.00000000000E+00 0. -1.
         -2   -1    0    0    0  501 -0.00000000000E+00 -0.00000000000E+00 -0.67525038061E+03  0.67525038061E+03  0.00000000000E+00 0.  1.
         23    2    1    2    0    0  0.26551670555E+03 -0.26356012467E+03  0.17882360947E+04  0.18293130362E+04  0.92923590865E+02 0.  0.
         13    1    3    3    0    0  0.15841452839E+03 -0.21650460451E+03  0.12738388120E+04  0.13017813663E+04  0.00000000000E+00 0.  1.
        -13    1    3    3    0    0  0.10710217716E+03 -0.47055520155E+02  0.51439728275E+03  0.52753166997E+03  0.00000000000E+00 0. -1.
         22    1    1    2    0    0 -0.26551670555E+03  0.26356012467E+03 -0.60126738788E+03  0.70815643185E+03  0.00000000000E+00 0.  1.
<mgrwt>
<rscale>  0 0.22427342E+04</rscale>
<asrwt>0</asrwt>
<pdfrwt beam="1">  1        2 0.28649524E+00 0.22427342E+04</pdfrwt>
<pdfrwt beam="2">  1       -2 0.10388467E+00 0.22427342E+04</pdfrwt>
<totfact> 0.54742737E+00</totfact>
</mgrwt>
</event>
<event>
 6    1  0.9562506E-007  0.1806893E+04  0.7818608E-02  0.8702642E-01
         -2   -1    0    0    0  501 -0.00000000000E+00  0.00000000000E+00  0.81117656582E+03  0.81117656582E+03  0.00000000000E+00 0.  1.
          2   -1    0    0  501    0  0.00000000000E+00 -0.00000000000E+00 -0.10062120680E+04  0.10062120680E+04  0.00000000000E+00 0. -1.
         23    2    1    2    0    0 -0.65597364659E+03 -0.57731499554E+03 -0.31910962701E+03  0.93478542874E+03  0.91645046950E+02 0.  0.
         13    1    3    3    0    0 -0.86916979060E+02 -0.48434223953E+02 -0.15563686101E+02  0.10071079199E+03  0.00000000000E+00 0.  1.
        -13    1    3    3    0    0 -0.56905666753E+03 -0.52888077159E+03 -0.30354594091E+03  0.83407463675E+03  0.00000000000E+00 0. -1.
         22    1    1    2    0    0  0.65597364659E+03  0.57731499554E+03  0.12407412487E+03  0.88260320505E+03  0.00000000000E+00 0.  1.
<mgrwt>
<rscale>  0 0.18068931E+04</rscale>
<asrwt>0</asrwt>
<pdfrwt beam="1">  1        2 0.15480186E+00 0.18068931E+04</pdfrwt>
<pdfrwt beam="2">  1       -2 0.12479640E+00 0.18068931E+04</pdfrwt>
<totfact> 0.11338147E+01</totfact>
</mgrwt>
</event>
<event>
 6    1  0.9562506E-007  0.8058937E+03  0.7818608E-02  0.9551525E-01
          2   -1    0    0  501    0  0.00000000000E+00  0.00000000000E+00  0.35577140729E+02  0.35577140729E+02  0.00000000000E+00 0. -1.
         -2   -1    0    0    0  501 -0.00000000000E+00 -0.00000000000E+00 -0.45637778338E+04  0.45637778338E+04  0.00000000000E+00 0.  1.
         23    2    1    2    0    0 -0.22017833451E+03 -0.31432558366E+03 -0.28242778782E+04  0.28527491144E+04  0.11980361012E+03 0.  0.
         11    1    3    3    0    0 -0.11664667059E+03 -0.68620542637E+02 -0.92512719106E+03  0.93497355271E+03  0.00000000000E+00 0.  1.
        -11    1    3    3    0    0 -0.10353166393E+03 -0.24570504103E+03 -0.18991506871E+04  0.19177755617E+04  0.00000000000E+00 0. -1.
         22    1    1    2    0    0  0.22017833451E+03  0.31432558366E+03 -0.17039228149E+04  0.17466058602E+04  0.00000000000E+00 0.  1.
<mgrwt>
<rscale>  0 0.80589371E+03</rscale>
<asrwt>0</asrwt>
<pdfrwt beam="1">  1        2 0.54734078E-02 0.80589371E+03</pdfrwt>
<pdfrwt beam="2">  1       -2 0.70211947E+00 0.80589371E+03</pdfrwt>
<totfact> 0.34710435E-01</totfact>
</mgrwt>
</event>
<event>
 6    1  0.9562506E-007  0.4895425E+03  0.7818608E-02  0.1016545E+00
          2   -1    0    0  501    0  0.00000000000E+00  0.00000000000E+00  0.39535508475E+03  0.39535508475E+03  0.00000000000E+00 0. -1.
         -2   -1    0    0    0  501 -0.00000000000E+00 -0.00000000000E+00 -0.15154214429E+03  0.15154214429E+03  0.00000000000E+00 0.  1.
         23    2    1    2    0    0 -0.18279079173E+03 -0.10544576276E+03  0.65508954394E+01  0.22936839502E+03  0.89641865098E+02 0.  0.
         13    1    3    3    0    0 -0.12869673713E+02 -0.19083896901E+02  0.29462420506E+02  0.37387937152E+02  0.00000000000E+00 0.  1.
        -13    1    3    3    0    0 -0.16992111801E+03 -0.86361865863E+02 -0.22911525067E+02  0.19198045787E+03  0.00000000000E+00 0. -1.
         22    1    1    2    0    0  0.18279079173E+03  0.10544576276E+03  0.23726204502E+03  0.31752883402E+03  0.00000000000E+00 0.  1.
<mgrwt>
<rscale>  0 0.48954247E+03</rscale>
<asrwt>0</asrwt>
<pdfrwt beam="1">  1        2 0.60823859E-01 0.48954247E+03</pdfrwt>
<pdfrwt beam="2">  1       -2 0.23314176E-01 0.48954247E+03</pdfrwt>
<totfact> 0.13085174E+03</totfact>
</mgrwt>
</event>
<event>
 6    1  0.9562506E-007  0.2986855E+04  0.7818608E-02  0.8247494E-01
         -1   -1    0    0    0  501 -0.00000000000E+00  0.00000000000E+00  0.11167575325E+04  0.11167575325E+04  0.00000000000E+00 0.  1.
          1   -1    0    0  501    0  0.00000000000E+00 -0.00000000000E+00 -0.19971442061E+04  0.19971442061E+04  0.00000000000E+00 0. -1.
         23    2    1    2    0    0  0.71869959144E+03 -0.11413017675E+04 -0.11057490123E+04  0.17464636190E+04  0.91408244112E+02 0.  0.
         13    1    3    3    0    0  0.42564112712E+03 -0.72534603638E+03 -0.64251019858E+03  0.10583556098E+04  0.00000000000E+00 0. -1.
        -13    1    3    3    0    0  0.29305846432E+03 -0.41595573116E+03 -0.46323881368E+03  0.68810800917E+03  0.00000000000E+00 0.  1.
         22    1    1    2    0    0 -0.71869959144E+03  0.11413017675E+04  0.22536233863E+03  0.13674381196E+04  0.00000000000E+00 0.  1.
<mgrwt>
<rscale>  0 0.29868551E+04</rscale>
<asrwt>0</asrwt>
<pdfrwt beam="1">  1        1 0.30725295E+00 0.29868551E+04</pdfrwt>
<pdfrwt beam="2">  1       -1 0.17180885E+00 0.29868551E+04</pdfrwt>
<totfact> 0.60863857E-01</totfact>
</mgrwt>
</event>
<event>
 6    1  0.9562506E-007  0.2677399E+04  0.7818608E-02  0.8342376E-01
          2   -1    0    0  501    0  0.00000000000E+00  0.00000000000E+00  0.86564704351E+03  0.86564704351E+03  0.00000000000E+00 0. -1.
         -2   -1    0    0    0  501 -0.00000000000E+00 -0.00000000000E+00 -0.20702624457E+04  0.20702624457E+04  0.00000000000E+00 0.  1.
         23    2    1    2    0    0  0.92948801823E+03 -0.47354892060E+03 -0.15203076103E+04  0.18460204461E+04  0.90882898180E+02 0.  0.
         13    1    3    3    0    0  0.75937772665E+03 -0.34678589851E+03 -0.12249470019E+04  0.14823664016E+04  0.00000000000E+00 0. -1.
        -13    1    3    3    0    0  0.17011029158E+03 -0.12676302209E+03 -0.29536060833E+03  0.36365404443E+03  0.00000000000E+00 0.  1.
         22    1    1    2    0    0 -0.92948801823E+03  0.47354892060E+03  0.31569220805E+03  0.10898890432E+04  0.00000000000E+00 0. -1.
<mgrwt>
<rscale>  0 0.26773992E+04</rscale>
<asrwt>0</asrwt>
<pdfrwt beam="1">  1        2 0.13317647E+00 0.26773992E+04</pdfrwt>
<pdfrwt beam="2">  1       -2 0.31850191E+00 0.26773992E+04</pdfrwt>
<totfact> 0.66550585E-01</totfact>
</mgrwt>
</event>
<event>
 6    1  0.9562506E-007  0.1271691E+04  0.7818608E-02  0.9052321E-01
          2   -1    0    0  501    0  0.00000000000E+00  0.00000000000E+00  0.11397228711E+04  0.11397228711E+04  0.00000000000E+00 0. -1.
         -2   -1    0    0    0  501 -0.00000000000E+00 -0.00000000000E+00 -0.35473472277E+03  0.35473472277E+03  0.00000000000E+00 0.  1.
         23    2    1    2    0    0 -0.14485255017E+02  0.59170894021E+03  0.65740176144E+03  0.88897631533E+03  0.88161900643E+02 0.  0.
         11    1    3    3    0    0  0.64585308153E+01  0.10341861089E+03  0.16758260818E+03  0.19703058712E+03  0.00000000000E+00 0. -1.
        -11    1    3    3    0    0 -0.20943785833E+02  0.48829032932E+03  0.48981915327E+03  0.69194572820E+03  0.00000000000E+00 0.  1.
         22    1    1    2    0    0  0.14485255017E+02 -0.59170894021E+03  0.12758638687E+03  0.60548127853E+03  0.00000000000E+00 0. -1.
<mgrwt>
<rscale>  0 0.12716906E+04</rscale>
<asrwt>0</asrwt>
<pdfrwt beam="1">  1        2 0.17534198E+00 0.12716906E+04</pdfrwt>
<pdfrwt beam="2">  1       -2 0.54574573E-01 0.12716906E+04</pdfrwt>
<totfact> 0.63904467E+01</totfact>
</mgrwt>
</event>
<event>
 6    1  0.9562506E-007  0.1530793E+04  0.7818608E-02  0.8864230E-01
         -2   -1    0    0    0  501 -0.00000000000E+00  0.00000000000E+00  0.36075727205E+03  0.36075727205E+03  0.00000000000E+00 0.  1.
          2   -1    0    0  501    0  0.00000000000E+00 -0.00000000000E+00 -0.16238941166E+04  0.16238941166E+04  0.00000000000E+00 0. -1.
         23    2    1    2    0    0  0.72884910832E+02  0.43521515100E+03  0.17285339398E+03  0.48238896049E+03  0.89979861658E+02 0.  0.
         13    1    3    3    0    0  0.70510281583E+02  0.41778850466E+03  0.14197134859E+03  0.44684986098E+03  0.00000000000E+00 0.  1.
        -13    1    3    3    0    0  0.23746292484E+01  0.17426646339E+02  0.30882045386E+02  0.35539099508E+02  0.00000000000E+00 0. -1.
         22    1    1    2    0    0 -0.72884910832E+02 -0.43521515100E+03 -0.14359902386E+04  0.15022624282E+04  0.00000000000E+00 0. -1.
<mgrwt>
<rscale>  0 0.15307928E+04</rscale>
<asrwt>0</asrwt>
<pdfrwt beam="1">  1        2 0.24982987E+00 0.15307928E+04</pdfrwt>
<pdfrwt beam="2">  1       -2 0.55501118E-01 0.15307928E+04</pdfrwt>
<totfact> 0.31796956E+01</totfact>
</mgrwt>
</event>
<event>
 6    1  0.9562506E-007  0.1372156E+04  0.7818608E-02  0.8974224E-01
         -2   -1    0    0    0  501 -0.00000000000E+00  0.00000000000E+00  0.87561406080E+03  0.87561406080E+03  0.00000000000E+00 0.  1.
          2   -1    0    0  501    0  0.00000000000E+00 -0.00000000000E+00 -0.53756912002E+03  0.53756912002E+03  0.00000000000E+00 0. -1.
         23    2    1    2    0    0  0.95604877215E+02  0.61295517866E+03 -0.12417870157E+03  0.63955210651E+03  0.93553211703E+02 0.  0.
         13    1    3    3    0    0  0.15531402737E+02  0.36475494065E+03 -0.50607075647E+02  0.36857627068E+03  0.00000000000E+00 0.  1.
        -13    1    3    3    0    0  0.80073474478E+02  0.24820023801E+03 -0.73571625926E+02  0.27097583583E+03  0.00000000000E+00 0. -1.
         22    1    1    2    0    0 -0.95604877215E+02 -0.61295517866E+03  0.46222364235E+03  0.77363107431E+03  0.00000000000E+00 0.  1.
<mgrwt>
<rscale>  0 0.13721561E+04</rscale>
<asrwt>0</asrwt>
<pdfrwt beam="1">  1        2 0.82702941E-01 0.13721561E+04</pdfrwt>
<pdfrwt beam="2">  1       -2 0.13470986E+00 0.13721561E+04</pdfrwt>
<totfact> 0.21869612E+01</totfact>
</mgrwt>
</event>
<event>
 6    1  0.9562506E-007  0.1938289E+04  0.7818608E-02  0.8636029E-01
         -2   -1    0    0    0  501 -0.00000000000E+00  0.00000000000E+00  0.10870127174E+04  0.10870127174E+04  0.00000000000E+00 0.  1.
          2   -1    0    0  501    0  0.00000000000E+00 -0.00000000000E+00 -0.86405748759E+03  0.86405748759E+03  0.00000000000E+00 0. -1.
         23    2    1    2    0    0  0.25678138177E+03  0.56519686154E+03 -0.63462753787E+03  0.89237649397E+03  0.90551227734E+02 0.  0.
         11    1    3    3    0    0  0.21129450632E+03  0.36281874890E+03 -0.43124060133E+03  0.60187313380E+03  0.00000000000E+00 0. -1.
        -11    1    3    3    0    0  0.45486875454E+02  0.20237811264E+03 -0.20338693653E+03  0.29050336016E+03  0.00000000000E+00 0.  1.
         22    1    1    2    0    0 -0.25678138177E+03 -0.56519686154E+03  0.85758276765E+03  0.10586937110E+04  0.00000000000E+00 0.  1.
<mgrwt>
<rscale>  0 0.19382894E+04</rscale>
<asrwt>0</asrwt>
<pdfrwt beam="1">  1        2 0.13293192E+00 0.19382894E+04</pdfrwt>
<pdfrwt beam="2">  1       -2 0.16723273E+00 0.19382894E+04</pdfrwt>
<totfact> 0.64610825E+00</totfact>
</mgrwt>
</event>
<event>
 6    1  0.9562506E-007  0.3757743E+04  0.7818608E-02  0.8055284E-01
         -2   -1    0    0    0  501 -0.00000000000E+00  0.00000000000E+00  0.12988724414E+04  0.12988724414E+04  0.00000000000E+00 0.  1.
          2   -1    0    0  501    0  0.00000000000E+00 -0.00000000000E+00 -0.27178630661E+04  0.27178630661E+04  0.00000000000E+00 0. -1.
         23    2    1    2    0    0  0.29328871920E+03  0.14174747779E+04  0.56867514532E+03  0.15578601077E+04  0.91014698029E+02 0.  0.
         13    1    3    3    0    0  0.83488924810E+02  0.25705755465E+03  0.12703946067E+03  0.29864361961E+03  0.00000000000E+00 0.  1.
        -13    1    3    3    0    0  0.20979979439E+03  0.11604172233E+04  0.44163568464E+03  0.12592164881E+04  0.00000000000E+00 0. -1.
         22    1    1    2    0    0 -0.29328871920E+03 -0.14174747779E+04 -0.19876657700E+04  0.24588753999E+04  0.00000000000E+00 0. -1.
<mgrwt>
<rscale>  0 0.37577426E+04</rscale>
<asrwt>0</asrwt>
<pdfrwt beam="1">  1        2 0.41813278E+00 0.37577426E+04</pdfrwt>
<pdfrwt beam="2">  1       -2 0.19982653E+00 0.37577426E+04</pdfrwt>
<totfact> 0.27793551E-01</totfact>
</mgrwt>
</event>
<event>
 6    1  0.9562506E-007  0.1765760E+04  0.7818608E-02  0.8724723E-01
         -1   -1    0    0    0  501 -0.00000000000E+00  0.00000000000E+00  0.43849080091E+03  0.43849080091E+03  0.00000000000E+00 0.  1.
          1   -1    0    0  501    0  0.00000000000E+00 -0.00000000000E+00 -0.17776355848E+04  0.17776355848E+04  0.00000000000E+00 0. -1.
         23    2    1    2    0    0  0.69461949718E+03 -0.52404108637E+03 -0.83848264932E+03  0.12122449788E+04  0.96795812888E+02 0.  0.
         13    1    3    3    0    0  0.44387134285E+03 -0.35101473683E+03 -0.60505027862E+03  0.82844369401E+03  0.00000000000E+00 0. -1.
        -13    1    3    3    0    0  0.25074815432E+03 -0.17302634954E+03 -0.23343237069E+03  0.38380128481E+03  0.00000000000E+00 0.  1.
         22    1    1    2    0    0 -0.69461949718E+03  0.52404108637E+03 -0.50066213453E+03  0.10038814069E+04  0.00000000000E+00 0.  1.
<mgrwt>
<rscale>  0 0.17657597E+04</rscale>
<asrwt>0</asrwt>
<pdfrwt beam="1">  1        1 0.27348240E+00 0.17657597E+04</pdfrwt>
<pdfrwt beam="2">  1       -1 0.67460122E-01 0.17657597E+04</pdfrwt>
<totfact> 0.88858620E+00</totfact>
</mgrwt>
</event>
<event>
 6    1  0.9562506E-007  0.1578840E+04  0.7818608E-02  0.8833654E-01
          1   -1    0    0  501    0  0.00000000000E+00  0.00000000000E+00  0.35769078551E+03  0.35769078551E+03  0.00000000000E+00 0. -1.
         -1   -1    0    0    0  501 -0.00000000000E+00 -0.00000000000E+00 -0.17422427897E+04  0.17422427897E+04  0.00000000000E+00 0.  1.
         23    2    1    2    0    0  0.73191885037E+03  0.17010795412E+03 -0.38459551690E+03  0.84911188685E+03  0.91844244151E+02 0.  0.
         11    1    3    3    0    0  0.17133378995E+03  0.61180890250E+02 -0.56496389731E+02  0.19049989754E+03  0.00000000000E+00 0. -1.
        -11    1    3    3    0    0  0.56058506042E+03  0.10892706387E+03 -0.32809912717E+03  0.65861198931E+03  0.00000000000E+00 0.  1.
         22    1    1    2    0    0 -0.73191885037E+03 -0.17010795412E+03 -0.99995648727E+03  0.12508216883E+04  0.00000000000E+00 0.  1.
<mgrwt>
<rscale>  0 0.15788403E+04</rscale>
<asrwt>0</asrwt>
<pdfrwt beam="1">  1        1 0.55029354E-01 0.15788403E+04</pdfrwt>
<pdfrwt beam="2">  1       -1 0.26803734E+00 0.15788403E+04</pdfrwt>
<totfact> 0.35624800E+00</totfact>
</mgrwt>
</event>
<event>
 6    1  0.9562506E-007  0.1013933E+04  0.7818608E-02  0.9293394E-01
          2   -1    0    0  501    0  0.00000000000E+00  0.00000000000E+00  0.10285557895E+04  0.10285557895E+04  0.00000000000E+00 0. -1.
         -2   -1    0    0    0  501 -0.00000000000E+00 -0.00000000000E+00 -0.24987952538E+03  0.24987952538E+03  0.00000000000E+00 0.  1.
         23    2    1    2    0    0  0.25468946880E+02  0.36375558403E+03  0.82890749456E+03  0.91034569448E+03  0.93138911031E+02 0.  0.
         13    1    3    3    0    0 -0.32090191967E+02  0.17446227420E+03  0.35705734905E+03  0.39869388765E+03  0.00000000000E+00 0. -1.
        -13    1    3    3    0    0  0.57559138847E+02  0.18929330983E+03  0.47185014551E+03  0.51165180683E+03  0.00000000000E+00 0.  1.
         22    1    1    2    0    0 -0.25468946880E+02 -0.36375558403E+03 -0.50231230403E+02  0.36808962044E+03  0.00000000000E+00 0.  1.
<mgrwt>
<rscale>  0 0.10139330E+04</rscale>
<asrwt>0</asrwt>
<pdfrwt beam="1">  1        2 0.15823935E+00 0.10139330E+04</pdfrwt>
<pdfrwt beam="2">  1       -2 0.38443004E-01 0.10139330E+04</pdfrwt>
<totfact> 0.15384249E+02</totfact>
</mgrwt>
</event>
<event>
 6    1  0.9562506E-007  0.1678310E+04  0.7818608E-02  0.8773833E-01
         -1   -1    0    0    0  501 -0.00000000000E+00  0.00000000000E+00  0.28540631808E+03  0.28540631808E+03  0.00000000000E+00 0.  1.
          1   -1    0    0  501    0  0.00000000000E+00 -0.00000000000E+00 -0.24672930843E+04  0.24672930843E+04  0.00000000000E+00 0. -1.
         23    2    1    2    0    0  0.33344601378E+03  0.74501203385E+03 -0.13957160308E+04  0.16194326201E+04  0.91156994020E+02 0.  0.
         11    1    3    3    0    0  0.51084679104E+02  0.20738222086E+03 -0.38716046278E+03  0.44216541465E+03  0.00000000000E+00 0. -1.
        -11    1    3    3    0    0  0.28236133468E+03  0.53762981298E+03 -0.10085555681E+04  0.11772672054E+04  0.00000000000E+00 0.  1.
         22    1    1    2    0    0 -0.33344601378E+03 -0.74501203385E+03 -0.78617073537E+03  0.11332667823E+04  0.00000000000E+00 0.  1.
<mgrwt>
<rscale>  0 0.16783099E+04</rscale>
<asrwt>0</asrwt>
<pdfrwt beam="1">  1        1 0.37958355E+00 0.16783099E+04</pdfrwt>
<pdfrwt beam="2">  1       -1 0.43908665E-01 0.16783099E+04</pdfrwt>
<totfact> 0.69872999E+00</totfact>
</mgrwt>
</event>
<event>
 6    1  0.9562506E-007  0.1947884E+04  0.7818608E-02  0.8631382E-01
          2   -1    0    0  501    0  0.00000000000E+00  0.00000000000E+00  0.48463498384E+03  0.48463498384E+03  0.00000000000E+00 0. -1.
         -2   -1    0    0    0  501 -0.00000000000E+00 -0.00000000000E+00 -0.19572724369E+04  0.19572724369E+04  0.00000000000E+00 0.  1.
         23    2    1    2    0    0  0.34580943389E+02  0.68938788738E+03  0.11966573989E+03  0.70643026469E+03  0.90952342762E+02 0.  0.
         13    1    3    3    0    0  0.62865835092E+01  0.61946990952E+03  0.11992997808E+03  0.63100371598E+03  0.00000000000E+00 0. -1.
        -13    1    3    3    0    0  0.28294359880E+02  0.69917977856E+02 -0.26423818880E+00  0.75426548710E+02  0.00000000000E+00 0.  1.
         22    1    1    2    0    0 -0.34580943389E+02 -0.68938788738E+03 -0.15923031930E+04  0.17354771561E+04  0.00000000000E+00 0.  1.
<mgrwt>
<rscale>  0 0.19478837E+04</rscale>
<asrwt>0</asrwt>
<pdfrwt beam="1">  1        2 0.74559227E-01 0.19478837E+04</pdfrwt>
<pdfrwt beam="2">  1       -2 0.30111884E+00 0.19478837E+04</pdfrwt>
<totfact> 0.18661134E+00</totfact>
</mgrwt>
</event>
<event>
 6    1  0.9562506E-007  0.1758038E+04  0.7818608E-02  0.8728938E-01
         -1   -1    0    0    0  501 -0.00000000000E+00  0.00000000000E+00  0.76523865194E+03  0.76523865194E+03  0.00000000000E+00 0.  1.
          1   -1    0    0  501    0  0.00000000000E+00 -0.00000000000E+00 -0.10097171360E+04  0.10097171360E+04  0.00000000000E+00 0. -1.
         23    2    1    2    0    0 -0.34434063530E+03 -0.49597508925E+03 -0.76403840791E+03  0.97839802054E+03  0.94584541850E+02 0.  0.
         11    1    3    3    0    0 -0.22771775437E+03 -0.25250420288E+03 -0.39564900296E+03  0.52168178200E+03  0.00000000000E+00 0. -1.
        -11    1    3    3    0    0 -0.11662288094E+03 -0.24347088637E+03 -0.36838940495E+03  0.45671623854E+03  0.00000000000E+00 0.  1.
         22    1    1    2    0    0  0.34434063530E+03  0.49597508925E+03  0.51955992387E+03  0.79655776738E+03  0.00000000000E+00 0. -1.
<mgrwt>
<rscale>  0 0.17580382E+04</rscale>
<asrwt>0</asrwt>
<pdfrwt beam="1">  1        1 0.15534110E+00 0.17580382E+04</pdfrwt>
<pdfrwt beam="2">  1       -1 0.11772902E+00 0.17580382E+04</pdfrwt>
<totfact> 0.91347971E+00</totfact>
</mgrwt>
</event>
<event>
 6    1  0.1078981E-006  0.2909209E+04  0.7818608E-02  0.8270143E-01
         -2   -1    0    0    0  501 -0.00000000000E+00  0.00000000000E+00  0.14427018929E+04  0.14427018929E+04  0.00000000000E+00 0.  1.
          2   -1    0    0  501    0  0.00000000000E+00 -0.00000000000E+00 -0.14666049144E+04  0.14666049144E+04  0.00000000000E+00 0. -1.
         23    2    1    2    0    0  0.48098332863E+03  0.57893549880E+03 -0.12551932229E+04  0.14661897523E+04  0.87698851459E+02 0.  0.
         11    1    3    3    0    0  0.20314519985E+03  0.31306865903E+03 -0.61473306608E+03  0.71914998437E+03  0.00000000000E+00 0. -1.
        -11    1    3    3    0    0  0.27783812878E+03  0.26586683977E+03 -0.64046015686E+03  0.74703976790E+03  0.00000000000E+00 0.  1.
         22    1    1    2    0    0 -0.48098332863E+03 -0.57893549880E+03  0.12312902014E+04  0.14431170550E+04  0.00000000000E+00 0.  1.
<mgrwt>
<rscale>  0 0.29092086E+04</rscale>
<asrwt>0</asrwt>
<pdfrwt beam="1">  1        2 0.22563152E+00 0.29092086E+04</pdfrwt>
<pdfrwt beam="2">  1       -2 0.22195414E+00 0.29092086E+04</pdfrwt>
<totfact> 0.10984793E+00</totfact>
</mgrwt>
</event>
<event>
 6    1  0.9562506E-007  0.3570234E+04  0.7818608E-02  0.8097344E-01
         -2   -1    0    0    0  501 -0.00000000000E+00  0.00000000000E+00  0.16620827935E+04  0.16620827935E+04  0.00000000000E+00 0.  1.
          2   -1    0    0  501    0  0.00000000000E+00 -0.00000000000E+00 -0.19172584125E+04  0.19172584125E+04  0.00000000000E+00 0. -1.
         23    2    1    2    0    0 -0.14094207877E+04 -0.19017079855E+03  0.95204660187E+03  0.17138607370E+04  0.91071425442E+02 0.  0.
         13    1    3    3    0    0 -0.66127117611E+03 -0.13483057549E+03  0.44486076062E+03  0.80830684073E+03  0.00000000000E+00 0. -1.
        -13    1    3    3    0    0 -0.74814961156E+03 -0.55340223059E+02  0.50718584125E+03  0.90555389632E+03  0.00000000000E+00 0.  1.
         22    1    1    2    0    0  0.14094207877E+04  0.19017079855E+03 -0.12072222209E+04  0.18654804689E+04  0.00000000000E+00 0. -1.
<mgrwt>
<rscale>  0 0.35702337E+04</rscale>
<asrwt>0</asrwt>
<pdfrwt beam="1">  1        2 0.29496283E+00 0.35702337E+04</pdfrwt>
<pdfrwt beam="2">  1       -2 0.25570505E+00 0.35702337E+04</pdfrwt>
<totfact> 0.35975489E-01</totfact>
</mgrwt>
</event>
<event>
 6    1  0.9562506E-007  0.3489718E+04  0.7818608E-02  0.8116231E-01
          1   -1    0    0  501    0  0.00000000000E+00  0.00000000000E+00  0.96995198439E+03  0.96995198439E+03  0.00000000000E+00 0. -1.
         -1   -1    0    0    0  501 -0.00000000000E+00 -0.00000000000E+00 -0.31388483425E+04  0.31388483425E+04  0.00000000000E+00 0.  1.
         23    2    1    2    0    0 -0.11942470949E+04  0.21158171174E+03 -0.25601351947E+04  0.28344138975E+04  0.92827705226E+02 0.  0.
         13    1    3    3    0    0 -0.66985323987E+03  0.11624031553E+03 -0.13269643654E+04  0.14909894704E+04  0.00000000000E+00 0.  1.
        -13    1    3    3    0    0 -0.52439385503E+03  0.95341396208E+02 -0.12331708293E+04  0.13434244270E+04  0.00000000000E+00 0. -1.
         22    1    1    2    0    0  0.11942470949E+04 -0.21158171174E+03  0.39123883649E+03  0.12743864295E+04  0.00000000000E+00 0. -1.
<mgrwt>
<rscale>  0 0.34897176E+04</rscale>
<asrwt>0</asrwt>
<pdfrwt beam="1">  1        1 0.14922338E+00 0.34897176E+04</pdfrwt>
<pdfrwt beam="2">  1       -1 0.48289975E+00 0.34897176E+04</pdfrwt>
<totfact> 0.25175235E-02</totfact>
</mgrwt>
</event>
<event>
 6    1  0.9562506E-007  0.1748688E+04  0.7818608E-02  0.8734073E-01
          2   -1    0    0  501    0  0.00000000000E+00  0.00000000000E+00  0.54321858628E+03  0.54321858628E+03  0.00000000000E+00 0. -1.
         -2   -1    0    0    0  501 -0.00000000000E+00 -0.00000000000E+00 -0.14073104056E+04  0.14073104056E+04  0.00000000000E+00 0.  1.
         23    2    1    2    0    0 -0.10188631620E+03 -0.79251579920E+03 -0.44282676487E+02  0.80573680807E+03  0.93748253557E+02 0.  0.
         11    1    3    3    0    0 -0.81544781625E+02 -0.74502607591E+03 -0.59626459887E+02  0.75184354749E+03  0.00000000000E+00 0.  1.
        -11    1    3    3    0    0 -0.20341534572E+02 -0.47489723290E+02  0.15343783399E+02  0.53893260580E+02  0.00000000000E+00 0. -1.
         22    1    1    2    0    0  0.10188631620E+03  0.79251579920E+03 -0.81980914282E+03  0.11447921838E+04  0.00000000000E+00 0.  1.
<mgrwt>
<rscale>  0 0.17486877E+04</rscale>
<asrwt>0</asrwt>
<pdfrwt beam="1">  1        2 0.83572093E-01 0.17486877E+04</pdfrwt>
<pdfrwt beam="2">  1       -2 0.21650929E+00 0.17486877E+04</pdfrwt>
<totfact> 0.55044312E+00</totfact>
</mgrwt>
</event>
<event>
 6    1  0.9562506E-007  0.1584948E+04  0.7818608E-02  0.8829849E-01
          1   -1    0    0  501    0  0.00000000000E+00  0.00000000000E+00  0.65914532578E+03  0.65914532578E+03  0.00000000000E+00 0. -1.
         -1   -1    0    0    0  501 -0.00000000000E+00 -0.00000000000E+00 -0.95277212542E+03  0.95277212542E+03  0.00000000000E+00 0.  1.
         23    2    1    2    0    0 -0.25697043863E+03 -0.17103458360E+03 -0.88652383626E+03  0.94347633101E+03  0.94532744697E+02 0.  0.
         13    1    3    3    0    0 -0.72406949260E+02 -0.53444298994E+02 -0.40002385857E+03  0.41002212968E+03  0.00000000000E+00 0. -1.
        -13    1    3    3    0    0 -0.18456348937E+03 -0.11759028460E+03 -0.48649997768E+03  0.53345420134E+03  0.00000000000E+00 0.  1.
         22    1    1    2    0    0  0.25697043863E+03  0.17103458360E+03  0.59289703662E+03  0.66844112018E+03  0.00000000000E+00 0. -1.
<mgrwt>
<rscale>  0 0.15849483E+04</rscale>
<asrwt>0</asrwt>
<pdfrwt beam="1">  1        1 0.10140697E+00 0.15849483E+04</pdfrwt>
<pdfrwt beam="2">  1       -1 0.14658033E+00 0.15849483E+04</pdfrwt>
<totfact> 0.10638725E+01</totfact>
</mgrwt>
</event>
<event>
 6    1  0.9562506E-007  0.1135728E+04  0.7818608E-02  0.9171052E-01
         -1   -1    0    0    0  501 -0.00000000000E+00  0.00000000000E+00  0.22050133856E+03  0.22050133856E+03  0.00000000000E+00 0.  1.
          1   -1    0    0  501    0  0.00000000000E+00 -0.00000000000E+00 -0.14624382663E+04  0.14624382663E+04  0.00000000000E+00 0. -1.
         23    2    1    2    0    0  0.39732308601E+03 -0.68291521554E+02 -0.40052241804E+02  0.41524241512E+03  0.91064343453E+02 0.  0.
         11    1    3    3    0    0  0.15910226999E+03  0.17217646560E+02 -0.96761996152E+01  0.16032344965E+03  0.00000000000E+00 0.  1.
        -11    1    3    3    0    0  0.23822081602E+03 -0.85509168114E+02 -0.30376042189E+02  0.25491896547E+03  0.00000000000E+00 0. -1.
         22    1    1    2    0    0 -0.39732308601E+03  0.68291521554E+02 -0.12018846859E+04  0.12676971897E+04  0.00000000000E+00 0.  1.
<mgrwt>
<rscale>  0 0.11357281E+04</rscale>
<asrwt>0</asrwt>
<pdfrwt beam="1">  1        1 0.22499051E+00 0.11357281E+04</pdfrwt>
<pdfrwt beam="2">  1       -1 0.33923282E-01 0.11357281E+04</pdfrwt>
<totfact> 0.56658363E+01</totfact>
</mgrwt>
</event>
<event>
 6    1  0.9562506E-007  0.1594348E+04  0.7818608E-02  0.8824028E-01
          2   -1    0    0  501    0  0.00000000000E+00  0.00000000000E+00  0.11497849470E+04  0.11497849470E+04  0.00000000000E+00 0. -1.
         -2   -1    0    0    0  501 -0.00000000000E+00 -0.00000000000E+00 -0.55270032204E+03  0.55270032204E+03  0.00000000000E+00 0.  1.
         23    2    1    2    0    0  0.57791394588E+03 -0.42146082113E+03 -0.70113776701E+02  0.72434036169E+03  0.90217876784E+02 0.  0.
         13    1    3    3    0    0  0.42437497004E+03 -0.32129766204E+03 -0.13423597418E+02  0.53245328039E+03  0.00000000000E+00 0. -1.
        -13    1    3    3    0    0  0.15353897584E+03 -0.10016315909E+03 -0.56690179284E+02  0.19188708130E+03  0.00000000000E+00 0.  1.
         22    1    1    2    0    0 -0.57791394588E+03  0.42146082113E+03  0.66719840162E+03  0.97814490732E+03  0.00000000000E+00 0. -1.
<mgrwt>
<rscale>  0 0.15943482E+04</rscale>
<asrwt>0</asrwt>
<pdfrwt beam="1">  1        2 0.17688999E+00 0.15943482E+04</pdfrwt>
<pdfrwt beam="2">  1       -2 0.85030819E-01 0.15943482E+04</pdfrwt>
<totfact> 0.23459709E+01</totfact>
</mgrwt>
</event>
<event>
 6    1  0.9562506E-007  0.2183409E+04  0.7818608E-02  0.8525366E-01
         -1   -1    0    0    0  501 -0.00000000000E+00  0.00000000000E+00  0.15132890448E+04  0.15132890448E+04  0.00000000000E+00 0.  1.
          1   -1    0    0  501    0  0.00000000000E+00 -0.00000000000E+00 -0.78756830419E+03  0.78756830419E+03  0.00000000000E+00 0. -1.
         23    2    1    2    0    0 -0.34966163052E+03  0.44033380007E+03  0.13472520632E+04  0.14627294970E+04  0.91281697201E+02 0.  0.
         13    1    3    3    0    0 -0.18135040460E+03  0.29327997170E+03  0.86531395987E+03  0.93148771339E+03  0.00000000000E+00 0.  1.
        -13    1    3    3    0    0 -0.16831122591E+03  0.14705382837E+03  0.48193810329E+03  0.53124178357E+03  0.00000000000E+00 0. -1.
         22    1    1    2    0    0  0.34966163052E+03 -0.44033380007E+03 -0.62153132259E+03  0.83812785200E+03  0.00000000000E+00 0. -1.
<mgrwt>
<rscale>  0 0.21834088E+04</rscale>
<asrwt>0</asrwt>
<pdfrwt beam="1">  1        1 0.12116435E+00 0.21834088E+04</pdfrwt>
<pdfrwt beam="2">  1       -1 0.23281370E+00 0.21834088E+04</pdfrwt>
<totfact> 0.18716384E+00</totfact>
</mgrwt>
</event>
<event>
 6    1  0.9562506E-007  0.2107828E+04  0.7818608E-02  0.8557803E-01
          2   -1    0    0  501    0  0.00000000000E+00  0.00000000000E+00  0.12190152745E+04  0.12190152745E+04  0.00000000000E+00 0. -1.
         -2   -1    0    0    0  501 -0.00000000000E+00 -0.00000000000E+00 -0.91117406870E+03  0.91117406870E+03  0.00000000000E+00 0.  1.
         23    2    1    2    0    0  0.83189723617E+03  0.28634775935E+02  0.80425575076E+03  0.11610142495E+04  0.90850497393E+02 0.  0.
         13    1    3    3    0    0  0.46997121538E+03  0.27544126676E+02  0.39368319122E+03  0.61369216816E+03  0.00000000000E+00 0.  1.
        -13    1    3    3    0    0  0.36192602079E+03  0.10906492596E+01  0.41057255954E+03  0.54732208131E+03  0.00000000000E+00 0. -1.
         22    1    1    2    0    0 -0.83189723617E+03 -0.28634775935E+02 -0.49641454494E+03  0.96917509376E+03  0.00000000000E+00 0.  1.
<mgrwt>
<rscale>  0 0.21078284E+04</rscale>
<asrwt>0</asrwt>
<pdfrwt beam="1">  1        2 0.18754081E+00 0.21078284E+04</pdfrwt>
<pdfrwt beam="2">  1       -2 0.14018063E+00 0.21078284E+04</pdfrwt>
<totfact> 0.60837670E+00</totfact>
</mgrwt>
</event>
<event>
 6    1  0.9562506E-007  0.1672132E+04  0.7818608E-02  0.8777420E-01
         -1   -1    0    0    0  501 -0.00000000000E+00  0.00000000000E+00  0.59172225683E+03  0.59172225683E+03  0.00000000000E+00 0.  1.
          1   -1    0    0  501    0  0.00000000000E+00 -0.00000000000E+00 -0.11813077258E+04  0.11813077258E+04  0.00000000000E+00 0. -1.
         23    2    1    2    0    0  0.72369074442E+03  0.13705224584E+03  0.11840604418E+03  0.75138249237E+03  0.89688610694E+02 0.  0.
         13    1    3    3    0    0  0.40328608096E+03  0.11124267764E+03  0.95602246061E+02  0.42913213102E+03  0.00000000000E+00 0. -1.
        -13    1    3    3    0    0  0.32040466346E+03  0.25809568199E+02  0.22803798123E+02  0.32225036134E+03  0.00000000000E+00 0.  1.
         22    1    1    2    0    0 -0.72369074442E+03 -0.13705224584E+03 -0.70799151312E+03  0.10216474902E+04  0.00000000000E+00 0. -1.
<mgrwt>
<rscale>  0 0.16721317E+04</rscale>
<asrwt>0</asrwt>
<pdfrwt beam="1">  1        1 0.18173965E+00 0.16721317E+04</pdfrwt>
<pdfrwt beam="2">  1       -1 0.91034193E-01 0.16721317E+04</pdfrwt>
<totfact> 0.12390950E+01</totfact>
</mgrwt>
</event>
<event>
 6    1  0.9562506E-007  0.1699259E+04  0.7818608E-02  0.8761787E-01
          1   -1    0    0  501    0  0.00000000000E+00  0.00000000000E+00  0.92232750793E+03  0.92232750793E+03  0.00000000000E+00 0. -1.
         -1   -1    0    0    0  501 -0.00000000000E+00 -0.00000000000E+00 -0.78266184054E+03  0.78266184054E+03  0.00000000000E+00 0.  1.
         23    2    1    2    0    0 -0.11603308950E+03  0.46904974445E+03 -0.62824164122E+03  0.79771156564E+03  0.90470114223E+02 0.  0.
         11    1    3    3    0    0 -0.10700124375E+03  0.33392991023E+03 -0.39657428795E+03  0.52936718540E+03  0.00000000000E+00 0. -1.
        -11    1    3    3    0    0 -0.90318457412E+01  0.13511983421E+03 -0.23166735327E+03  0.26834438024E+03  0.00000000000E+00 0.  1.
         22    1    1    2    0    0  0.11603308950E+03 -0.46904974445E+03  0.76790730860E+03  0.90727778284E+03  0.00000000000E+00 0. -1.
<mgrwt>
<rscale>  0 0.16992593E+04</rscale>
<asrwt>0</asrwt>
<pdfrwt beam="1">  1        1 0.14189654E+00 0.16992593E+04</pdfrwt>
<pdfrwt beam="2">  1       -1 0.12040951E+00 0.16992593E+04</pdfrwt>
<totfact> 0.10196494E+01</totfact>
</mgrwt>
</event>
<event>
 6    1  0.9562506E-007  0.7245371E+03  0.7818608E-02  0.9676167E-01
         -1   -1    0    0    0  501 -0.00000000000E+00  0.00000000000E+00  0.68825613903E+02  0.68825613903E+02  0.00000000000E+00 0.  1.
          1   -1    0    0  501    0  0.00000000000E+00 -0.00000000000E+00 -0.19068265934E+04  0.19068265934E+04  0.00000000000E+00 0. -1.
         23    2    1    2    0    0 -0.14901075744E+03 -0.86895566780E+02 -0.17844182775E+04  0.17950251016E+04  0.90617221145E+02 0.  0.
         11    1    3    3    0    0 -0.34854505910E+02 -0.64008502683E+02 -0.49138146133E+03  0.49675714946E+03  0.00000000000E+00 0.  1.
        -11    1    3    3    0    0 -0.11415625153E+03 -0.22887064097E+02 -0.12930368162E+04  0.12982679521E+04  0.00000000000E+00 0. -1.
         22    1    1    2    0    0  0.14901075744E+03  0.86895566780E+02 -0.53582701917E+02  0.18062710567E+03  0.00000000000E+00 0.  1.
<mgrwt>
<rscale>  0 0.72453712E+03</rscale>
<asrwt>0</asrwt>
<pdfrwt beam="1">  1        1 0.29335792E+00 0.72453712E+03</pdfrwt>
<pdfrwt beam="2">  1       -1 0.10588557E-01 0.72453712E+03</pdfrwt>
<totfact> 0.20443129E+02</totfact>
</mgrwt>
</event>
<event>
 6    1  0.9562506E-007  0.1426399E+04  0.7818608E-02  0.8934928E-01
          2   -1    0    0  501    0  0.00000000000E+00  0.00000000000E+00  0.12587369905E+04  0.12587369905E+04  0.00000000000E+00 0. -1.
         -2   -1    0    0    0  501 -0.00000000000E+00 -0.00000000000E+00 -0.40409818231E+03  0.40409818231E+03  0.00000000000E+00 0.  1.
         23    2    1    2    0    0 -0.44494114186E+02  0.62096428347E+03  0.82704621647E+03  0.10396676844E+04  0.96576820540E+02 0.  0.
         13    1    3    3    0    0 -0.44381166998E+02  0.10844395659E+03  0.14149192290E+03  0.18371103383E+03  0.00000000000E+00 0.  1.
        -13    1    3    3    0    0 -0.11294718766E+00  0.51252032688E+03  0.68555429357E+03  0.85595665057E+03  0.00000000000E+00 0. -1.
         22    1    1    2    0    0  0.44494114186E+02 -0.62096428347E+03  0.27592591762E+02  0.62316748845E+03  0.00000000000E+00 0.  1.
<mgrwt>
<rscale>  0 0.14263987E+04</rscale>
<asrwt>0</asrwt>
<pdfrwt beam="1">  1        2 0.19365184E+00 0.14263987E+04</pdfrwt>
<pdfrwt beam="2">  1       -2 0.62168952E-01 0.14263987E+04</pdfrwt>
<totfact> 0.40780130E+01</totfact>
</mgrwt>
</event>
<event>
 6    1  0.9562506E-007  0.1759841E+04  0.7818608E-02  0.8727952E-01
         -2   -1    0    0    0  501 -0.00000000000E+00  0.00000000000E+00  0.11158924627E+04  0.11158924627E+04  0.00000000000E+00 0.  1.
          2   -1    0    0  501    0  0.00000000000E+00 -0.00000000000E+00 -0.69384823108E+03  0.69384823108E+03  0.00000000000E+00 0. -1.
         23    2    1    2    0    0 -0.29466796792E+03 -0.46121486086E+03 -0.49363485350E+03  0.74296211032E+03  0.93642776445E+02 0.  0.
         11    1    3    3    0    0 -0.23183504777E+03 -0.34264578703E+03 -0.31730204286E+03  0.52137722538E+03  0.00000000000E+00 0.  1.
        -11    1    3    3    0    0 -0.62832920149E+02 -0.11856907384E+03 -0.17633281064E+03  0.22158488494E+03  0.00000000000E+00 0. -1.
         22    1    1    2    0    0  0.29466796792E+03  0.46121486086E+03  0.91567908507E+03  0.10667785834E+04  0.00000000000E+00 0.  1.
<mgrwt>
<rscale>  0 0.17598409E+04</rscale>
<asrwt>0</asrwt>
<pdfrwt beam="1">  1        2 0.10674588E+00 0.17598409E+04</pdfrwt>
<pdfrwt beam="2">  1       -2 0.17167576E+00 0.17598409E+04</pdfrwt>
<totfact> 0.81317815E+00</totfact>
</mgrwt>
</event>
<event>
 6    1  0.9562506E-007  0.3589742E+04  0.7818608E-02  0.8092846E-01
          3   -1    0    0  501    0  0.00000000000E+00  0.00000000000E+00  0.16703325105E+04  0.16703325105E+04  0.00000000000E+00 0. -1.
         -3   -1    0    0    0  501 -0.00000000000E+00 -0.00000000000E+00 -0.19286944457E+04  0.19286944457E+04  0.00000000000E+00 0.  1.
         23    2    1    2    0    0 -0.22962551055E+03 -0.11589079551E+04  0.12238602637E+04  0.17035644348E+04  0.92207997388E+02 0.  0.
         11    1    3    3    0    0 -0.88082943737E+02 -0.65425217680E+03  0.65210195583E+03  0.92792320621E+03  0.00000000000E+00 0.  1.
        -11    1    3    3    0    0 -0.14154256682E+03 -0.50465577835E+03  0.57175830786E+03  0.77564122856E+03  0.00000000000E+00 0. -1.
         22    1    1    2    0    0  0.22962551055E+03  0.11589079551E+04 -0.14822221988E+04  0.18954625215E+04  0.00000000000E+00 0.  1.
<mgrwt>
<rscale>  0 0.35897415E+04</rscale>
<asrwt>0</asrwt>
<pdfrwt beam="1">  1        3 0.25697423E+00 0.35897415E+04</pdfrwt>
<pdfrwt beam="2">  1       -3 0.29672222E+00 0.35897415E+04</pdfrwt>
<totfact> 0.56228559E-03</totfact>
</mgrwt>
</event>
<event>
 6    1  0.9562506E-007  0.3354555E+04  0.7818608E-02  0.8149151E-01
          2   -1    0    0  501    0  0.00000000000E+00  0.00000000000E+00  0.20453815362E+04  0.20453815362E+04  0.00000000000E+00 0. -1.
         -2   -1    0    0    0  501 -0.00000000000E+00 -0.00000000000E+00 -0.13754204386E+04  0.13754204386E+04  0.00000000000E+00 0.  1.
         23    2    1    2    0    0  0.13747009303E+04  0.93297339277E+03  0.56143201926E+03  0.17558633693E+04  0.87225340520E+02 0.  0.
         13    1    3    3    0    0  0.44824748174E+03  0.33325194576E+03  0.22415629407E+03  0.60185439137E+03  0.00000000000E+00 0.  1.
        -13    1    3    3    0    0  0.92645344855E+03  0.59972144701E+03  0.33727572520E+03  0.11540089779E+04  0.00000000000E+00 0. -1.
         22    1    1    2    0    0 -0.13747009303E+04 -0.93297339277E+03  0.10852907830E+03  0.16649386055E+04  0.00000000000E+00 0.  1.
<mgrwt>
<rscale>  0 0.33545549E+04</rscale>
<asrwt>0</asrwt>
<pdfrwt beam="1">  1        2 0.31467408E+00 0.33545549E+04</pdfrwt>
<pdfrwt beam="2">  1       -2 0.21160314E+00 0.33545549E+04</pdfrwt>
<totfact> 0.58612045E-01</totfact>
</mgrwt>
</event>
<event>
 6    1  0.9562506E-007  0.2843949E+04  0.7818608E-02  0.8289752E-01
         -2   -1    0    0    0  501 -0.00000000000E+00  0.00000000000E+00  0.83008049784E+03  0.83008049784E+03  0.00000000000E+00 0.  1.
          2   -1    0    0  501    0  0.00000000000E+00 -0.00000000000E+00 -0.24359217753E+04  0.24359217753E+04  0.00000000000E+00 0. -1.
         23    2    1    2    0    0  0.50688514348E+03  0.33939194822E+03  0.66923107960E+03  0.91056735087E+03  0.95620182889E+02 0.  0.
         13    1    3    3    0    0  0.39927686571E+03  0.30612632515E+03  0.57184714648E+03  0.76167217448E+03  0.00000000000E+00 0.  1.
        -13    1    3    3    0    0  0.10760827777E+03  0.33265623067E+02  0.97383933117E+02  0.14889517639E+03  0.00000000000E+00 0. -1.
         22    1    1    2    0    0 -0.50688514348E+03 -0.33939194822E+03 -0.22750723570E+04  0.23554349222E+04  0.00000000000E+00 0. -1.
<mgrwt>
<rscale>  0 0.28439488E+04</rscale>
<asrwt>0</asrwt>
<pdfrwt beam="1">  1        2 0.37475720E+00 0.28439488E+04</pdfrwt>
<pdfrwt beam="2">  1       -2 0.12770469E+00 0.28439488E+04</pdfrwt>
<totfact> 0.14930137E+00</totfact>
</mgrwt>
</event>
<event>
 6    1  0.9562506E-007  0.3130153E+04  0.7818608E-02  0.8207511E-01
         -4   -1    0    0    0  501 -0.00000000000E+00  0.00000000000E+00  0.15060490075E+04  0.15060490075E+04  0.00000000000E+00 0.  1.
          4   -1    0    0  501    0  0.00000000000E+00 -0.00000000000E+00 -0.16264177940E+04  0.16264177940E+04  0.00000000000E+00 0. -1.
         23    2    1    2    0    0 -0.65603275350E+03 -0.21915379373E+03  0.13433231270E+04  0.15135778688E+04  0.89406836510E+02 0.  0.
         13    1    3    3    0    0 -0.17174054941E+03 -0.85269928346E+02  0.43886672580E+03  0.47892565186E+03  0.00000000000E+00 0.  1.
        -13    1    3    3    0    0 -0.48429220409E+03 -0.13388386539E+03  0.90445640116E+03  0.10346522169E+04  0.00000000000E+00 0. -1.
         22    1    1    2    0    0  0.65603275350E+03  0.21915379373E+03 -0.14636919135E+04  0.16188889328E+04  0.00000000000E+00 0. -1.
<mgrwt>
<rscale>  0 0.31301533E+04</rscale>
<asrwt>0</asrwt>
<pdfrwt beam="1">  1        4 0.25021812E+00 0.31301533E+04</pdfrwt>
<pdfrwt beam="2">  1       -4 0.23169985E+00 0.31301533E+04</pdfrwt>
<totfact> 0.86850897E-03</totfact>
</mgrwt>
</event>
<event>
 6    1  0.1218491E-006  0.2051493E+04  0.7818608E-02  0.8582917E-01
         -2   -1    0    0    0  501 -0.00000000000E+00  0.00000000000E+00  0.86999656945E+03  0.86999656945E+03  0.00000000000E+00 0.  1.
          2   -1    0    0  501    0  0.00000000000E+00 -0.00000000000E+00 -0.12093792187E+04  0.12093792187E+04  0.00000000000E+00 0. -1.
         23    2    1    2    0    0  0.18118897860E+03 -0.10015397501E+04 -0.28245976898E+03  0.10599879663E+04  0.88767395501E+02 0.  0.
         13    1    3    3    0    0  0.10318818047E+03 -0.51708955052E+03 -0.10131628485E+03  0.53693052942E+03  0.00000000000E+00 0.  1.
        -13    1    3    3    0    0  0.78000798130E+02 -0.48445019960E+03 -0.18114348413E+03  0.52305743685E+03  0.00000000000E+00 0. -1.
         22    1    1    2    0    0 -0.18118897860E+03  0.10015397501E+04 -0.56922880242E+02  0.10193878218E+04  0.00000000000E+00 0.  1.
<mgrwt>
<rscale>  0 0.20514929E+04</rscale>
<asrwt>0</asrwt>
<pdfrwt beam="1">  1        2 0.18605834E+00 0.20514929E+04</pdfrwt>
<pdfrwt beam="2">  1       -2 0.13384563E+00 0.20514929E+04</pdfrwt>
<totfact> 0.69770762E+00</totfact>
</mgrwt>
</event>
<event>
 6    1  0.9562506E-007  0.1218141E+04  0.7818608E-02  0.9097125E-01
          4   -1    0    0  501    0  0.00000000000E+00  0.00000000000E+00  0.19208322707E+03  0.19208322707E+03  0.00000000000E+00 0. -1.
         -4   -1    0    0    0  501 -0.00000000000E+00 -0.00000000000E+00 -0.19312808446E+04  0.19312808446E+04  0.00000000000E+00 0.  1.
         23    2    1    2    0    0  0.55631595132E+03  0.23777173886E+03 -0.82448778336E+03  0.10266795600E+04  0.90928413732E+02 0.  0.
         13    1    3    3    0    0  0.51704034232E+03  0.19429508111E+03 -0.76055909776E+03  0.93996352871E+03  0.00000000000E+00 0.  1.
        -13    1    3    3    0    0  0.39275609002E+02  0.43476657747E+02 -0.63928685604E+02  0.86716031243E+02  0.00000000000E+00 0. -1.
         22    1    1    2    0    0 -0.55631595132E+03 -0.23777173886E+03 -0.91470983413E+03  0.10966845117E+04  0.00000000000E+00 0.  1.
<mgrwt>
<rscale>  0 0.12181406E+04</rscale>
<asrwt>0</asrwt>
<pdfrwt beam="1">  1        4 0.29551266E-01 0.12181406E+04</pdfrwt>
<pdfrwt beam="2">  1       -4 0.29712013E+00 0.12181406E+04</pdfrwt>
<totfact> 0.71018626E-01</totfact>
</mgrwt>
</event>
<event>
 6    1  0.9562506E-007  0.3149152E+04  0.7818608E-02  0.8202377E-01
         -2   -1    0    0    0  501 -0.00000000000E+00  0.00000000000E+00  0.15686710671E+04  0.15686710671E+04  0.00000000000E+00 0.  1.
          2   -1    0    0  501    0  0.00000000000E+00 -0.00000000000E+00 -0.15805033220E+04  0.15805033220E+04  0.00000000000E+00 0. -1.
         23    2    1    2    0    0 -0.95167345429E+03 -0.95153673972E+03 -0.82078295667E+03  0.15789814811E+04  0.91615091116E+02 0.  0.
         11    1    3    3    0    0 -0.25237306566E+03 -0.22874603830E+03 -0.25078467198E+03  0.42297738238E+03  0.00000000000E+00 0.  1.
        -11    1    3    3    0    0 -0.69930038863E+03 -0.72279070142E+03 -0.56999828470E+03  0.11560040987E+04  0.00000000000E+00 0. -1.
         22    1    1    2    0    0  0.95167345429E+03  0.95153673972E+03  0.80895070182E+03  0.15701929081E+04  0.00000000000E+00 0.  1.
<mgrwt>
<rscale>  0 0.31491522E+04</rscale>
<asrwt>0</asrwt>
<pdfrwt beam="1">  1        2 0.24315436E+00 0.31491522E+04</pdfrwt>
<pdfrwt beam="2">  1       -2 0.24133401E+00 0.31491522E+04</pdfrwt>
<totfact> 0.70286283E-01</totfact>
</mgrwt>
</event>
<event>
 6    1  0.9562506E-007  0.1183478E+04  0.7818608E-02  0.9127442E-01
         -1   -1    0    0    0  501 -0.00000000000E+00  0.00000000000E+00  0.19798210585E+03  0.19798210585E+03  0.00000000000E+00 0.  1.
          1   -1    0    0  501    0  0.00000000000E+00 -0.00000000000E+00 -0.17686207895E+04  0.17686207895E+04  0.00000000000E+00 0. -1.
         23    2    1    2    0    0  0.42589387764E+03 -0.19912685810E+03 -0.20304570066E+03  0.52045364035E+03  0.92775721838E+02 0.  0.
         13    1    3    3    0    0  0.11906732096E+03 -0.94000270689E+02 -0.93090429754E+02  0.17798569022E+03  0.00000000000E+00 0. -1.
        -13    1    3    3    0    0  0.30682655668E+03 -0.10512658742E+03 -0.10995527091E+03  0.34246795013E+03  0.00000000000E+00 0.  1.
         22    1    1    2    0    0 -0.42589387764E+03  0.19912685810E+03 -0.13675929830E+04  0.14461492550E+04  0.00000000000E+00 0. -1.
<mgrwt>
<rscale>  0 0.11834784E+04</rscale>
<asrwt>0</asrwt>
<pdfrwt beam="1">  1        1 0.27209552E+00 0.11834784E+04</pdfrwt>
<pdfrwt beam="2">  1       -1 0.30458784E-01 0.11834784E+04</pdfrwt>
<totfact> 0.42155413E+01</totfact>
</mgrwt>
</event>
<event>
 6    1  0.9562506E-007  0.8220826E+03  0.7818608E-02  0.9528592E-01
         -2   -1    0    0    0  501 -0.00000000000E+00  0.00000000000E+00  0.24157885139E+04  0.24157885139E+04  0.00000000000E+00 0.  1.
          2   -1    0    0  501    0  0.00000000000E+00 -0.00000000000E+00 -0.69937800855E+02  0.69937800855E+02  0.00000000000E+00 0. -1.
         23    2    1    2    0    0 -0.76620664892E+02  0.16538190770E+03  0.22842566521E+04  0.22933315902E+04  0.91210899873E+02 0.  0.
         13    1    3    3    0    0  0.10979497036E+02  0.45876799598E+02  0.88383443411E+03  0.88509238898E+03  0.00000000000E+00 0.  1.
        -13    1    3    3    0    0 -0.87600161928E+02  0.11950510810E+03  0.14004222180E+04  0.14082392012E+04  0.00000000000E+00 0. -1.
         22    1    1    2    0    0  0.76620664892E+02 -0.16538190770E+03  0.61594060907E+02  0.19239472452E+03  0.00000000000E+00 0. -1.
<mgrwt>
<rscale>  0 0.82208257E+03</rscale>
<asrwt>0</asrwt>
<pdfrwt beam="1">  1        2 0.10759664E-01 0.82208257E+03</pdfrwt>
<pdfrwt beam="2">  1       -2 0.37165971E+00 0.82208257E+03</pdfrwt>
<totfact> 0.72029050E+00</totfact>
</mgrwt>
</event>
<event>
 6    1  0.9562506E-007  0.3178610E+04  0.7818608E-02  0.8194489E-01
         -1   -1    0    0    0  501 -0.00000000000E+00  0.00000000000E+00  0.76820667275E+03  0.76820667275E+03  0.00000000000E+00 0.  1.
          1   -1    0    0  501    0  0.00000000000E+00 -0.00000000000E+00 -0.32880347348E+04  0.32880347348E+04  0.00000000000E+00 0. -1.
         23    2    1    2    0    0 -0.80136393380E+03  0.12697628695E+04 -0.60409610535E+03  0.16222096023E+04  0.11022699418E+03 0.  0.
         13    1    3    3    0    0 -0.46038785654E+03  0.65712430632E+03 -0.36450437737E+03  0.88126770821E+03  0.00000000000E+00 0.  1.
        -13    1    3    3    0    0 -0.34097607727E+03  0.61263856313E+03 -0.23959172798E+03  0.74094189409E+03  0.00000000000E+00 0. -1.
         22    1    1    2    0    0  0.80136393380E+03 -0.12697628695E+04 -0.19157319567E+04  0.24340318052E+04  0.00000000000E+00 0.  1.
<mgrwt>
<rscale>  0 0.31786099E+04</rscale>
<asrwt>0</asrwt>
<pdfrwt beam="1">  1        1 0.50585150E+00 0.31786099E+04</pdfrwt>
<pdfrwt beam="2">  1       -1 0.11818564E+00 0.31786099E+04</pdfrwt>
<totfact> 0.19621774E-01</totfact>
</mgrwt>
</event>
<event>
 6    1  0.9562506E-007  0.2907091E+04  0.7818608E-02  0.8270771E-01
         -2   -1    0    0    0  501 -0.00000000000E+00  0.00000000000E+00  0.98570519670E+03  0.98570519670E+03  0.00000000000E+00 0.  1.
          2   -1    0    0  501    0  0.00000000000E+00 -0.00000000000E+00 -0.21434340929E+04  0.21434340929E+04  0.00000000000E+00 0. -1.
         23    2    1    2    0    0 -0.26693399229E+03  0.12073563911E+04  0.24002776171E+03  0.12629434569E+04  0.91921909522E+02 0.  0.
         11    1    3    3    0    0 -0.22280606660E+03  0.88447599025E+03  0.14559248230E+03  0.92365442214E+03  0.00000000000E+00 0. -1.
        -11    1    3    3    0    0 -0.44127925695E+02  0.32288040086E+03  0.94435279405E+02  0.33928903472E+03  0.00000000000E+00 0.  1.
         22    1    1    2    0    0  0.26693399229E+03 -0.12073563911E+04 -0.13977566579E+04  0.18661958327E+04  0.00000000000E+00 0. -1.
<mgrwt>
<rscale>  0 0.29070907E+04</rscale>
<asrwt>0</asrwt>
<pdfrwt beam="1">  1        2 0.32975909E+00 0.29070907E+04</pdfrwt>
<pdfrwt beam="2">  1       -2 0.15164696E+00 0.29070907E+04</pdfrwt>
<totfact> 0.13947755E+00</totfact>
</mgrwt>
</event>
<event>
 6    1  0.9562506E-007  0.2451896E+04  0.7818608E-02  0.8420326E-01
          2   -1    0    0  501    0  0.00000000000E+00  0.00000000000E+00  0.14600274114E+04  0.14600274114E+04  0.00000000000E+00 0. -1.
         -2   -1    0    0    0  501 -0.00000000000E+00 -0.00000000000E+00 -0.10293977924E+04  0.10293977924E+04  0.00000000000E+00 0.  1.
         23    2    1    2    0    0 -0.96583976621E+02  0.10139217650E+04  0.90550893168E+03  0.13656475693E+04  0.87641588713E+02 0.  0.
         11    1    3    3    0    0 -0.10974807894E+03  0.84621550486E+03  0.77536417074E+03  0.11529592008E+04  0.00000000000E+00 0.  1.
        -11    1    3    3    0    0  0.13164102317E+02  0.16770626016E+03  0.13014476094E+03  0.21268836848E+03  0.00000000000E+00 0. -1.
         22    1    1    2    0    0  0.96583976621E+02 -0.10139217650E+04 -0.47487931268E+03  0.11237776345E+04  0.00000000000E+00 0.  1.
<mgrwt>
<rscale>  0 0.24518964E+04</rscale>
<asrwt>0</asrwt>
<pdfrwt beam="1">  1        2 0.22461960E+00 0.24518964E+04</pdfrwt>
<pdfrwt beam="2">  1       -2 0.15836889E+00 0.24518964E+04</pdfrwt>
<totfact> 0.31020961E+00</totfact>
</mgrwt>
</event>
<event>
 6    1  0.9562506E-007  0.3312740E+04  0.7818608E-02  0.8159661E-01
          2   -1    0    0  501    0  0.00000000000E+00  0.00000000000E+00  0.15357155980E+04  0.15357155980E+04  0.00000000000E+00 0. -1.
         -2   -1    0    0    0  501 -0.00000000000E+00 -0.00000000000E+00 -0.17865033376E+04  0.17865033376E+04  0.00000000000E+00 0.  1.
         23    2    1    2    0    0 -0.14330603181E+03 -0.84155929110E+03 -0.15475483724E+04  0.17696897739E+04  0.90206827792E+02 0.  0.
         11    1    3    3    0    0 -0.13463166328E+03 -0.55374532014E+03 -0.99635339237E+03  0.11478151623E+04  0.00000000000E+00 0. -1.
        -11    1    3    3    0    0 -0.86743685355E+01 -0.28781397097E+03 -0.55119498003E+03  0.62187461161E+03  0.00000000000E+00 0.  1.
         22    1    1    2    0    0  0.14330603181E+03  0.84155929110E+03  0.12967606328E+04  0.15525291617E+04  0.00000000000E+00 0. -1.
<mgrwt>
<rscale>  0 0.33127397E+04</rscale>
<asrwt>0</asrwt>
<pdfrwt beam="1">  1        2 0.23626394E+00 0.33127397E+04</pdfrwt>
<pdfrwt beam="2">  1       -2 0.27484667E+00 0.33127397E+04</pdfrwt>
<totfact> 0.45775242E-01</totfact>
</mgrwt>
</event>
<event>
 6    1  0.9562506E-007  0.2108665E+04  0.7818608E-02  0.8557436E-01
          1   -1    0    0  501    0  0.00000000000E+00  0.00000000000E+00  0.18380888373E+04  0.18380888373E+04  0.00000000000E+00 0. -1.
         -1   -1    0    0    0  501 -0.00000000000E+00 -0.00000000000E+00 -0.60476778937E+03  0.60476778937E+03  0.00000000000E+00 0.  1.
         23    2    1    2    0    0 -0.36890570596E+03  0.49480754897E+03 -0.36963235599E+03  0.72518798996E+03  0.91343372962E+02 0.  0.
         11    1    3    3    0    0 -0.29993590413E+03  0.40241393295E+03 -0.33976634055E+03  0.60608554362E+03  0.00000000000E+00 0. -1.
        -11    1    3    3    0    0 -0.68969801835E+02  0.92393616016E+02 -0.29866015440E+02  0.11910244634E+03  0.00000000000E+00 0.  1.
         22    1    1    2    0    0  0.36890570596E+03 -0.49480754897E+03  0.16029534039E+04  0.17176686367E+04  0.00000000000E+00 0. -1.
<mgrwt>
<rscale>  0 0.21086649E+04</rscale>
<asrwt>0</asrwt>
<pdfrwt beam="1">  1        1 0.28278290E+00 0.21086649E+04</pdfrwt>
<pdfrwt beam="2">  1       -1 0.93041199E-01 0.21086649E+04</pdfrwt>
<totfact> 0.39569499E+00</totfact>
</mgrwt>
</event>
<event>
 6    1  0.9562506E-007  0.3276608E+04  0.7818608E-02  0.8168873E-01
         -1   -1    0    0    0  501 -0.00000000000E+00  0.00000000000E+00  0.13880739311E+04  0.13880739311E+04  0.00000000000E+00 0.  1.
          1   -1    0    0  501    0  0.00000000000E+00 -0.00000000000E+00 -0.19336428679E+04  0.19336428679E+04  0.00000000000E+00 0. -1.
         23    2    1    2    0    0  0.12182704195E+04 -0.10757957987E+04 -0.47040807847E+03  0.16947046385E+04  0.96024142860E+02 0.  0.
         13    1    3    3    0    0  0.52781909963E+03 -0.50301638599E+03 -0.25147293672E+03  0.77126981297E+03  0.00000000000E+00 0. -1.
        -13    1    3    3    0    0  0.69045131989E+03 -0.57277941271E+03 -0.21893514175E+03  0.92343482556E+03  0.00000000000E+00 0.  1.
         22    1    1    2    0    0 -0.12182704195E+04  0.10757957987E+04 -0.75160858313E+02  0.16270121604E+04  0.00000000000E+00 0. -1.
<mgrwt>
<rscale>  0 0.32766075E+04</rscale>
<asrwt>0</asrwt>
<pdfrwt beam="1">  1        1 0.29748352E+00 0.32766075E+04</pdfrwt>
<pdfrwt beam="2">  1       -1 0.21354984E+00 0.32766075E+04</pdfrwt>
<totfact> 0.33423130E-01</totfact>
</mgrwt>
</event>
<event>
 6    1  0.9562506E-007  0.1214650E+04  0.7818608E-02  0.9100129E-01
         -2   -1    0    0    0  501 -0.00000000000E+00  0.00000000000E+00  0.46244678698E+03  0.46244678698E+03  0.00000000000E+00 0.  1.
          2   -1    0    0  501    0  0.00000000000E+00 -0.00000000000E+00 -0.79759130343E+03  0.79759130343E+03  0.00000000000E+00 0. -1.
         23    2    1    2    0    0 -0.15312814863E+03 -0.46987777640E+02  0.43499143359E+03  0.47342162562E+03  0.96199829339E+02 0.  0.
         11    1    3    3    0    0 -0.71681085362E+02 -0.69254726583E+02  0.19474452702E+03  0.21876888708E+03  0.00000000000E+00 0. -1.
        -11    1    3    3    0    0 -0.81447063266E+02  0.22266948942E+02  0.24024690657E+03  0.25465273854E+03  0.00000000000E+00 0.  1.
         22    1    1    2    0    0  0.15312814863E+03  0.46987777640E+02 -0.77013595003E+03  0.78661646479E+03  0.00000000000E+00 0. -1.
<mgrwt>
<rscale>  0 0.12146498E+04</rscale>
<asrwt>0</asrwt>
<pdfrwt beam="1">  1        2 0.12270635E+00 0.12146498E+04</pdfrwt>
<pdfrwt beam="2">  1       -2 0.71145661E-01 0.12146498E+04</pdfrwt>
<totfact> 0.61190967E+01</totfact>
</mgrwt>
</event>
<event>
 6    1  0.9562506E-007  0.1933861E+04  0.7818608E-02  0.8638183E-01
          3   -1    0    0  501    0  0.00000000000E+00  0.00000000000E+00  0.11049079168E+04  0.11049079168E+04  0.00000000000E+00 0. -1.
         -3   -1    0    0    0  501 -0.00000000000E+00 -0.00000000000E+00 -0.84618366513E+03  0.84618366513E+03  0.00000000000E+00 0.  1.
         23    2    1    2    0    0  0.52994922144E+03  0.11110857869E+03  0.93527898438E+03  0.10845365636E+04  0.91002667677E+02 0.  0.
         13    1    3    3    0    0  0.39457520842E+03  0.12226440171E+03  0.71460391741E+03  0.82540713457E+03  0.00000000000E+00 0. -1.
        -13    1    3    3    0    0  0.13537401302E+03 -0.11155823016E+02  0.22067506697E+03  0.25912942899E+03  0.00000000000E+00 0.  1.
         22    1    1    2    0    0 -0.52994922144E+03 -0.11110857869E+03 -0.67655473269E+03  0.86655501839E+03  0.00000000000E+00 0.  1.
<mgrwt>
<rscale>  0 0.19338615E+04</rscale>
<asrwt>0</asrwt>
<pdfrwt beam="1">  1        3 0.16998583E+00 0.19338615E+04</pdfrwt>
<pdfrwt beam="2">  1       -3 0.13018210E+00 0.19338615E+04</pdfrwt>
<totfact> 0.26228846E-01</totfact>
</mgrwt>
</event>
<event>
 6    1  0.9562506E-007  0.2108500E+04  0.7818608E-02  0.8557508E-01
          1   -1    0    0  501    0  0.00000000000E+00  0.00000000000E+00  0.54185031727E+03  0.54185031727E+03  0.00000000000E+00 0. -1.
         -1   -1    0    0    0  501 -0.00000000000E+00 -0.00000000000E+00 -0.20511990007E+04  0.20511990007E+04  0.00000000000E+00 0.  1.
         23    2    1    2    0    0 -0.17161914445E+03  0.10302182821E+04 -0.91405948997E+03  0.13908962232E+04  0.91020398156E+02 0.  0.
         11    1    3    3    0    0 -0.14521314252E+02  0.13044537934E+03 -0.15635393081E+03  0.20414068002E+03  0.00000000000E+00 0.  1.
        -11    1    3    3    0    0 -0.15709783020E+03  0.89977290276E+03 -0.75770555916E+03  0.11867555431E+04  0.00000000000E+00 0. -1.
         22    1    1    2    0    0  0.17161914445E+03 -0.10302182821E+04 -0.59528919348E+03  0.12021530948E+04  0.00000000000E+00 0.  1.
<mgrwt>
<rscale>  0 0.21084998E+04</rscale>
<asrwt>0</asrwt>
<pdfrwt beam="1">  1        1 0.83361586E-01 0.21084998E+04</pdfrwt>
<pdfrwt beam="2">  1       -1 0.31556908E+00 0.21084998E+04</pdfrwt>
<totfact> 0.95311105E-01</totfact>
</mgrwt>
</event>
<event>
 6    1  0.9562506E-007  0.6905112E+03  0.7818608E-02  0.9733598E-01
          2   -1    0    0  501    0  0.00000000000E+00  0.00000000000E+00  0.67732229799E+03  0.67732229799E+03  0.00000000000E+00 0. -1.
         -2   -1    0    0    0  501 -0.00000000000E+00 -0.00000000000E+00 -0.17598921683E+03  0.17598921683E+03  0.00000000000E+00 0.  1.
         23    2    1    2    0    0  0.35990508602E+02 -0.22216618206E+03  0.56920483030E+03  0.61823768920E+03  0.87009036001E+02 0.  0.
         13    1    3    3    0    0  0.17868503267E+02 -0.88151749231E+02  0.12564690305E+03  0.15452235614E+03  0.00000000000E+00 0. -1.
        -13    1    3    3    0    0  0.18122005336E+02 -0.13401443282E+03  0.44355792725E+03  0.46371533306E+03  0.00000000000E+00 0.  1.
         22    1    1    2    0    0 -0.35990508602E+02  0.22216618206E+03 -0.67871749143E+02  0.23507382562E+03  0.00000000000E+00 0.  1.
<mgrwt>
<rscale>  0 0.69051118E+03</rscale>
<asrwt>0</asrwt>
<pdfrwt beam="1">  1        2 0.10420343E+00 0.69051118E+03</pdfrwt>
<pdfrwt beam="2">  1       -2 0.27075264E-01 0.69051118E+03</pdfrwt>
<totfact> 0.53254677E+02</totfact>
</mgrwt>
</event>
<event>
 6    1  0.9562506E-007  0.3675893E+04  0.7818608E-02  0.8073325E-01
         -1   -1    0    0    0  501 -0.00000000000E+00  0.00000000000E+00  0.12223492639E+04  0.12223492639E+04  0.00000000000E+00 0.  1.
          1   -1    0    0  501    0  0.00000000000E+00 -0.00000000000E+00 -0.27635699413E+04  0.27635699413E+04  0.00000000000E+00 0. -1.
         23    2    1    2    0    0  0.85662539994E+03  0.11312427865E+04 -0.20358272104E+04  0.24832040158E+04  0.90512072321E+02 0.  0.
         11    1    3    3    0    0  0.71448105853E+03  0.97775856400E+03 -0.17771225988E+04  0.21505022026E+04  0.00000000000E+00 0. -1.
        -11    1    3    3    0    0  0.14214434141E+03  0.15348422254E+03 -0.25870461168E+03  0.33270181314E+03  0.00000000000E+00 0.  1.
         22    1    1    2    0    0 -0.85662539994E+03 -0.11312427865E+04  0.49460653305E+03  0.15027151894E+04  0.00000000000E+00 0.  1.
<mgrwt>
<rscale>  0 0.36758932E+04</rscale>
<asrwt>0</asrwt>
<pdfrwt beam="1">  1        1 0.42516460E+00 0.36758932E+04</pdfrwt>
<pdfrwt beam="2">  1       -1 0.18805374E+00 0.36758932E+04</pdfrwt>
<totfact> 0.12965966E-01</totfact>
</mgrwt>
</event>
<event>
 6    1  0.9562506E-007  0.7741191E+03  0.7818608E-02  0.9598253E-01
          1   -1    0    0  501    0  0.00000000000E+00  0.00000000000E+00  0.16756901886E+03  0.16756901886E+03  0.00000000000E+00 0. -1.
         -1   -1    0    0    0  501 -0.00000000000E+00 -0.00000000000E+00 -0.89405012535E+03  0.89405012535E+03  0.00000000000E+00 0.  1.
         23    2    1    2    0    0 -0.55271704748E+01 -0.32468007710E+03 -0.93362811796E+02  0.35008103760E+03  0.91610131440E+02 0.  0.
         11    1    3    3    0    0  0.21476568014E+02 -0.16703092028E+02 -0.26277604118E+00  0.27208552115E+02  0.00000000000E+00 0. -1.
        -11    1    3    3    0    0 -0.27003738489E+02 -0.30797698507E+03 -0.93100035755E+02  0.32287248549E+03  0.00000000000E+00 0.  1.
         22    1    1    2    0    0  0.55271704748E+01  0.32468007710E+03 -0.63311829469E+03  0.71153810660E+03  0.00000000000E+00 0.  1.
<mgrwt>
<rscale>  0 0.77411912E+03</rscale>
<asrwt>0</asrwt>
<pdfrwt beam="1">  1        1 0.25779849E-01 0.77411912E+03</pdfrwt>
<pdfrwt beam="2">  1       -1 0.13754618E+00 0.77411912E+03</pdfrwt>
<totfact> 0.83571270E+01</totfact>
</mgrwt>
</event>
<event>
 6    1  0.9562506E-007  0.1482374E+04  0.7818608E-02  0.8896259E-01
         -1   -1    0    0    0  501 -0.00000000000E+00  0.00000000000E+00  0.46998767230E+03  0.46998767230E+03  0.00000000000E+00 0.  1.
          1   -1    0    0  501    0  0.00000000000E+00 -0.00000000000E+00 -0.11688776392E+04  0.11688776392E+04  0.00000000000E+00 0. -1.
         23    2    1    2    0    0  0.13068263770E+03  0.39229129298E+03 -0.10269817567E+04  0.11110257214E+04  0.93360669651E+02 0.  0.
         11    1    3    3    0    0  0.32039458089E+02  0.24197882300E+03 -0.59587992212E+03  0.64393567943E+03  0.00000000000E+00 0. -1.
        -11    1    3    3    0    0  0.98643179614E+02  0.15031246997E+03 -0.43110183463E+03  0.46709004200E+03  0.00000000000E+00 0.  1.
         22    1    1    2    0    0 -0.13068263770E+03 -0.39229129298E+03  0.32809178982E+03  0.52783959011E+03  0.00000000000E+00 0.  1.
<mgrwt>
<rscale>  0 0.14823739E+04</rscale>
<asrwt>0</asrwt>
<pdfrwt beam="1">  1        1 0.17982733E+00 0.14823739E+04</pdfrwt>
<pdfrwt beam="2">  1       -1 0.72305797E-01 0.14823739E+04</pdfrwt>
<totfact> 0.21056769E+01</totfact>
</mgrwt>
</event>
<event>
 6    1  0.9562506E-007  0.2411254E+04  0.7818608E-02  0.8435302E-01
          2   -1    0    0  501    0  0.00000000000E+00  0.00000000000E+00  0.55221059339E+03  0.55221059339E+03  0.00000000000E+00 0. -1.
         -2   -1    0    0    0  501 -0.00000000000E+00 -0.00000000000E+00 -0.26322134348E+04  0.26322134348E+04  0.00000000000E+00 0.  1.
         23    2    1    2    0    0  0.45939386605E+03  0.10657720335E+04 -0.61860890271E+03  0.13182554946E+04  0.90597036572E+02 0.  0.
         13    1    3    3    0    0  0.23968038777E+03  0.60137712425E+03 -0.39145195165E+03  0.75652875973E+03  0.00000000000E+00 0.  1.
        -13    1    3    3    0    0  0.21971347828E+03  0.46439490926E+03 -0.22715695107E+03  0.56172673490E+03  0.00000000000E+00 0. -1.
         22    1    1    2    0    0 -0.45939386605E+03 -0.10657720335E+04 -0.14613939387E+04  0.18661685335E+04  0.00000000000E+00 0.  1.
<mgrwt>
<rscale>  0 0.24112537E+04</rscale>
<asrwt>0</asrwt>
<pdfrwt beam="1">  1        2 0.84955476E-01 0.24112537E+04</pdfrwt>
<pdfrwt beam="2">  1       -2 0.40495591E+00 0.24112537E+04</pdfrwt>
<totfact> 0.33923738E-01</totfact>
</mgrwt>
</event>
<event>
 6    1  0.9562506E-007  0.3314460E+04  0.7818608E-02  0.8159226E-01
         -2   -1    0    0    0  501 -0.00000000000E+00  0.00000000000E+00  0.18542192963E+04  0.18542192963E+04  0.00000000000E+00 0.  1.
          2   -1    0    0  501    0  0.00000000000E+00 -0.00000000000E+00 -0.14811687694E+04  0.14811687694E+04  0.00000000000E+00 0. -1.
         23    2    1    2    0    0  0.92342957996E+03 -0.65786578516E+03  0.14011633095E+04  0.18048569572E+04  0.93490296524E+02 0.  0.
         11    1    3    3    0    0  0.24340587715E+03 -0.22415173714E+03  0.42296696007E+03  0.53702092288E+03  0.00000000000E+00 0.  1.
        -11    1    3    3    0    0  0.68002370280E+03 -0.43371404802E+03  0.97819634945E+03  0.12678360343E+04  0.00000000000E+00 0. -1.
         22    1    1    2    0    0 -0.92342957996E+03  0.65786578516E+03 -0.10281127826E+04  0.15305311085E+04  0.00000000000E+00 0. -1.
<mgrwt>
<rscale>  0 0.33144603E+04</rscale>
<asrwt>0</asrwt>
<pdfrwt beam="1">  1        2 0.22787212E+00 0.33144603E+04</pdfrwt>
<pdfrwt beam="2">  1       -2 0.28526451E+00 0.33144603E+04</pdfrwt>
<totfact> 0.42441887E-01</totfact>
</mgrwt>
</event>
<event>
 6    1  0.1593575E-006  0.1635419E+04  0.7818608E-02  0.8799080E-01
          2   -1    0    0  501    0  0.00000000000E+00  0.00000000000E+00  0.81921193595E+03  0.81921193595E+03  0.00000000000E+00 0. -1.
         -2   -1    0    0    0  501 -0.00000000000E+00 -0.00000000000E+00 -0.81620943834E+03  0.81620943834E+03  0.00000000000E+00 0.  1.
         23    2    1    2    0    0  0.18434727334E+02  0.13528977586E+03 -0.80215208507E+03  0.81877147095E+03  0.91080137384E+02 0.  0.
         11    1    3    3    0    0  0.33026147615E+02  0.41083370614E+02 -0.47784484431E+03  0.48074345029E+03  0.00000000000E+00 0. -1.
        -11    1    3    3    0    0 -0.14591420281E+02  0.94206405245E+02 -0.32430724076E+03  0.33802802065E+03  0.00000000000E+00 0.  1.
         22    1    1    2    0    0 -0.18434727334E+02 -0.13528977586E+03  0.80515458268E+03  0.81664990335E+03  0.00000000000E+00 0. -1.
<mgrwt>
<rscale>  0 0.16354186E+04</rscale>
<asrwt>0</asrwt>
<pdfrwt beam="1">  1        2 0.12603260E+00 0.16354186E+04</pdfrwt>
<pdfrwt beam="2">  1       -2 0.12557068E+00 0.16354186E+04</pdfrwt>
<totfact> 0.15124844E+01</totfact>
</mgrwt>
</event>
<event>
 6    1  0.9562506E-007  0.2292804E+04  0.7818608E-02  0.8480764E-01
         -2   -1    0    0    0  501 -0.00000000000E+00  0.00000000000E+00  0.94020287507E+03  0.94020287507E+03  0.00000000000E+00 0.  1.
          2   -1    0    0  501    0  0.00000000000E+00 -0.00000000000E+00 -0.13978239223E+04  0.13978239223E+04  0.00000000000E+00 0. -1.
         23    2    1    2    0    0 -0.54110050450E+03 -0.58535233962E+03 -0.10666883140E+04  0.13348368587E+04  0.92403260879E+02 0.  0.
         13    1    3    3    0    0 -0.42529934235E+03 -0.43283323285E+03 -0.86601934476E+03  0.10574562135E+04  0.00000000000E+00 0. -1.
        -13    1    3    3    0    0 -0.11580116215E+03 -0.15251910677E+03 -0.20066896924E+03  0.27738064514E+03  0.00000000000E+00 0.  1.
         22    1    1    2    0    0  0.54110050450E+03  0.58535233962E+03  0.60906726682E+03  0.10031899386E+04  0.00000000000E+00 0.  1.
<mgrwt>
<rscale>  0 0.22928045E+04</rscale>
<asrwt>0</asrwt>
<pdfrwt beam="1">  1        2 0.21504983E+00 0.22928045E+04</pdfrwt>
<pdfrwt beam="2">  1       -2 0.14464660E+00 0.22928045E+04</pdfrwt>
<totfact> 0.43422464E+00</totfact>
</mgrwt>
</event>
<event>
 6    1  0.1243924E-006  0.2061167E+04  0.7818608E-02  0.8578545E-01
         -2   -1    0    0    0  501 -0.00000000000E+00  0.00000000000E+00  0.71152331332E+03  0.71152331332E+03  0.00000000000E+00 0.  1.
          2   -1    0    0  501    0  0.00000000000E+00 -0.00000000000E+00 -0.14927162203E+04  0.14927162203E+04  0.00000000000E+00 0. -1.
         23    2    1    2    0    0 -0.85057332034E+01 -0.62065704064E+03 -0.12685131774E+04  0.14150826699E+04  0.89698226485E+02 0.  0.
         11    1    3    3    0    0 -0.21170152197E+02 -0.30961236150E+03 -0.53957592905E+03  0.62245495656E+03  0.00000000000E+00 0.  1.
        -11    1    3    3    0    0  0.12664418994E+02 -0.31104467914E+03 -0.72893724832E+03  0.79262771332E+03  0.00000000000E+00 0. -1.
         22    1    1    2    0    0  0.85057332034E+01  0.62065704064E+03  0.48732027042E+03  0.78915686372E+03  0.00000000000E+00 0.  1.
<mgrwt>
<rscale>  0 0.20611670E+04</rscale>
<asrwt>0</asrwt>
<pdfrwt beam="1">  1        2 0.22964865E+00 0.20611670E+04</pdfrwt>
<pdfrwt beam="2">  1       -2 0.10946512E+00 0.20611670E+04</pdfrwt>
<totfact> 0.78771838E+00</totfact>
</mgrwt>
</event>
<event>
 6    1  0.9562506E-007  0.3732321E+04  0.7818608E-02  0.8060837E-01
          1   -1    0    0  501    0  0.00000000000E+00  0.00000000000E+00  0.13196371374E+04  0.13196371374E+04  0.00000000000E+00 0. -1.
         -1   -1    0    0    0  501 -0.00000000000E+00 -0.00000000000E+00 -0.26390242117E+04  0.26390242117E+04  0.00000000000E+00 0.  1.
         23    2    1    2    0    0 -0.32148562506E+03  0.13307196845E+04 -0.20034713339E+04  0.24282564484E+04  0.91455494629E+02 0.  0.
         11    1    3    3    0    0 -0.23004268297E+03  0.10566717303E+04 -0.15298729655E+04  0.18734956825E+04  0.00000000000E+00 0. -1.
        -11    1    3    3    0    0 -0.91442942088E+02  0.27404795419E+03 -0.47359836839E+03  0.55476076591E+03  0.00000000000E+00 0.  1.
         22    1    1    2    0    0  0.32148562506E+03 -0.13307196845E+04  0.68408425964E+03  0.15304049007E+04  0.00000000000E+00 0. -1.
<mgrwt>
<rscale>  0 0.37323206E+04</rscale>
<asrwt>0</asrwt>
<pdfrwt beam="1">  1        1 0.20302110E+00 0.37323206E+04</pdfrwt>
<pdfrwt beam="2">  1       -1 0.40600372E+00 0.37323206E+04</pdfrwt>
<totfact> 0.45566907E-02</totfact>
</mgrwt>
</event>
<event>
 6    1  0.9562506E-007  0.3072730E+04  0.7818608E-02  0.8223262E-01
          2   -1    0    0  501    0  0.00000000000E+00  0.00000000000E+00  0.80825374087E+03  0.80825374087E+03  0.00000000000E+00 0. -1.
         -2   -1    0    0    0  501 -0.00000000000E+00 -0.00000000000E+00 -0.29203919679E+04  0.29203919679E+04  0.00000000000E+00 0.  1.
         23    2    1    2    0    0  0.13511829836E+04  0.38323497897E+03 -0.30526523272E+03  0.14401189945E+04  0.90506087952E+02 0.  0.
         13    1    3    3    0    0  0.34302713349E+03  0.11395789198E+03 -0.11582204109E+03  0.37956390853E+03  0.00000000000E+00 0. -1.
        -13    1    3    3    0    0  0.10081558501E+04  0.26927708698E+03 -0.18944319163E+03  0.10605550860E+04  0.00000000000E+00 0.  1.
         22    1    1    2    0    0 -0.13511829836E+04 -0.38323497897E+03 -0.18068729943E+04  0.22885267142E+04  0.00000000000E+00 0. -1.
<mgrwt>
<rscale>  0 0.30727302E+04</rscale>
<asrwt>0</asrwt>
<pdfrwt beam="1">  1        2 0.12434673E+00 0.30727302E+04</pdfrwt>
<pdfrwt beam="2">  1       -2 0.44929108E+00 0.30727302E+04</pdfrwt>
<totfact> 0.10128804E-01</totfact>
</mgrwt>
</event>
<event>
 6    1  0.9562506E-007  0.2354784E+04  0.7818608E-02  0.8456628E-01
          2   -1    0    0  501    0  0.00000000000E+00  0.00000000000E+00  0.32160556431E+04  0.32160556431E+04  0.00000000000E+00 0. -1.
         -2   -1    0    0    0  501 -0.00000000000E+00 -0.00000000000E+00 -0.43104114167E+03  0.43104114167E+03  0.00000000000E+00 0.  1.
         23    2    1    2    0    0  0.74710522430E+03  0.84622542056E+03  0.19033979702E+04  0.22147869765E+04  0.89965771229E+02 0.  0.
         11    1    3    3    0    0  0.24254947461E+03  0.22963551831E+03  0.50830586530E+03  0.60822493504E+03  0.00000000000E+00 0. -1.
        -11    1    3    3    0    0  0.50455574969E+03  0.61658990225E+03  0.13950921049E+04  0.16065620415E+04  0.00000000000E+00 0.  1.
         22    1    1    2    0    0 -0.74710522430E+03 -0.84622542056E+03  0.88161653126E+03  0.14323098082E+04  0.00000000000E+00 0. -1.
<mgrwt>
<rscale>  0 0.23547843E+04</rscale>
<asrwt>0</asrwt>
<pdfrwt beam="1">  1        2 0.49477778E+00 0.23547843E+04</pdfrwt>
<pdfrwt beam="2">  1       -2 0.66314024E-01 0.23547843E+04</pdfrwt>
<totfact> 0.23916213E+00</totfact>
</mgrwt>
</event>
<event>
 6    1  0.9562506E-007  0.3171791E+04  0.7818608E-02  0.8196307E-01
          1   -1    0    0  501    0  0.00000000000E+00  0.00000000000E+00  0.34671899265E+04  0.34671899265E+04  0.00000000000E+00 0. -1.
         -1   -1    0    0    0  501 -0.00000000000E+00 -0.00000000000E+00 -0.72539007899E+03  0.72539007899E+03  0.00000000000E+00 0.  1.
         23    2    1    2    0    0 -0.11004618099E+04  0.72141465420E+03  0.20503829440E+03  0.13348511038E+04  0.91276879696E+02 0.  0.
         11    1    3    3    0    0 -0.60828583745E+03  0.34650283967E+03  0.12182106974E+03  0.71057459213E+03  0.00000000000E+00 0.  1.
        -11    1    3    3    0    0 -0.49217597244E+03  0.37491181453E+03  0.83217224656E+02  0.62427651165E+03  0.00000000000E+00 0. -1.
         22    1    1    2    0    0  0.11004618099E+04 -0.72141465420E+03  0.25367615532E+04  0.28577289018E+04  0.00000000000E+00 0. -1.
<mgrwt>
<rscale>  0 0.31717914E+04</rscale>
<asrwt>0</asrwt>
<pdfrwt beam="1">  1        1 0.53341383E+00 0.31717914E+04</pdfrwt>
<pdfrwt beam="2">  1       -1 0.11159848E+00 0.31717914E+04</pdfrwt>
<totfact> 0.16382785E-01</totfact>
</mgrwt>
</event>
<event>
 6    1  0.9562506E-007  0.3220351E+04  0.7818608E-02  0.8183463E-01
         -2   -1    0    0    0  501 -0.00000000000E+00  0.00000000000E+00  0.79821905761E+03  0.79821905761E+03  0.00000000000E+00 0.  1.
          2   -1    0    0  501    0  0.00000000000E+00 -0.00000000000E+00 -0.32480614520E+04  0.32480614520E+04  0.00000000000E+00 0. -1.
         23    2    1    2    0    0 -0.11053807655E+04 -0.10110102068E+04 -0.48848470964E+03  0.15782990991E+04  0.91664932467E+02 0.  0.
         11    1    3    3    0    0 -0.85521634843E+03 -0.77674941335E+03 -0.33593751196E+03  0.12031577892E+04  0.00000000000E+00 0. -1.
        -11    1    3    3    0    0 -0.25016441702E+03 -0.23426079349E+03 -0.15254719767E+03  0.37514130994E+03  0.00000000000E+00 0.  1.
         22    1    1    2    0    0  0.11053807655E+04  0.10110102068E+04 -0.19613576848E+04  0.24679814105E+04  0.00000000000E+00 0. -1.
<mgrwt>
<rscale>  0 0.32203506E+04</rscale>
<asrwt>0</asrwt>
<pdfrwt beam="1">  1        2 0.49970175E+00 0.32203506E+04</pdfrwt>
<pdfrwt beam="2">  1       -2 0.12280293E+00 0.32203506E+04</pdfrwt>
<totfact> 0.50764207E-01</totfact>
</mgrwt>
</event>
<event>
 6    1  0.9562506E-007  0.2464794E+04  0.7818608E-02  0.8415636E-01
          1   -1    0    0  501    0  0.00000000000E+00  0.00000000000E+00  0.24866914352E+04  0.24866914352E+04  0.00000000000E+00 0. -1.
         -1   -1    0    0    0  501 -0.00000000000E+00 -0.00000000000E+00 -0.61077237791E+03  0.61077237791E+03  0.00000000000E+00 0.  1.
         23    2    1    2    0    0  0.14629634274E+03  0.87553448628E+03 -0.13202392884E+03  0.90205991129E+03  0.91205861688E+02 0.  0.
         11    1    3    3    0    0 -0.25723787767E+01  0.12263279911E+03  0.34910261201E+01  0.12270944468E+03  0.00000000000E+00 0. -1.
        -11    1    3    3    0    0  0.14886872151E+03  0.75290168717E+03 -0.13551495496E+03  0.77935046661E+03  0.00000000000E+00 0.  1.
         22    1    1    2    0    0 -0.14629634274E+03 -0.87553448628E+03  0.20079429861E+04  0.21954039018E+04  0.00000000000E+00 0. -1.
<mgrwt>
<rscale>  0 0.24647941E+04</rscale>
<asrwt>0</asrwt>
<pdfrwt beam="1">  1        1 0.38256791E+00 0.24647941E+04</pdfrwt>
<pdfrwt beam="2">  1       -1 0.93964983E-01 0.24647941E+04</pdfrwt>
<totfact> 0.13529272E+00</totfact>
</mgrwt>
</event>
<event>
 6    1  0.9562506E-007  0.5808095E+04  0.7818608E-02  0.7714662E-01
         -2   -1    0    0    0  501 -0.00000000000E+00  0.00000000000E+00  0.26125225515E+04  0.26125225515E+04  0.00000000000E+00 0.  1.
          2   -1    0    0  501    0  0.00000000000E+00 -0.00000000000E+00 -0.32281026653E+04  0.32281026653E+04  0.00000000000E+00 0. -1.
         23    2    1    2    0    0 -0.17976091393E+04 -0.11093824286E+04  0.16950403459E+04  0.27099551768E+04  0.92559687486E+02 0.  0.
         13    1    3    3    0    0 -0.12696467041E+04 -0.77418512682E+03  0.11393986223E+04  0.18733911990E+04  0.00000000000E+00 0. -1.
        -13    1    3    3    0    0 -0.52796243512E+03 -0.33519730175E+03  0.55564172366E+03  0.83656397787E+03  0.00000000000E+00 0.  1.
         22    1    1    2    0    0  0.17976091393E+04  0.11093824286E+04 -0.23106204597E+04  0.31306700400E+04  0.00000000000E+00 0. -1.
<mgrwt>
<rscale>  0 0.58080947E+04</rscale>
<asrwt>0</asrwt>
<pdfrwt beam="1">  1        2 0.49663118E+00 0.58080947E+04</pdfrwt>
<pdfrwt beam="2">  1       -2 0.40192654E+00 0.58080947E+04</pdfrwt>
<totfact> 0.61234716E-03</totfact>
</mgrwt>
</event>
<event>
 6    1  0.1279748E-006  0.3955818E+04  0.7818608E-02  0.8013519E-01
         -1   -1    0    0    0  501 -0.00000000000E+00  0.00000000000E+00  0.11188529362E+04  0.11188529362E+04  0.00000000000E+00 0.  1.
          1   -1    0    0  501    0  0.00000000000E+00 -0.00000000000E+00 -0.34965480700E+04  0.34965480700E+04  0.00000000000E+00 0. -1.
         23    2    1    2    0    0  0.92414141863E+03  0.57126991010E+03 -0.31164260354E+04  0.33015859444E+04  0.89285174042E+02 0.  0.
         11    1    3    3    0    0  0.47060146004E+03  0.34052291122E+03 -0.16179461633E+04  0.17190611899E+04  0.00000000000E+00 0.  1.
        -11    1    3    3    0    0  0.45353995859E+03  0.23074699889E+03 -0.14984798721E+04  0.15825247545E+04  0.00000000000E+00 0. -1.
         22    1    1    2    0    0 -0.92414141863E+03 -0.57126991010E+03  0.73873090162E+03  0.13138150619E+04  0.00000000000E+00 0.  1.
<mgrwt>
<rscale>  0 0.39558175E+04</rscale>
<asrwt>0</asrwt>
<pdfrwt beam="1">  1        1 0.53793048E+00 0.39558175E+04</pdfrwt>
<pdfrwt beam="2">  1       -1 0.17213122E+00 0.39558175E+04</pdfrwt>
<totfact> 0.46809400E-02</totfact>
</mgrwt>
</event>
<event>
 6    1  0.9562506E-007  0.1917351E+04  0.7818608E-02  0.8646267E-01
         -1   -1    0    0    0  501 -0.00000000000E+00  0.00000000000E+00  0.22145411267E+04  0.22145411267E+04  0.00000000000E+00 0.  1.
          1   -1    0    0  501    0  0.00000000000E+00 -0.00000000000E+00 -0.41501108135E+03  0.41501108135E+03  0.00000000000E+00 0. -1.
         23    2    1    2    0    0  0.93072812246E+03 -0.24184757372E+02  0.12003022911E+04  0.15223423626E+04  0.99804500781E+02 0.  0.
         11    1    3    3    0    0  0.53460277701E+03  0.16331337434E+02  0.75090022241E+03  0.92190996620E+03  0.00000000000E+00 0. -1.
        -11    1    3    3    0    0  0.39612534545E+03 -0.40516094806E+02  0.44940206874E+03  0.60043239638E+03  0.00000000000E+00 0.  1.
         22    1    1    2    0    0 -0.93072812246E+03  0.24184757372E+02  0.59922775417E+03  0.11072098454E+04  0.00000000000E+00 0. -1.
<mgrwt>
<rscale>  0 0.19173514E+04</rscale>
<asrwt>0</asrwt>
<pdfrwt beam="1">  1        1 0.63847860E-01 0.19173514E+04</pdfrwt>
<pdfrwt beam="2">  1       -1 0.34069863E+00 0.19173514E+04</pdfrwt>
<totfact> 0.95685073E-01</totfact>
</mgrwt>
</event>
<event>
 6    1  0.9562506E-007  0.1518020E+04  0.7818608E-02  0.8872558E-01
          1   -1    0    0  501    0  0.00000000000E+00  0.00000000000E+00  0.18816903024E+04  0.18816903024E+04  0.00000000000E+00 0. -1.
         -1   -1    0    0    0  501 -0.00000000000E+00 -0.00000000000E+00 -0.30615873338E+03  0.30615873338E+03  0.00000000000E+00 0.  1.
         23    2    1    2    0    0  0.10395073500E+03 -0.74904212573E+03  0.77065650100E+03  0.10834515817E+04  0.89922332828E+02 0.  0.
         13    1    3    3    0    0  0.84257565181E+02 -0.28849382517E+03  0.29923194848E+03  0.42410822138E+03  0.00000000000E+00 0. -1.
        -13    1    3    3    0    0  0.19693169823E+02 -0.46054830056E+03  0.47142455252E+03  0.65934336032E+03  0.00000000000E+00 0.  1.
         22    1    1    2    0    0 -0.10395073500E+03  0.74904212573E+03  0.80487506797E+03  0.11043974540E+04  0.00000000000E+00 0.  1.
<mgrwt>
<rscale>  0 0.15180197E+04</rscale>
<asrwt>0</asrwt>
<pdfrwt beam="1">  1        1 0.28949081E+00 0.15180197E+04</pdfrwt>
<pdfrwt beam="2">  1       -1 0.47101345E-01 0.15180197E+04</pdfrwt>
<totfact> 0.15572390E+01</totfact>
</mgrwt>
</event>
<event>
 6    1  0.9562506E-007  0.2611364E+04  0.7818608E-02  0.8364352E-01
         -1   -1    0    0    0  501 -0.00000000000E+00  0.00000000000E+00  0.44780644685E+03  0.44780644685E+03  0.00000000000E+00 0.  1.
          1   -1    0    0  501    0  0.00000000000E+00 -0.00000000000E+00 -0.38070127546E+04  0.38070127546E+04  0.00000000000E+00 0. -1.
         23    2    1    2    0    0 -0.97336580925E+03  0.55214480195E+03 -0.58991388034E+03  0.12679671078E+04  0.86239893673E+02 0.  0.
         13    1    3    3    0    0 -0.21971926380E+03  0.16727069227E+03 -0.14370461428E+03  0.31129898095E+03  0.00000000000E+00 0.  1.
        -13    1    3    3    0    0 -0.75364654546E+03  0.38487410968E+03 -0.44620926606E+03  0.95666812683E+03  0.00000000000E+00 0. -1.
         22    1    1    2    0    0  0.97336580925E+03 -0.55214480195E+03 -0.27692924274E+04  0.29868520937E+04  0.00000000000E+00 0. -1.
<mgrwt>
<rscale>  0 0.26113635E+04</rscale>
<asrwt>0</asrwt>
<pdfrwt beam="1">  1        1 0.58569428E+00 0.26113635E+04</pdfrwt>
<pdfrwt beam="2">  1       -1 0.68893298E-01 0.26113635E+04</pdfrwt>
<totfact> 0.26402958E-01</totfact>
</mgrwt>
</event>
<event>
 6    1  0.9562506E-007  0.2468942E+04  0.7818608E-02  0.8414134E-01
         -2   -1    0    0    0  501 -0.00000000000E+00  0.00000000000E+00  0.10698800269E+04  0.10698800269E+04  0.00000000000E+00 0.  1.
          2   -1    0    0  501    0  0.00000000000E+00 -0.00000000000E+00 -0.14243830910E+04  0.14243830910E+04  0.00000000000E+00 0. -1.
         23    2    1    2    0    0  0.10962783465E+04 -0.10447247668E+02  0.39206832191E+03  0.11678754700E+04  0.90995529478E+02 0.  0.
         11    1    3    3    0    0  0.34135894963E+03  0.36107283994E+02  0.10644905933E+03  0.35938985891E+03  0.00000000000E+00 0.  1.
        -11    1    3    3    0    0  0.75491939690E+03 -0.46554531663E+02  0.28561926258E+03  0.80848561112E+03  0.00000000000E+00 0. -1.
         22    1    1    2    0    0 -0.10962783465E+04  0.10447247668E+02 -0.74657138596E+03  0.13263876479E+04  0.00000000000E+00 0.  1.
<mgrwt>
<rscale>  0 0.24689423E+04</rscale>
<asrwt>0</asrwt>
<pdfrwt beam="1">  1        2 0.21913586E+00 0.24689423E+04</pdfrwt>
<pdfrwt beam="2">  1       -2 0.16459693E+00 0.24689423E+04</pdfrwt>
<totfact> 0.29209778E+00</totfact>
</mgrwt>
</event>
<event>
 6    1  0.9562506E-007  0.1788459E+04  0.7818608E-02  0.8712461E-01
          1   -1    0    0  501    0  0.00000000000E+00  0.00000000000E+00  0.80171331749E+03  0.80171331749E+03  0.00000000000E+00 0. -1.
         -1   -1    0    0    0  501 -0.00000000000E+00 -0.00000000000E+00 -0.99742132951E+03  0.99742132951E+03  0.00000000000E+00 0.  1.
         23    2    1    2    0    0  0.45634664764E+03 -0.30815298218E+03 -0.80371480712E+03  0.97884031803E+03  0.94659145199E+02 0.  0.
         11    1    3    3    0    0  0.37391557226E+03 -0.29109241861E+03 -0.69909303599E+03  0.84455830132E+03  0.00000000000E+00 0.  1.
        -11    1    3    3    0    0  0.82431075376E+02 -0.17060563570E+02 -0.10462177113E+03  0.13428201671E+03  0.00000000000E+00 0. -1.
         22    1    1    2    0    0 -0.45634664764E+03  0.30815298218E+03  0.60800679511E+03  0.82029432897E+03  0.00000000000E+00 0. -1.
<mgrwt>
<rscale>  0 0.17884585E+04</rscale>
<asrwt>0</asrwt>
<pdfrwt beam="1">  1        1 0.12334051E+00 0.17884585E+04</pdfrwt>
<pdfrwt beam="2">  1       -1 0.15344943E+00 0.17884585E+04</pdfrwt>
<totfact> 0.68270252E+00</totfact>
</mgrwt>
</event>
<event>
 6    1  0.9562506E-007  0.9454104E+03  0.7818608E-02  0.9370531E-01
         -1   -1    0    0    0  501 -0.00000000000E+00  0.00000000000E+00  0.73025503770E+03  0.73025503770E+03  0.00000000000E+00 0.  1.
          1   -1    0    0  501    0  0.00000000000E+00 -0.00000000000E+00 -0.30598930091E+03  0.30598930091E+03  0.00000000000E+00 0. -1.
         23    2    1    2    0    0 -0.27526420916E+03 -0.11519655803E+03 -0.18179574453E+03  0.36070666315E+03  0.89548714569E+02 0.  0.
         11    1    3    3    0    0 -0.14971274688E+03 -0.10314223532E+03 -0.13389751083E+03  0.22578921739E+03  0.00000000000E+00 0. -1.
        -11    1    3    3    0    0 -0.12555146228E+03 -0.12054322713E+02 -0.47898233703E+02  0.13491744575E+03  0.00000000000E+00 0.  1.
         22    1    1    2    0    0  0.27526420916E+03  0.11519655803E+03  0.60606148132E+03  0.67553767546E+03  0.00000000000E+00 0.  1.
<mgrwt>
<rscale>  0 0.94541045E+03</rscale>
<asrwt>0</asrwt>
<pdfrwt beam="1">  1        1 0.47075277E-01 0.94541045E+03</pdfrwt>
<pdfrwt beam="2">  1       -1 0.11234693E+00 0.94541045E+03</pdfrwt>
<totfact> 0.62394643E+01</totfact>
</mgrwt>
</event>
<event>
 6    1  0.9562506E-007  0.2923710E+04  0.7818608E-02  0.8265858E-01
          2   -1    0    0  501    0  0.00000000000E+00  0.00000000000E+00  0.21733005133E+04  0.21733005133E+04  0.00000000000E+00 0. -1.
         -2   -1    0    0    0  501 -0.00000000000E+00 -0.00000000000E+00 -0.98330634080E+03  0.98330634080E+03  0.00000000000E+00 0.  1.
         23    2    1    2    0    0 -0.59871978046E+03  0.55978423441E+03 -0.70927398150E+03  0.10880220032E+04  0.94332041097E+02 0.  0.
         11    1    3    3    0    0 -0.23719724537E+03  0.22756474259E+03 -0.34606513515E+03  0.47729374922E+03  0.00000000000E+00 0. -1.
        -11    1    3    3    0    0 -0.36152253509E+03  0.33221949182E+03 -0.36320884635E+03  0.61072825396E+03  0.00000000000E+00 0.  1.
         22    1    1    2    0    0  0.59871978046E+03 -0.55978423441E+03  0.18992681540E+04  0.20685848509E+04  0.00000000000E+00 0. -1.
<mgrwt>
<rscale>  0 0.29237101E+04</rscale>
<asrwt>0</asrwt>
<pdfrwt beam="1">  1        2 0.33435392E+00 0.29237101E+04</pdfrwt>
<pdfrwt beam="2">  1       -2 0.15127790E+00 0.29237101E+04</pdfrwt>
<totfact> 0.13488354E+00</totfact>
</mgrwt>
</event>
<event>
 6    1  0.9562506E-007  0.3691090E+04  0.7818608E-02  0.8069939E-01
          2   -1    0    0  501    0  0.00000000000E+00  0.00000000000E+00  0.36909203294E+04  0.36909203294E+04  0.00000000000E+00 0. -1.
         -2   -1    0    0    0  501 -0.00000000000E+00 -0.00000000000E+00 -0.92281496890E+03  0.92281496890E+03  0.00000000000E+00 0.  1.
         23    2    1    2    0    0  0.14090259733E+03 -0.66458515436E+03  0.35282618775E+04  0.35942428267E+04  0.91775006369E+02 0.  0.
         13    1    3    3    0    0  0.17546755398E+02 -0.16541373212E+02  0.84832653211E+02  0.88193450457E+02  0.00000000000E+00 0. -1.
        -13    1    3    3    0    0  0.12335584194E+03 -0.64804378115E+03  0.34434292243E+04  0.35060493763E+04  0.00000000000E+00 0.  1.
         22    1    1    2    0    0 -0.14090259733E+03  0.66458515436E+03 -0.76015651700E+03  0.10194924716E+04  0.00000000000E+00 0.  1.
<mgrwt>
<rscale>  0 0.36910901E+04</rscale>
<asrwt>0</asrwt>
<pdfrwt beam="1">  1        2 0.56783389E+00 0.36910901E+04</pdfrwt>
<pdfrwt beam="2">  1       -2 0.14197154E+00 0.36910901E+04</pdfrwt>
<totfact> 0.16570363E-01</totfact>
</mgrwt>
</event>
<event>
 6    1  0.9562506E-007  0.5979777E+03  0.7818608E-02  0.9909611E-01
          1   -1    0    0  501    0  0.00000000000E+00  0.00000000000E+00  0.83296100929E+03  0.83296100929E+03  0.00000000000E+00 0. -1.
         -1   -1    0    0    0  501 -0.00000000000E+00 -0.00000000000E+00 -0.10732114525E+03  0.10732114525E+03  0.00000000000E+00 0.  1.
         23    2    1    2    0    0 -0.31652558245E+02 -0.24500865301E+03  0.61615887309E+03  0.67006518269E+03  0.91128852054E+02 0.  0.
         11    1    3    3    0    0 -0.56677142603E+02 -0.17378121537E+03  0.37169344591E+03  0.41420795144E+03  0.00000000000E+00 0.  1.
        -11    1    3    3    0    0  0.25024584358E+02 -0.71227437645E+02  0.24446542718E+03  0.25585723125E+03  0.00000000000E+00 0. -1.
         22    1    1    2    0    0  0.31652558245E+02  0.24500865301E+03  0.10948099096E+03  0.27021697185E+03  0.00000000000E+00 0.  1.
<mgrwt>
<rscale>  0 0.59797769E+03</rscale>
<asrwt>0</asrwt>
<pdfrwt beam="1">  1        1 0.12814784E+00 0.59797769E+03</pdfrwt>
<pdfrwt beam="2">  1       -1 0.16510946E-01 0.59797769E+03</pdfrwt>
<totfact> 0.58888250E+02</totfact>
</mgrwt>
</event>
<event>
 6    1  0.9562506E-007  0.1821811E+04  0.7818608E-02  0.8694786E-01
         -1   -1    0    0    0  501 -0.00000000000E+00  0.00000000000E+00  0.80659894237E+03  0.80659894237E+03  0.00000000000E+00 0.  1.
          1   -1    0    0  501    0  0.00000000000E+00 -0.00000000000E+00 -0.10287002528E+04  0.10287002528E+04  0.00000000000E+00 0. -1.
         23    2    1    2    0    0 -0.85261444103E+03  0.24057950018E+03 -0.31434895118E+03  0.94460311451E+03  0.92897254419E+02 0.  0.
         11    1    3    3    0    0 -0.25799944882E+03  0.32810102568E+02 -0.11038529184E+03  0.28253341585E+03  0.00000000000E+00 0. -1.
        -11    1    3    3    0    0 -0.59461499221E+03  0.20776939761E+03 -0.20396365934E+03  0.66206969865E+03  0.00000000000E+00 0.  1.
         22    1    1    2    0    0  0.85261444103E+03 -0.24057950018E+03  0.92247640718E+02  0.89069608070E+03  0.00000000000E+00 0.  1.
<mgrwt>
<rscale>  0 0.18218107E+04</rscale>
<asrwt>0</asrwt>
<pdfrwt beam="1">  1        1 0.15826158E+00 0.18218107E+04</pdfrwt>
<pdfrwt beam="2">  1       -1 0.12409215E+00 0.18218107E+04</pdfrwt>
<totfact> 0.77154217E+00</totfact>
</mgrwt>
</event>
<event>
 6    1  0.1275776E-006  0.2835586E+04  0.7818608E-02  0.8292305E-01
         -1   -1    0    0    0  501 -0.00000000000E+00  0.00000000000E+00  0.12770217975E+04  0.12770217975E+04  0.00000000000E+00 0.  1.
          1   -1    0    0  501    0  0.00000000000E+00 -0.00000000000E+00 -0.15740823114E+04  0.15740823114E+04  0.00000000000E+00 0. -1.
         23    2    1    2    0    0 -0.25331995282E+03 -0.66801535359E+03 -0.13782893561E+04  0.15551599278E+04  0.91789654438E+02 0.  0.
         13    1    3    3    0    0 -0.79500554945E+02 -0.21654628254E+03 -0.35634699794E+03  0.42449477460E+03  0.00000000000E+00 0. -1.
        -13    1    3    3    0    0 -0.17381939788E+03 -0.45146907106E+03 -0.10219423582E+04  0.11306651532E+04  0.00000000000E+00 0.  1.
         22    1    1    2    0    0  0.25331995282E+03  0.66801535359E+03  0.10812288422E+04  0.12959441810E+04  0.00000000000E+00 0.  1.
<mgrwt>
<rscale>  0 0.28355863E+04</rscale>
<asrwt>0</asrwt>
<pdfrwt beam="1">  1        1 0.24216651E+00 0.28355863E+04</pdfrwt>
<pdfrwt beam="2">  1       -1 0.19646489E+00 0.28355863E+04</pdfrwt>
<totfact> 0.79909360E-01</totfact>
</mgrwt>
</event>
<event>
 6    1  0.9562506E-007  0.4181927E+04  0.7818608E-02  0.7968819E-01
         -2   -1    0    0    0  501 -0.00000000000E+00  0.00000000000E+00  0.22065869887E+04  0.22065869887E+04  0.00000000000E+00 0.  1.
          2   -1    0    0  501    0  0.00000000000E+00 -0.00000000000E+00 -0.19813988867E+04  0.19813988867E+04  0.00000000000E+00 0. -1.
         23    2    1    2    0    0 -0.64152340490E+03  0.67872576664E+02  0.21034353672E+04  0.22020423326E+04  0.91603081570E+02 0.  0.
         11    1    3    3    0    0 -0.37996738671E+03  0.84803937599E+02  0.12806065564E+04  0.13384767742E+04  0.00000000000E+00 0.  1.
        -11    1    3    3    0    0 -0.26155601819E+03 -0.16931360934E+02  0.82282881089E+03  0.86356555840E+03  0.00000000000E+00 0. -1.
         22    1    1    2    0    0  0.64152340490E+03 -0.67872576664E+02 -0.18782472653E+04  0.19859435428E+04  0.00000000000E+00 0. -1.
<mgrwt>
<rscale>  0 0.41819273E+04</rscale>
<asrwt>0</asrwt>
<pdfrwt beam="1">  1        2 0.30483060E+00 0.41819273E+04</pdfrwt>
<pdfrwt beam="2">  1       -2 0.33947492E+00 0.41819273E+04</pdfrwt>
<totfact> 0.96360897E-02</totfact>
</mgrwt>
</event>
<event>
 6    1  0.9562506E-007  0.1379351E+04  0.7818608E-02  0.8968902E-01
         -2   -1    0    0    0  501 -0.00000000000E+00  0.00000000000E+00  0.18290640058E+03  0.18290640058E+03  0.00000000000E+00 0.  1.
          2   -1    0    0  501    0  0.00000000000E+00 -0.00000000000E+00 -0.26005227136E+04  0.26005227136E+04  0.00000000000E+00 0. -1.
         23    2    1    2    0    0 -0.32977585983E+03  0.41170827958E+03 -0.21010478400E+04  0.21682288026E+04  0.92511023068E+02 0.  0.
         11    1    3    3    0    0 -0.11024383327E+03  0.74513486858E+02 -0.50213691897E+03  0.51946842819E+03  0.00000000000E+00 0. -1.
        -11    1    3    3    0    0 -0.21953202656E+03  0.33719479272E+03 -0.15989109210E+04  0.16487603744E+04  0.00000000000E+00 0.  1.
         22    1    1    2    0    0  0.32977585983E+03 -0.41170827958E+03 -0.31656847298E+03  0.61520031151E+03  0.00000000000E+00 0.  1.
<mgrwt>
<rscale>  0 0.13793509E+04</rscale>
<asrwt>0</asrwt>
<pdfrwt beam="1">  1        2 0.40008041E+00 0.13793509E+04</pdfrwt>
<pdfrwt beam="2">  1       -2 0.28139447E-01 0.13793509E+04</pdfrwt>
<totfact> 0.34404571E+01</totfact>
</mgrwt>
</event>
<event>
 6    1  0.9562506E-007  0.1814770E+04  0.7818608E-02  0.8698484E-01
         -1   -1    0    0    0  501 -0.00000000000E+00  0.00000000000E+00  0.63965930144E+03  0.63965930144E+03  0.00000000000E+00 0.  1.
          1   -1    0    0  501    0  0.00000000000E+00 -0.00000000000E+00 -0.12871655136E+04  0.12871655136E+04  0.00000000000E+00 0. -1.
         23    2    1    2    0    0  0.44449138759E+03  0.47569619332E+03  0.34302923498E+03  0.74148944730E+03  0.90983967964E+02 0.  0.
         11    1    3    3    0    0  0.11654843410E+03  0.11376558551E+03  0.13113382561E+03  0.20909860391E+03  0.00000000000E+00 0.  1.
        -11    1    3    3    0    0  0.32794295349E+03  0.36193060782E+03  0.21189540936E+03  0.53239084339E+03  0.00000000000E+00 0. -1.
         22    1    1    2    0    0 -0.44449138759E+03 -0.47569619332E+03 -0.99053544711E+03  0.11853353677E+04  0.00000000000E+00 0. -1.
<mgrwt>
<rscale>  0 0.18147698E+04</rscale>
<asrwt>0</asrwt>
<pdfrwt beam="1">  1        1 0.19802546E+00 0.18147698E+04</pdfrwt>
<pdfrwt beam="2">  1       -1 0.98409124E-01 0.18147698E+04</pdfrwt>
<totfact> 0.86090585E+00</totfact>
</mgrwt>
</event>
<event>
 6    1  0.9562506E-007  0.3538291E+04  0.7818608E-02  0.8104775E-01
         -2   -1    0    0    0  501 -0.00000000000E+00  0.00000000000E+00  0.20418001500E+04  0.20418001500E+04  0.00000000000E+00 0.  1.
          2   -1    0    0  501    0  0.00000000000E+00 -0.00000000000E+00 -0.15328999562E+04  0.15328999562E+04  0.00000000000E+00 0. -1.
         23    2    1    2    0    0  0.16507766920E+04 -0.56971047428E+03 -0.23018676190E+02  0.17491669250E+04  0.97063694146E+02 0.  0.
         11    1    3    3    0    0  0.79440255587E+03 -0.28835597413E+03 -0.57757444812E+02  0.84708943508E+03  0.00000000000E+00 0.  1.
        -11    1    3    3    0    0  0.85637413615E+03 -0.28135450015E+03  0.34738768621E+02  0.90207748994E+03  0.00000000000E+00 0. -1.
         22    1    1    2    0    0 -0.16507766920E+04  0.56971047428E+03  0.53191886999E+03  0.18255331812E+04  0.00000000000E+00 0.  1.
<mgrwt>
<rscale>  0 0.35382908E+04</rscale>
<asrwt>0</asrwt>
<pdfrwt beam="1">  1        2 0.23583076E+00 0.35382908E+04</pdfrwt>
<pdfrwt beam="2">  1       -2 0.31412310E+00 0.35382908E+04</pdfrwt>
<totfact> 0.25928380E-01</totfact>
</mgrwt>
</event>
<event>
 6    1  0.9562506E-007  0.2651162E+04  0.7818608E-02  0.8351027E-01
          1   -1    0    0  501    0  0.00000000000E+00  0.00000000000E+00  0.11644003626E+04  0.11644003626E+04  0.00000000000E+00 0. -1.
         -1   -1    0    0    0  501 -0.00000000000E+00 -0.00000000000E+00 -0.15090726789E+04  0.15090726789E+04  0.00000000000E+00 0.  1.
         23    2    1    2    0    0 -0.12750733090E+04 -0.35000500766E+03 -0.10374259514E+03  0.13294631534E+04  0.91620421230E+02 0.  0.
         11    1    3    3    0    0 -0.26664301583E+03 -0.82288719793E+02 -0.58519456716E+02  0.28512183029E+03  0.00000000000E+00 0.  1.
        -11    1    3    3    0    0 -0.10084302932E+04 -0.26771628787E+03 -0.45223138421E+02  0.10443413231E+04  0.00000000000E+00 0. -1.
         22    1    1    2    0    0  0.12750733090E+04  0.35000500766E+03 -0.24092972122E+03  0.13440098881E+04  0.00000000000E+00 0.  1.
<mgrwt>
<rscale>  0 0.26511618E+04</rscale>
<asrwt>0</asrwt>
<pdfrwt beam="1">  1        1 0.17913852E+00 0.26511618E+04</pdfrwt>
<pdfrwt beam="2">  1       -1 0.23216503E+00 0.26511618E+04</pdfrwt>
<totfact> 0.90884742E-01</totfact>
</mgrwt>
</event>
<event>
 6    1  0.9562506E-007  0.1406080E+04  0.7818608E-02  0.8949429E-01
          2   -1    0    0  501    0  0.00000000000E+00  0.00000000000E+00  0.57334479153E+03  0.57334479153E+03  0.00000000000E+00 0. -1.
         -2   -1    0    0    0  501 -0.00000000000E+00 -0.00000000000E+00 -0.86207302416E+03  0.86207302416E+03  0.00000000000E+00 0.  1.
         23    2    1    2    0    0 -0.29495621022E+03  0.23294650258E+03 -0.74779532940E+03  0.84211701648E+03  0.93273660589E+02 0.  0.
         13    1    3    3    0    0 -0.15542302949E+03  0.15719724962E+03 -0.35191089783E+03  0.41558221015E+03  0.00000000000E+00 0.  1.
        -13    1    3    3    0    0 -0.13953318074E+03  0.75749252958E+02 -0.39588443157E+03  0.42653480632E+03  0.00000000000E+00 0. -1.
         22    1    1    2    0    0  0.29495621022E+03 -0.23294650258E+03  0.45906709677E+03  0.59330079921E+03  0.00000000000E+00 0. -1.
<mgrwt>
<rscale>  0 0.14060798E+04</rscale>
<asrwt>0</asrwt>
<pdfrwt beam="1">  1        2 0.88206891E-01 0.14060798E+04</pdfrwt>
<pdfrwt beam="2">  1       -2 0.13262662E+00 0.14060798E+04</pdfrwt>
<totfact> 0.21028208E+01</totfact>
</mgrwt>
</event>
<event>
 6    1  0.9562506E-007  0.2175166E+04  0.7818608E-02  0.8528836E-01
          1   -1    0    0  501    0  0.00000000000E+00  0.00000000000E+00  0.12304512287E+04  0.12304512287E+04  0.00000000000E+00 0. -1.
         -1   -1    0    0    0  501 -0.00000000000E+00 -0.00000000000E+00 -0.96130302739E+03  0.96130302739E+03  0.00000000000E+00 0.  1.
         23    2    1    2    0    0  0.27616287659E+03 -0.94319105531E+03  0.59973963874E+03  0.11548521393E+04  0.90113972913E+02 0.  0.
         11    1    3    3    0    0 -0.33381905883E+01 -0.59993029263E+02  0.28353443809E+02  0.66439633145E+02  0.00000000000E+00 0. -1.
        -11    1    3    3    0    0  0.27950106718E+03 -0.88319802604E+03  0.57138619493E+03  0.10884125061E+04  0.00000000000E+00 0.  1.
         22    1    1    2    0    0 -0.27616287659E+03  0.94319105531E+03 -0.33059143747E+03  0.10369021168E+04  0.00000000000E+00 0. -1.
<mgrwt>
<rscale>  0 0.21751657E+04</rscale>
<asrwt>0</asrwt>
<pdfrwt beam="1">  1        1 0.18930019E+00 0.21751657E+04</pdfrwt>
<pdfrwt beam="2">  1       -1 0.14789277E+00 0.21751657E+04</pdfrwt>
<totfact> 0.33625090E+00</totfact>
</mgrwt>
</event>
<event>
 6    1  0.9562506E-007  0.1067041E+04  0.7818608E-02  0.9237925E-01
         -2   -1    0    0    0  501 -0.00000000000E+00  0.00000000000E+00  0.48026986879E+03  0.48026986879E+03  0.00000000000E+00 0.  1.
          2   -1    0    0  501    0  0.00000000000E+00 -0.00000000000E+00 -0.59267583930E+03  0.59267583930E+03  0.00000000000E+00 0. -1.
         23    2    1    2    0    0 -0.14527226712E+03  0.44458476777E+03  0.19106319349E+03  0.51540361926E+03  0.10186314111E+03 0.  0.
         11    1    3    3    0    0 -0.10086732780E+03  0.18014342639E+03  0.11660978650E+03  0.23711540270E+03  0.00000000000E+00 0. -1.
        -11    1    3    3    0    0 -0.44404939313E+02  0.26444134138E+03  0.74453406990E+02  0.27828821657E+03  0.00000000000E+00 0.  1.
         22    1    1    2    0    0  0.14527226712E+03 -0.44458476777E+03 -0.30346916400E+03  0.55754208884E+03  0.00000000000E+00 0. -1.
<mgrwt>
<rscale>  0 0.10670414E+04</rscale>
<asrwt>0</asrwt>
<pdfrwt beam="1">  1        2 0.91180899E-01 0.10670414E+04</pdfrwt>
<pdfrwt beam="2">  1       -2 0.73887672E-01 0.10670414E+04</pdfrwt>
<totfact> 0.82709840E+01</totfact>
</mgrwt>
</event>
<event>
 6    1  0.1200800E-006  0.3834746E+04  0.7818608E-02  0.8038739E-01
         -2   -1    0    0    0  501 -0.00000000000E+00  0.00000000000E+00  0.18119619397E+04  0.18119619397E+04  0.00000000000E+00 0.  1.
          2   -1    0    0  501    0  0.00000000000E+00 -0.00000000000E+00 -0.20289159780E+04  0.20289159780E+04  0.00000000000E+00 0. -1.
         23    2    1    2    0    0  0.14130643516E+04  0.12622183589E+04  0.17896969991E+03  0.19052380612E+04  0.89195679187E+02 0.  0.
         13    1    3    3    0    0  0.10553281970E+04  0.98396264978E+03  0.15857992789E+03  0.14515673229E+04  0.00000000000E+00 0. -1.
        -13    1    3    3    0    0  0.35773615462E+03  0.27825570912E+03  0.20389772025E+02  0.45367073830E+03  0.00000000000E+00 0.  1.
         22    1    1    2    0    0 -0.14130643516E+04 -0.12622183589E+04 -0.39592373825E+03  0.19356398564E+04  0.00000000000E+00 0. -1.
<mgrwt>
<rscale>  0 0.38347456E+04</rscale>
<asrwt>0</asrwt>
<pdfrwt beam="1">  1        2 0.31214092E+00 0.38347456E+04</pdfrwt>
<pdfrwt beam="2">  1       -2 0.27876338E+00 0.38347456E+04</pdfrwt>
<totfact> 0.22058163E-01</totfact>
</mgrwt>
</event>
<event>
 6    1  0.9562506E-007  0.6049749E+04  0.7818608E-02  0.7684264E-01
         -1   -1    0    0    0  501 -0.00000000000E+00  0.00000000000E+00  0.25803781462E+04  0.25803781462E+04  0.00000000000E+00 0.  1.
          1   -1    0    0  501    0  0.00000000000E+00 -0.00000000000E+00 -0.35459402909E+04  0.35459402909E+04  0.00000000000E+00 0. -1.
         23    2    1    2    0    0  0.23860895093E+04  0.13229911995E+04  0.83832672662E+03  0.28555778604E+04  0.88342265454E+02 0.  0.
         13    1    3    3    0    0  0.44790646544E+03  0.27171991494E+03  0.13166156971E+03  0.54017282688E+03  0.00000000000E+00 0. -1.
        -13    1    3    3    0    0  0.19381830439E+04  0.10512712845E+04  0.70666515690E+03  0.23154050335E+04  0.00000000000E+00 0.  1.
         22    1    1    2    0    0 -0.23860895093E+04 -0.13229911995E+04 -0.18038888713E+04  0.32707405768E+04  0.00000000000E+00 0. -1.
<mgrwt>
<rscale>  0 0.60497494E+04</rscale>
<asrwt>0</asrwt>
<pdfrwt beam="1">  1        1 0.54552928E+00 0.60497494E+04</pdfrwt>
<pdfrwt beam="2">  1       -1 0.39698125E+00 0.60497494E+04</pdfrwt>
<totfact> 0.11467659E-03</totfact>
</mgrwt>
</event>
<event>
 6    1  0.9562506E-007  0.3370059E+04  0.7818608E-02  0.8145294E-01
          2   -1    0    0  501    0  0.00000000000E+00  0.00000000000E+00  0.20517670483E+04  0.20517670483E+04  0.00000000000E+00 0. -1.
         -2   -1    0    0    0  501 -0.00000000000E+00 -0.00000000000E+00 -0.13838436387E+04  0.13838436387E+04  0.00000000000E+00 0.  1.
         23    2    1    2    0    0 -0.78096206559E+02 -0.12356242653E+04 -0.82919363888E+03  0.14928740091E+04  0.90798533611E+02 0.  0.
         13    1    3    3    0    0 -0.42058573316E+02 -0.84529589254E+03 -0.51702088388E+03  0.99176845277E+03  0.00000000000E+00 0. -1.
        -13    1    3    3    0    0 -0.36037633243E+02 -0.39032837280E+03 -0.31217275500E+03  0.50110555633E+03  0.00000000000E+00 0.  1.
         22    1    1    2    0    0  0.78096206559E+02  0.12356242653E+04  0.14971170485E+04  0.19427366779E+04  0.00000000000E+00 0. -1.
<mgrwt>
<rscale>  0 0.33700592E+04</rscale>
<asrwt>0</asrwt>
<pdfrwt beam="1">  1        2 0.31565647E+00 0.33700592E+04</pdfrwt>
<pdfrwt beam="2">  1       -2 0.21289902E+00 0.33700592E+04</pdfrwt>
<totfact> 0.56957694E-01</totfact>
</mgrwt>
</event>
<event>
 6    1  0.9562506E-007  0.7058708E+03  0.7818608E-02  0.9707245E-01
          1   -1    0    0  501    0  0.00000000000E+00  0.00000000000E+00  0.11486132618E+04  0.11486132618E+04  0.00000000000E+00 0. -1.
         -1   -1    0    0    0  501 -0.00000000000E+00 -0.00000000000E+00 -0.10844677562E+03  0.10844677562E+03  0.00000000000E+00 0.  1.
         23    2    1    2    0    0 -0.94113792299E+02 -0.31065616969E+03  0.74658934344E+03  0.81939326873E+03  0.92978596657E+02 0.  0.
         11    1    3    3    0    0 -0.46583491956E+02 -0.27310257545E+03  0.60836058515E+03  0.66847411319E+03  0.00000000000E+00 0. -1.
        -11    1    3    3    0    0 -0.47530300343E+02 -0.37553594240E+02  0.13822875829E+03  0.15091915554E+03  0.00000000000E+00 0.  1.
         22    1    1    2    0    0  0.94113792299E+02  0.31065616969E+03  0.29357714274E+03  0.43766676868E+03  0.00000000000E+00 0.  1.
<mgrwt>
<rscale>  0 0.70587082E+03</rscale>
<asrwt>0</asrwt>
<pdfrwt beam="1">  1        1 0.17670973E+00 0.70587082E+03</pdfrwt>
<pdfrwt beam="2">  1       -1 0.16684120E-01 0.70587082E+03</pdfrwt>
<totfact> 0.32685736E+02</totfact>
</mgrwt>
</event>
<event>
 6    1  0.9562506E-007  0.2159615E+04  0.7818608E-02  0.8535428E-01
          2   -1    0    0  501    0  0.00000000000E+00  0.00000000000E+00  0.94924527893E+03  0.94924527893E+03  0.00000000000E+00 0. -1.
         -2   -1    0    0    0  501 -0.00000000000E+00 -0.00000000000E+00 -0.12283279226E+04  0.12283279226E+04  0.00000000000E+00 0.  1.
         23    2    1    2    0    0 -0.23747746314E+02 -0.60561811307E+03 -0.10383965172E+04  0.12060307099E+04  0.94368914713E+02 0.  0.
         13    1    3    3    0    0 -0.20993433914E+01 -0.38009773596E+03 -0.56152358885E+03  0.67807627665E+03  0.00000000000E+00 0. -1.
        -13    1    3    3    0    0 -0.21648402923E+02 -0.22552037711E+03 -0.47687292833E+03  0.52795443327E+03  0.00000000000E+00 0.  1.
         22    1    1    2    0    0  0.23747746314E+02  0.60561811307E+03  0.75931387355E+03  0.97154249156E+03  0.00000000000E+00 0. -1.
<mgrwt>
<rscale>  0 0.21596152E+04</rscale>
<asrwt>0</asrwt>
<pdfrwt beam="1">  1        2 0.14603774E+00 0.21596152E+04</pdfrwt>
<pdfrwt beam="2">  1       -2 0.18897353E+00 0.21596152E+04</pdfrwt>
<totfact> 0.39244743E+00</totfact>
</mgrwt>
</event>
<event>
 6    1  0.9562506E-007  0.1301282E+04  0.7818608E-02  0.9028549E-01
          1   -1    0    0  501    0  0.00000000000E+00  0.00000000000E+00  0.23640817064E+04  0.23640817064E+04  0.00000000000E+00 0. -1.
         -1   -1    0    0    0  501 -0.00000000000E+00 -0.00000000000E+00 -0.17906905938E+03  0.17906905938E+03  0.00000000000E+00 0.  1.
         23    2    1    2    0    0  0.62382689756E+03 -0.11279780475E+03  0.84188704808E+03  0.10579337051E+04  0.92555819587E+02 0.  0.
         11    1    3    3    0    0  0.20407612743E+03 -0.33382883643E+02  0.20610935924E+03  0.29196326939E+03  0.00000000000E+00 0.  1.
        -11    1    3    3    0    0  0.41975077013E+03 -0.79414921109E+02  0.63577768884E+03  0.76597043569E+03  0.00000000000E+00 0. -1.
         22    1    1    2    0    0 -0.62382689756E+03  0.11279780475E+03  0.13431255989E+04  0.14852170607E+04  0.00000000000E+00 0. -1.
<mgrwt>
<rscale>  0 0.13012823E+04</rscale>
<asrwt>0</asrwt>
<pdfrwt beam="1">  1        1 0.36370486E+00 0.13012823E+04</pdfrwt>
<pdfrwt beam="2">  1       -1 0.27549088E-01 0.13012823E+04</pdfrwt>
<totfact> 0.19637919E+01</totfact>
</mgrwt>
</event>
<event>
 6    1  0.9562506E-007  0.1530747E+04  0.7818608E-02  0.8864260E-01
          2   -1    0    0  501    0  0.00000000000E+00  0.00000000000E+00  0.37999716931E+04  0.37999716931E+04  0.00000000000E+00 0. -1.
         -2   -1    0    0    0  501 -0.00000000000E+00 -0.00000000000E+00 -0.15415816042E+03  0.15415816042E+03  0.00000000000E+00 0.  1.
         23    2    1    2    0    0 -0.74222517487E+03  0.17031727482E+03  0.18901776449E+04  0.20404518360E+04  0.10375924752E+03 0.  0.
         11    1    3    3    0    0 -0.61484433793E+03  0.10322024203E+03  0.14905794005E+04  0.16157088003E+04  0.00000000000E+00 0. -1.
        -11    1    3    3    0    0 -0.12738083694E+03  0.67097032787E+02  0.39959824440E+03  0.42474303568E+03  0.00000000000E+00 0.  1.
         22    1    1    2    0    0  0.74222517487E+03 -0.17031727482E+03  0.17556358878E+04  0.19136780175E+04  0.00000000000E+00 0.  1.
<mgrwt>
<rscale>  0 0.15307471E+04</rscale>
<asrwt>0</asrwt>
<pdfrwt beam="1">  1        2 0.58461096E+00 0.15307471E+04</pdfrwt>
<pdfrwt beam="2">  1       -2 0.23716643E-01 0.15307471E+04</pdfrwt>
<totfact> 0.76114095E+00</totfact>
</mgrwt>
</event>
<event>
 6    1  0.9562506E-007  0.3230771E+04  0.7818608E-02  0.8180738E-01
          1   -1    0    0  501    0  0.00000000000E+00  0.00000000000E+00  0.18218786670E+04  0.18218786670E+04  0.00000000000E+00 0. -1.
         -1   -1    0    0    0  501 -0.00000000000E+00 -0.00000000000E+00 -0.14322964594E+04  0.14322964594E+04  0.00000000000E+00 0.  1.
         23    2    1    2    0    0 -0.10921319472E+04  0.30435385906E+03  0.13521466441E+04  0.17669247251E+04  0.91317991273E+02 0.  0.
         13    1    3    3    0    0 -0.10841705725E+03  0.28390003382E+02  0.94646247218E+02  0.14669070423E+03  0.00000000000E+00 0.  1.
        -13    1    3    3    0    0 -0.98371488996E+03  0.27596385567E+03  0.12575003968E+04  0.16202340209E+04  0.00000000000E+00 0. -1.
         22    1    1    2    0    0  0.10921319472E+04 -0.30435385906E+03 -0.96256443653E+03  0.14872504013E+04  0.00000000000E+00 0.  1.
<mgrwt>
<rscale>  0 0.32307710E+04</rscale>
<asrwt>0</asrwt>
<pdfrwt beam="1">  1        1 0.28028903E+00 0.32307710E+04</pdfrwt>
<pdfrwt beam="2">  1       -1 0.22035330E+00 0.32307710E+04</pdfrwt>
<totfact> 0.35958961E-01</totfact>
</mgrwt>
</event>
<event>
 6    1  0.9562506E-007  0.2889792E+04  0.7818608E-02  0.8275921E-01
          1   -1    0    0  501    0  0.00000000000E+00  0.00000000000E+00  0.22982505219E+04  0.22982505219E+04  0.00000000000E+00 0. -1.
         -1   -1    0    0    0  501 -0.00000000000E+00 -0.00000000000E+00 -0.90839706187E+03  0.90839706187E+03  0.00000000000E+00 0.  1.
         23    2    1    2    0    0 -0.98565078333E+03  0.59845910095E+03  0.16592399951E+04  0.20224897110E+04  0.87900555801E+02 0.  0.
         13    1    3    3    0    0 -0.38401856930E+03  0.28366746105E+03  0.69028697607E+03  0.83930542674E+03  0.00000000000E+00 0.  1.
        -13    1    3    3    0    0 -0.60163221403E+03  0.31479163990E+03  0.96895301902E+03  0.11831842843E+04  0.00000000000E+00 0. -1.
         22    1    1    2    0    0  0.98565078333E+03 -0.59845910095E+03 -0.26938653511E+03  0.11841578727E+04  0.00000000000E+00 0.  1.
<mgrwt>
<rscale>  0 0.28897917E+04</rscale>
<asrwt>0</asrwt>
<pdfrwt beam="1">  1        1 0.35357700E+00 0.28897917E+04</pdfrwt>
<pdfrwt beam="2">  1       -1 0.13975339E+00 0.28897917E+04</pdfrwt>
<totfact> 0.67499177E-01</totfact>
</mgrwt>
</event>
<event>
 6    1  0.9562506E-007  0.9838146E+03  0.7818608E-02  0.9326477E-01
         -2   -1    0    0    0  501 -0.00000000000E+00  0.00000000000E+00  0.46514946921E+03  0.46514946921E+03  0.00000000000E+00 0.  1.
          2   -1    0    0  501    0  0.00000000000E+00 -0.00000000000E+00 -0.52020441535E+03  0.52020441535E+03  0.00000000000E+00 0. -1.
         23    2    1    2    0    0 -0.14767156596E+02 -0.25094511019E+03  0.39078734254E+03  0.47352689854E+03  0.91222033022E+02 0.  0.
         13    1    3    3    0    0  0.28035556242E+02 -0.16408108660E+03  0.28546647441E+03  0.33045378407E+03  0.00000000000E+00 0.  1.
        -13    1    3    3    0    0 -0.42802712838E+02 -0.86864023591E+02  0.10532086813E+03  0.14307311447E+03  0.00000000000E+00 0. -1.
         22    1    1    2    0    0  0.14767156596E+02  0.25094511019E+03 -0.44584228868E+03  0.51182698602E+03  0.00000000000E+00 0. -1.
<mgrwt>
<rscale>  0 0.98381463E+03</rscale>
<asrwt>0</asrwt>
<pdfrwt beam="1">  1        2 0.80031448E-01 0.98381463E+03</pdfrwt>
<pdfrwt beam="2">  1       -2 0.71561457E-01 0.98381463E+03</pdfrwt>
<totfact> 0.10413409E+02</totfact>
</mgrwt>
</event>
<event>
 6    1  0.9562506E-007  0.1363082E+04  0.7818608E-02  0.8980984E-01
         -2   -1    0    0    0  501 -0.00000000000E+00  0.00000000000E+00  0.44239183825E+03  0.44239183825E+03  0.00000000000E+00 0.  1.
          2   -1    0    0  501    0  0.00000000000E+00 -0.00000000000E+00 -0.10499698548E+04  0.10499698548E+04  0.00000000000E+00 0. -1.
         23    2    1    2    0    0 -0.39674018176E+03  0.44665672323E+03  0.46986856672E+02  0.60615620136E+03  0.91173326853E+02 0.  0.
         13    1    3    3    0    0 -0.28072872847E+03  0.35025047455E+03  0.67538103812E+02  0.45392225036E+03  0.00000000000E+00 0. -1.
        -13    1    3    3    0    0 -0.11601145329E+03  0.96406248676E+02 -0.20551247140E+02  0.15223395100E+03  0.00000000000E+00 0.  1.
         22    1    1    2    0    0  0.39674018176E+03 -0.44665672323E+03 -0.65456487322E+03  0.88620549168E+03  0.00000000000E+00 0. -1.
<mgrwt>
<rscale>  0 0.13630819E+04</rscale>
<asrwt>0</asrwt>
<pdfrwt beam="1">  1        2 0.16153382E+00 0.13630819E+04</pdfrwt>
<pdfrwt beam="2">  1       -2 0.68060284E-01 0.13630819E+04</pdfrwt>
<totfact> 0.45157556E+01</totfact>
</mgrwt>
</event>
<event>
 6    1  0.9562506E-007  0.1675610E+04  0.7818608E-02  0.8775398E-01
          1   -1    0    0  501    0  0.00000000000E+00  0.00000000000E+00  0.56604430341E+03  0.56604430341E+03  0.00000000000E+00 0. -1.
         -1   -1    0    0    0  501 -0.00000000000E+00 -0.00000000000E+00 -0.12400393565E+04  0.12400393565E+04  0.00000000000E+00 0.  1.
         23    2    1    2    0    0 -0.82419846110E+03  0.13561404131E+03 -0.33263532439E+03  0.90374185333E+03  0.91699547195E+02 0.  0.
         11    1    3    3    0    0 -0.49808165961E+03  0.55524947803E+02 -0.23829216178E+03  0.55493379230E+03  0.00000000000E+00 0. -1.
        -11    1    3    3    0    0 -0.32611680149E+03  0.80089093506E+02 -0.94343162612E+02  0.34880806103E+03  0.00000000000E+00 0.  1.
         22    1    1    2    0    0  0.82419846110E+03 -0.13561404131E+03 -0.34135972867E+03  0.90234180654E+03  0.00000000000E+00 0.  1.
<mgrwt>
<rscale>  0 0.16756100E+04</rscale>
<asrwt>0</asrwt>
<pdfrwt beam="1">  1        1 0.87083740E-01 0.16756100E+04</pdfrwt>
<pdfrwt beam="2">  1       -1 0.19077528E+00 0.16756100E+04</pdfrwt>
<totfact> 0.61951758E+00</totfact>
</mgrwt>
</event>
<event>
 6    1  0.9957346E-007  0.2958886E+04  0.7818608E-02  0.8255570E-01
          1   -1    0    0  501    0  0.00000000000E+00  0.00000000000E+00  0.19987300671E+04  0.19987300671E+04  0.00000000000E+00 0. -1.
         -1   -1    0    0    0  501 -0.00000000000E+00 -0.00000000000E+00 -0.10950714002E+04  0.10950714002E+04  0.00000000000E+00 0.  1.
         23    2    1    2    0    0  0.11873882778E+04  0.45740588645E+03  0.12382618483E+04  0.17780999980E+04  0.96104790882E+02 0.  0.
         11    1    3    3    0    0  0.23354318466E+03  0.51494674487E+02  0.21743751462E+03  0.32322313247E+03  0.00000000000E+00 0. -1.
        -11    1    3    3    0    0  0.95384509313E+03  0.40591121196E+03  0.10208243337E+04  0.14548768655E+04  0.00000000000E+00 0.  1.
         22    1    1    2    0    0 -0.11873882778E+04 -0.45740588645E+03 -0.33460318138E+03  0.13157014692E+04  0.00000000000E+00 0. -1.
<mgrwt>
<rscale>  0 0.29588864E+04</rscale>
<asrwt>0</asrwt>
<pdfrwt beam="1">  1        1 0.30749693E+00 0.29588864E+04</pdfrwt>
<pdfrwt beam="2">  1       -1 0.16847252E+00 0.29588864E+04</pdfrwt>
<totfact> 0.64396199E-01</totfact>
</mgrwt>
</event>
<event>
 6    1  0.9562506E-007  0.5271262E+04  0.7818608E-02  0.7787972E-01
         -2   -1    0    0    0  501 -0.00000000000E+00  0.00000000000E+00  0.29391181130E+04  0.29391181130E+04  0.00000000000E+00 0.  1.
          2   -1    0    0  501    0  0.00000000000E+00 -0.00000000000E+00 -0.23634816036E+04  0.23634816036E+04  0.00000000000E+00 0. -1.
         23    2    1    2    0    0  0.18915590699E+04  0.16325289476E+04 -0.55319638324E+03  0.25608101223E+04  0.92605421165E+02 0.  0.
         13    1    3    3    0    0  0.11387025026E+04  0.92352209423E+03 -0.33283990581E+03  0.15034356823E+04  0.00000000000E+00 0.  1.
        -13    1    3    3    0    0  0.75285656737E+03  0.70900685338E+03 -0.22035647743E+03  0.10573744400E+04  0.00000000000E+00 0. -1.
         22    1    1    2    0    0 -0.18915590699E+04 -0.16325289476E+04  0.11288328926E+04  0.27417895943E+04  0.00000000000E+00 0. -1.
<mgrwt>
<rscale>  0 0.52712623E+04</rscale>
<asrwt>0</asrwt>
<pdfrwt beam="1">  1        2 0.36361255E+00 0.52712623E+04</pdfrwt>
<pdfrwt beam="2">  1       -2 0.45217202E+00 0.52712623E+04</pdfrwt>
<totfact> 0.10017501E-02</totfact>
</mgrwt>
</event>
<event>
 6    1  0.9562506E-007  0.1440233E+04  0.7818608E-02  0.8925200E-01
          2   -1    0    0  501    0  0.00000000000E+00  0.00000000000E+00  0.35387623949E+03  0.35387623949E+03  0.00000000000E+00 0. -1.
         -2   -1    0    0    0  501 -0.00000000000E+00 -0.00000000000E+00 -0.14653923175E+04  0.14653923175E+04  0.00000000000E+00 0.  1.
         23    2    1    2    0    0  0.32669403037E+03  0.35523926531E+03 -0.12281541019E+04  0.13227523401E+04  0.91582367115E+02 0.  0.
         11    1    3    3    0    0  0.21595807387E+03  0.29359389705E+03 -0.91766963536E+03  0.98739699499E+03  0.00000000000E+00 0.  1.
        -11    1    3    3    0    0  0.11073595650E+03  0.61645368260E+02 -0.31048446657E+03  0.33535534507E+03  0.00000000000E+00 0. -1.
         22    1    1    2    0    0 -0.32669403037E+03 -0.35523926531E+03  0.11663802389E+03  0.49651621697E+03  0.00000000000E+00 0. -1.
<mgrwt>
<rscale>  0 0.14402327E+04</rscale>
<asrwt>0</asrwt>
<pdfrwt beam="1">  1        2 0.54442499E-01 0.14402327E+04</pdfrwt>
<pdfrwt beam="2">  1       -2 0.22544497E+00 0.14402327E+04</pdfrwt>
<totfact> 0.80862546E+00</totfact>
</mgrwt>
</event>
<event>
 6    1  0.9562506E-007  0.1377013E+04  0.7818608E-02  0.8970628E-01
          2   -1    0    0  501    0  0.00000000000E+00  0.00000000000E+00  0.29928312899E+04  0.29928312899E+04  0.00000000000E+00 0. -1.
         -2   -1    0    0    0  501 -0.00000000000E+00 -0.00000000000E+00 -0.15839225632E+03  0.15839225632E+03  0.00000000000E+00 0.  1.
         23    2    1    2    0    0  0.61552254089E+03  0.30066610629E+03  0.13468374748E+04  0.15134731063E+04  0.85799499350E+02 0.  0.
         13    1    3    3    0    0  0.18901369901E+03  0.74985690872E+02  0.32394847909E+03  0.38248091372E+03  0.00000000000E+00 0. -1.
        -13    1    3    3    0    0  0.42650884188E+03  0.22568041542E+03  0.10228889957E+04  0.11309921925E+04  0.00000000000E+00 0.  1.
         22    1    1    2    0    0 -0.61552254089E+03 -0.30066610629E+03  0.14876015589E+04  0.16377504400E+04  0.00000000000E+00 0.  1.
<mgrwt>
<rscale>  0 0.13770131E+04</rscale>
<asrwt>0</asrwt>
<pdfrwt beam="1">  1        2 0.46043554E+00 0.13770131E+04</pdfrwt>
<pdfrwt beam="2">  1       -2 0.24368042E-01 0.13770131E+04</pdfrwt>
<totfact> 0.26020810E+01</totfact>
</mgrwt>
</event>
<event>
 6    1  0.1101992E-006  0.5051482E+04  0.7818608E-02  0.7820614E-01
          1   -1    0    0  501    0  0.00000000000E+00  0.00000000000E+00  0.23691789254E+04  0.23691789254E+04  0.00000000000E+00 0. -1.
         -1   -1    0    0    0  501 -0.00000000000E+00 -0.00000000000E+00 -0.26926489104E+04  0.26926489104E+04  0.00000000000E+00 0.  1.
         23    2    1    2    0    0 -0.10753157034E+04  0.20000119629E+04 -0.12681822219E+04  0.26023903139E+04  0.88303363041E+02 0.  0.
         11    1    3    3    0    0 -0.78086388125E+03  0.14288957605E+04 -0.95270833951E+03  0.18865695522E+04  0.00000000000E+00 0.  1.
        -11    1    3    3    0    0 -0.29445182214E+03  0.57111620247E+03 -0.31547388236E+03  0.71582076160E+03  0.00000000000E+00 0. -1.
         22    1    1    2    0    0  0.10753157034E+04 -0.20000119629E+04  0.94471223693E+03  0.24594375220E+04  0.00000000000E+00 0. -1.
<mgrwt>
<rscale>  0 0.50514818E+04</rscale>
<asrwt>0</asrwt>
<pdfrwt beam="1">  1        1 0.36448907E+00 0.50514818E+04</pdfrwt>
<pdfrwt beam="2">  1       -1 0.41425368E+00 0.50514818E+04</pdfrwt>
<totfact> 0.68568702E-03</totfact>
</mgrwt>
</event>
<event>
 6    1  0.9562506E-007  0.1218135E+04  0.7818608E-02  0.9097129E-01
          1   -1    0    0  501    0  0.00000000000E+00  0.00000000000E+00  0.43752605487E+03  0.43752605487E+03  0.00000000000E+00 0. -1.
         -1   -1    0    0    0  501 -0.00000000000E+00 -0.00000000000E+00 -0.84786568034E+03  0.84786568034E+03  0.00000000000E+00 0.  1.
         23    2    1    2    0    0 -0.38113446923E+03  0.45821783284E+03 -0.92302483731E+02  0.60983663790E+03  0.90299005860E+02 0.  0.
         11    1    3    3    0    0 -0.15378478113E+03  0.12104959508E+03 -0.19070398544E+02  0.19663784854E+03  0.00000000000E+00 0. -1.
        -11    1    3    3    0    0 -0.22734968810E+03  0.33716823776E+03 -0.73232085187E+02  0.41319878936E+03  0.00000000000E+00 0.  1.
         22    1    1    2    0    0  0.38113446923E+03 -0.45821783284E+03 -0.31803714174E+03  0.67555509730E+03  0.00000000000E+00 0.  1.
<mgrwt>
<rscale>  0 0.12181352E+04</rscale>
<asrwt>0</asrwt>
<pdfrwt beam="1">  1        1 0.67311701E-01 0.12181352E+04</pdfrwt>
<pdfrwt beam="2">  1       -1 0.13044087E+00 0.12181352E+04</pdfrwt>
<totfact> 0.26443303E+01</totfact>
</mgrwt>
</event>
<event>
 6    1  0.9562506E-007  0.1628934E+04  0.7818608E-02  0.8802967E-01
          2   -1    0    0  501    0  0.00000000000E+00  0.00000000000E+00  0.42066854664E+03  0.42066854664E+03  0.00000000000E+00 0. -1.
         -2   -1    0    0    0  501 -0.00000000000E+00 -0.00000000000E+00 -0.15769105866E+04  0.15769105866E+04  0.00000000000E+00 0.  1.
         23    2    1    2    0    0  0.54762774274E+03 -0.21004791147E+03 -0.12683611181E+04  0.14004301088E+04  0.91914602440E+02 0.  0.
         11    1    3    3    0    0  0.38492138632E+03 -0.15501110047E+03 -0.79337402335E+03  0.89534086015E+03  0.00000000000E+00 0.  1.
        -11    1    3    3    0    0  0.16270635642E+03 -0.55036811006E+02 -0.47498709470E+03  0.50508924867E+03  0.00000000000E+00 0. -1.
         22    1    1    2    0    0 -0.54762774274E+03  0.21004791147E+03  0.11211907808E+03  0.59714902445E+03  0.00000000000E+00 0. -1.
<mgrwt>
<rscale>  0 0.16289342E+04</rscale>
<asrwt>0</asrwt>
<pdfrwt beam="1">  1        2 0.64718238E-01 0.16289342E+04</pdfrwt>
<pdfrwt beam="2">  1       -2 0.24260163E+00 0.16289342E+04</pdfrwt>
<totfact> 0.51292607E+00</totfact>
</mgrwt>
</event>
<event>
 6    1  0.9562506E-007  0.4544015E+04  0.7818608E-02  0.7902976E-01
          2   -1    0    0  501    0  0.00000000000E+00  0.00000000000E+00  0.11721909774E+04  0.11721909774E+04  0.00000000000E+00 0. -1.
         -2   -1    0    0    0  501 -0.00000000000E+00 -0.00000000000E+00 -0.44037354280E+04  0.44037354280E+04  0.00000000000E+00 0.  1.
         23    2    1    2    0    0 -0.19297509650E+04  0.84156286650E+03 -0.26617430456E+04  0.33949081830E+04  0.91425845300E+02 0.  0.
         13    1    3    3    0    0 -0.36569718801E+03  0.14961768574E+03 -0.55666019494E+03  0.68263493746E+03  0.00000000000E+00 0. -1.
        -13    1    3    3    0    0 -0.15640537770E+04  0.69194518076E+03 -0.21050828507E+04  0.27122732456E+04  0.00000000000E+00 0.  1.
         22    1    1    2    0    0  0.19297509650E+04 -0.84156286650E+03 -0.56980140496E+03  0.21810182224E+04  0.00000000000E+00 0. -1.
<mgrwt>
<rscale>  0 0.45440154E+04</rscale>
<asrwt>0</asrwt>
<pdfrwt beam="1">  1        2 0.18033707E+00 0.45440154E+04</pdfrwt>
<pdfrwt beam="2">  1       -2 0.67749777E+00 0.45440154E+04</pdfrwt>
<totfact> 0.40623217E-03</totfact>
</mgrwt>
</event>
<event>
 6    1  0.9562506E-007  0.7282014E+04  0.7818608E-02  0.7549030E-01
          1   -1    0    0  501    0  0.00000000000E+00  0.00000000000E+00  0.30276326400E+04  0.30276326400E+04  0.00000000000E+00 0. -1.
         -1   -1    0    0    0  501 -0.00000000000E+00 -0.00000000000E+00 -0.43786466572E+04  0.43786466572E+04  0.00000000000E+00 0.  1.
         23    2    1    2    0    0  0.15537572101E+04 -0.23007010452E+04 -0.30706483963E+04  0.41406202267E+04  0.92019135729E+02 0.  0.
         11    1    3    3    0    0  0.10789204513E+04 -0.16134013275E+04 -0.22075793661E+04  0.29394795188E+04  0.00000000000E+00 0.  1.
        -11    1    3    3    0    0  0.47483675883E+03 -0.68729971768E+03 -0.86306903017E+03  0.12011407080E+04  0.00000000000E+00 0. -1.
         22    1    1    2    0    0 -0.15537572101E+04  0.23007010452E+04  0.17196343790E+04  0.32656590705E+04  0.00000000000E+00 0. -1.
<mgrwt>
<rscale>  0 0.72820144E+04</rscale>
<asrwt>0</asrwt>
<pdfrwt beam="1">  1        1 0.46578964E+00 0.72820144E+04</pdfrwt>
<pdfrwt beam="2">  1       -1 0.67363795E+00 0.72820144E+04</pdfrwt>
<totfact> 0.87596724E-05</totfact>
</mgrwt>
</event>
<event>
 6    1  0.9562506E-007  0.1163661E+04  0.7818608E-02  0.9145272E-01
          1   -1    0    0  501    0  0.00000000000E+00  0.00000000000E+00  0.68534857489E+03  0.68534857489E+03  0.00000000000E+00 0. -1.
         -1   -1    0    0    0  501 -0.00000000000E+00 -0.00000000000E+00 -0.49394822990E+03  0.49394822990E+03  0.00000000000E+00 0.  1.
         23    2    1    2    0    0 -0.33313810210E+03 -0.20123605413E+03  0.52961753003E+03  0.66367309626E+03  0.92142856675E+02 0.  0.
         13    1    3    3    0    0 -0.14290398024E+03 -0.13060532782E+03  0.30210567289E+03  0.35881351259E+03  0.00000000000E+00 0.  1.
        -13    1    3    3    0    0 -0.19023412186E+03 -0.70630726304E+02  0.22751185714E+03  0.30485958367E+03  0.00000000000E+00 0. -1.
         22    1    1    2    0    0  0.33313810210E+03  0.20123605413E+03 -0.33821718504E+03  0.51562370854E+03  0.00000000000E+00 0.  1.
<mgrwt>
<rscale>  0 0.11636610E+04</rscale>
<asrwt>0</asrwt>
<pdfrwt beam="1">  1        1 0.10543824E+00 0.11636610E+04</pdfrwt>
<pdfrwt beam="2">  1       -1 0.75992035E-01 0.11636610E+04</pdfrwt>
<totfact> 0.48573508E+01</totfact>
</mgrwt>
</event>
<event>
 6    1  0.9562506E-007  0.8106837E+03  0.7818608E-02  0.9544680E-01
          3   -1    0    0  501    0  0.00000000000E+00  0.00000000000E+00  0.25250262482E+03  0.25250262482E+03  0.00000000000E+00 0. -1.
         -3   -1    0    0    0  501 -0.00000000000E+00 -0.00000000000E+00 -0.65069421208E+03  0.65069421208E+03  0.00000000000E+00 0.  1.
         23    2    1    2    0    0 -0.11292181062E+03 -0.24675090770E+03 -0.52924955233E+03  0.60184399392E+03  0.92053020706E+02 0.  0.
         11    1    3    3    0    0 -0.56801383967E+02 -0.19002532103E+03 -0.30494204737E+03  0.36376595788E+03  0.00000000000E+00 0. -1.
        -11    1    3    3    0    0 -0.56120426651E+02 -0.56725586672E+02 -0.22430750495E+03  0.23807803605E+03  0.00000000000E+00 0.  1.
         22    1    1    2    0    0  0.11292181062E+03  0.24675090770E+03  0.13105796506E+03  0.30135284298E+03  0.00000000000E+00 0. -1.
<mgrwt>
<rscale>  0 0.81068365E+03</rscale>
<asrwt>0</asrwt>
<pdfrwt beam="1">  1        3 0.38846558E-01 0.81068365E+03</pdfrwt>
<pdfrwt beam="2">  1       -3 0.10010680E+00 0.81068365E+03</pdfrwt>
<totfact> 0.15112130E+01</totfact>
</mgrwt>
</event>
<event>
 6    1  0.9562506E-007  0.1230384E+04  0.7818608E-02  0.9086670E-01
          1   -1    0    0  501    0  0.00000000000E+00  0.00000000000E+00  0.17543290941E+04  0.17543290941E+04  0.00000000000E+00 0. -1.
         -1   -1    0    0    0  501 -0.00000000000E+00 -0.00000000000E+00 -0.21572978744E+03  0.21572978744E+03  0.00000000000E+00 0.  1.
         23    2    1    2    0    0  0.37054369263E+03  0.85550728225E+02  0.60076443375E+01  0.39098992844E+03  0.90639269101E+02 0.  0.
         11    1    3    3    0    0  0.32911821997E+03  0.43665583152E+02  0.33365199679E+01  0.33201900282E+03  0.00000000000E+00 0.  1.
        -11    1    3    3    0    0  0.41425472656E+02  0.41885145073E+02  0.26711243696E+01  0.58970925615E+02  0.00000000000E+00 0. -1.
         22    1    1    2    0    0 -0.37054369263E+03 -0.85550728225E+02  0.15325916623E+04  0.15790689531E+04  0.00000000000E+00 0. -1.
<mgrwt>
<rscale>  0 0.12303837E+04</rscale>
<asrwt>0</asrwt>
<pdfrwt beam="1">  1        1 0.26989677E+00 0.12303837E+04</pdfrwt>
<pdfrwt beam="2">  1       -1 0.33189199E-01 0.12303837E+04</pdfrwt>
<totfact> 0.36897150E+01</totfact>
</mgrwt>
</event>
<event>
 6    1  0.9562506E-007  0.3854790E+03  0.7818608E-02  0.1048927E+00
          1   -1    0    0  501    0  0.00000000000E+00  0.00000000000E+00  0.62995617815E+03  0.62995617815E+03  0.00000000000E+00 0. -1.
         -1   -1    0    0    0  501 -0.00000000000E+00 -0.00000000000E+00 -0.58969987877E+02  0.58969987877E+02  0.00000000000E+00 0.  1.
         23    2    1    2    0    0  0.17379848974E+03 -0.24080820557E+02  0.37977120561E+03  0.42940936250E+03  0.96852625351E+02 0.  0.
         11    1    3    3    0    0  0.13263567294E+03 -0.59228211401E+02  0.25643187043E+03  0.29471597672E+03  0.00000000000E+00 0. -1.
        -11    1    3    3    0    0  0.41162816797E+02  0.35147390844E+02  0.12333933518E+03  0.13469338577E+03  0.00000000000E+00 0.  1.
         22    1    1    2    0    0 -0.17379848974E+03  0.24080820557E+02  0.19121498467E+03  0.25951680353E+03  0.00000000000E+00 0.  1.
<mgrwt>
<rscale>  0 0.38547897E+03</rscale>
<asrwt>0</asrwt>
<pdfrwt beam="1">  1        1 0.96916330E-01 0.38547897E+03</pdfrwt>
<pdfrwt beam="2">  1       -1 0.90723063E-02 0.38547897E+03</pdfrwt>
<totfact> 0.23363960E+03</totfact>
</mgrwt>
</event>
<event>
 6    1  0.9562506E-007  0.3287115E+04  0.7818608E-02  0.8166182E-01
          2   -1    0    0  501    0  0.00000000000E+00  0.00000000000E+00  0.32947449366E+04  0.32947449366E+04  0.00000000000E+00 0. -1.
         -2   -1    0    0    0  501 -0.00000000000E+00 -0.00000000000E+00 -0.81987584164E+03  0.81987584164E+03  0.00000000000E+00 0.  1.
         23    2    1    2    0    0 -0.84252181575E+02  0.16397704680E+04  0.11967197947E+04  0.20338489859E+04  0.91966366525E+02 0.  0.
         13    1    3    3    0    0 -0.78679595274E+02  0.70906586309E+03  0.49798682925E+03  0.87003204482E+03  0.00000000000E+00 0.  1.
        -13    1    3    3    0    0 -0.55725863011E+01  0.93070460495E+03  0.69873296548E+03  0.11638169411E+04  0.00000000000E+00 0. -1.
         22    1    1    2    0    0  0.84252181575E+02 -0.16397704680E+04  0.12781493003E+04  0.20807717923E+04  0.00000000000E+00 0.  1.
<mgrwt>
<rscale>  0 0.32871153E+04</rscale>
<asrwt>0</asrwt>
<pdfrwt beam="1">  1        2 0.50688383E+00 0.32871153E+04</pdfrwt>
<pdfrwt beam="2">  1       -2 0.12613475E+00 0.32871153E+04</pdfrwt>
<totfact> 0.43953861E-01</totfact>
</mgrwt>
</event>
<event>
 6    1  0.1392018E-006  0.2899412E+04  0.7818608E-02  0.8273052E-01
         -2   -1    0    0    0  501 -0.00000000000E+00  0.00000000000E+00  0.16234085000E+04  0.16234085000E+04  0.00000000000E+00 0.  1.
          2   -1    0    0  501    0  0.00000000000E+00 -0.00000000000E+00 -0.12945897750E+04  0.12945897750E+04  0.00000000000E+00 0. -1.
         23    2    1    2    0    0  0.13690824636E+03 -0.35800167509E+03 -0.12411119286E+04  0.13019564053E+04  0.88445433022E+02 0.  0.
         13    1    3    3    0    0  0.63017776060E+02 -0.24252153385E+03 -0.69137766691E+03  0.73538494190E+03  0.00000000000E+00 0.  1.
        -13    1    3    3    0    0  0.73890470301E+02 -0.11548014124E+03 -0.54973426170E+03  0.56657146337E+03  0.00000000000E+00 0. -1.
         22    1    1    2    0    0 -0.13690824636E+03  0.35800167509E+03  0.15699306537E+04  0.16160418697E+04  0.00000000000E+00 0.  1.
<mgrwt>
<rscale>  0 0.28994124E+04</rscale>
<asrwt>0</asrwt>
<pdfrwt beam="1">  1        2 0.19916766E+00 0.28994124E+04</pdfrwt>
<pdfrwt beam="2">  1       -2 0.24975515E+00 0.28994124E+04</pdfrwt>
<totfact> 0.92681960E-01</totfact>
</mgrwt>
</event>
<event>
 6    1  0.9562506E-007  0.2338580E+04  0.7818608E-02  0.8462863E-01
         -2   -1    0    0    0  501 -0.00000000000E+00  0.00000000000E+00  0.11807259102E+04  0.11807259102E+04  0.00000000000E+00 0.  1.
          2   -1    0    0  501    0  0.00000000000E+00 -0.00000000000E+00 -0.11579653465E+04  0.11579653465E+04  0.00000000000E+00 0. -1.
         23    2    1    2    0    0  0.11051457041E+04 -0.34598862593E+03 -0.13731657687E+03  0.11696404247E+04  0.90264745219E+02 0.  0.
         11    1    3    3    0    0  0.40467314175E+03 -0.16557957038E+03 -0.75064112999E+02  0.44363449690E+03  0.00000000000E+00 0.  1.
        -11    1    3    3    0    0  0.70047256239E+03 -0.18040905555E+03 -0.62252463873E+02  0.72600592783E+03  0.00000000000E+00 0. -1.
         22    1    1    2    0    0 -0.11051457041E+04  0.34598862593E+03  0.16007714054E+03  0.11690508319E+04  0.00000000000E+00 0. -1.
<mgrwt>
<rscale>  0 0.23385805E+04</rscale>
<asrwt>0</asrwt>
<pdfrwt beam="1">  1        2 0.17814851E+00 0.23385805E+04</pdfrwt>
<pdfrwt beam="2">  1       -2 0.18165014E+00 0.23385805E+04</pdfrwt>
<totfact> 0.32050397E+00</totfact>
</mgrwt>
</event>
<event>
 6    1  0.9562506E-007  0.2865635E+04  0.7818608E-02  0.8283176E-01
         -2   -1    0    0    0  501 -0.00000000000E+00  0.00000000000E+00  0.63363706563E+03  0.63363706563E+03  0.00000000000E+00 0.  1.
          2   -1    0    0  501    0  0.00000000000E+00 -0.00000000000E+00 -0.32399705172E+04  0.32399705172E+04  0.00000000000E+00 0. -1.
         23    2    1    2    0    0  0.84706780895E+03 -0.50864233168E+03  0.95517170225E+02  0.99676249194E+03  0.90393810602E+02 0.  0.
         11    1    3    3    0    0  0.35081489755E+03 -0.26187508067E+03  0.32828058024E+02  0.43900721135E+03  0.00000000000E+00 0. -1.
        -11    1    3    3    0    0  0.49625291140E+03 -0.24676725101E+03  0.62689112201E+02  0.55775528059E+03  0.00000000000E+00 0.  1.
         22    1    1    2    0    0 -0.84706780895E+03  0.50864233168E+03 -0.27018506218E+04  0.28768450909E+04  0.00000000000E+00 0. -1.
<mgrwt>
<rscale>  0 0.28656346E+04</rscale>
<asrwt>0</asrwt>
<pdfrwt beam="1">  1        2 0.49845699E+00 0.28656346E+04</pdfrwt>
<pdfrwt beam="2">  1       -2 0.97482628E-01 0.28656346E+04</pdfrwt>
<totfact> 0.92645268E-01</totfact>
</mgrwt>
</event>
<event>
 6    1  0.9562506E-007  0.2602660E+04  0.7818608E-02  0.8367298E-01
          2   -1    0    0  501    0  0.00000000000E+00  0.00000000000E+00  0.16952339598E+04  0.16952339598E+04  0.00000000000E+00 0. -1.
         -2   -1    0    0    0  501 -0.00000000000E+00 -0.00000000000E+00 -0.99895367425E+03  0.99895367425E+03  0.00000000000E+00 0.  1.
         23    2    1    2    0    0  0.26949254241E+02 -0.11571992192E+04  0.96045548150E+03  0.15069114112E+04  0.92037893323E+02 0.  0.
         11    1    3    3    0    0 -0.12961311769E+02 -0.95378677789E+03  0.78836075241E+03  0.12374933896E+04  0.00000000000E+00 0.  1.
        -11    1    3    3    0    0  0.39910566010E+02 -0.20341244135E+03  0.17209472910E+03  0.26941802159E+03  0.00000000000E+00 0. -1.
         22    1    1    2    0    0 -0.26949254241E+02  0.11571992192E+04 -0.26417519595E+03  0.11872762229E+04  0.00000000000E+00 0.  1.
<mgrwt>
<rscale>  0 0.26026603E+04</rscale>
<asrwt>0</asrwt>
<pdfrwt beam="1">  1        2 0.26080523E+00 0.26026603E+04</pdfrwt>
<pdfrwt beam="2">  1       -2 0.15368518E+00 0.26026603E+04</pdfrwt>
<totfact> 0.24511918E+00</totfact>
</mgrwt>
</event>
<event>
 6    1  0.9562506E-007  0.3028804E+04  0.7818608E-02  0.8235553E-01
          2   -1    0    0  501    0  0.00000000000E+00  0.00000000000E+00  0.19217056047E+04  0.19217056047E+04  0.00000000000E+00 0. -1.
         -2   -1    0    0    0  501 -0.00000000000E+00 -0.00000000000E+00 -0.11934260669E+04  0.11934260669E+04  0.00000000000E+00 0.  1.
         23    2    1    2    0    0  0.99494896696E+03 -0.10984157809E+04  0.51037877803E+02  0.14856848512E+04  0.90630775432E+02 0.  0.
         13    1    3    3    0    0  0.34695842417E+03 -0.44624574151E+03  0.31091702875E+02  0.56611138825E+03  0.00000000000E+00 0.  1.
        -13    1    3    3    0    0  0.64799054279E+03 -0.65217003940E+03  0.19946174928E+02  0.91957346293E+03  0.00000000000E+00 0. -1.
         22    1    1    2    0    0 -0.99494896696E+03  0.10984157809E+04  0.67724166004E+03  0.16294468205E+04  0.00000000000E+00 0. -1.
<mgrwt>
<rscale>  0 0.30288041E+04</rscale>
<asrwt>0</asrwt>
<pdfrwt beam="1">  1        2 0.29564702E+00 0.30288041E+04</pdfrwt>
<pdfrwt beam="2">  1       -2 0.18360401E+00 0.30288041E+04</pdfrwt>
<totfact> 0.10803492E+00</totfact>
</mgrwt>
</event>
<event>
 6    1  0.9562506E-007  0.3286629E+04  0.7818608E-02  0.8166306E-01
          2   -1    0    0  501    0  0.00000000000E+00  0.00000000000E+00  0.16339158420E+04  0.16339158420E+04  0.00000000000E+00 0. -1.
         -2   -1    0    0    0  501 -0.00000000000E+00 -0.00000000000E+00 -0.16527668011E+04  0.16527668011E+04  0.00000000000E+00 0.  1.
         23    2    1    2    0    0 -0.10121228606E+04 -0.19531711631E+03  0.12687165636E+04  0.16373277430E+04  0.93053524381E+02 0.  0.
         11    1    3    3    0    0 -0.71174458459E+03 -0.93699408651E+02  0.88107193935E+03  0.11365067950E+04  0.00000000000E+00 0.  1.
        -11    1    3    3    0    0 -0.30037827602E+03 -0.10161770766E+03  0.38764462420E+03  0.50082094793E+03  0.00000000000E+00 0. -1.
         22    1    1    2    0    0  0.10121228606E+04  0.19531711631E+03 -0.12875675227E+04  0.16493549001E+04  0.00000000000E+00 0.  1.
<mgrwt>
<rscale>  0 0.32866286E+04</rscale>
<asrwt>0</asrwt>
<pdfrwt beam="1">  1        2 0.25137167E+00 0.32866286E+04</pdfrwt>
<pdfrwt beam="2">  1       -2 0.25427181E+00 0.32866286E+04</pdfrwt>
<totfact> 0.53994883E-01</totfact>
</mgrwt>
</event>
<event>
 6    1  0.9562506E-007  0.1967324E+04  0.7818608E-02  0.8622052E-01
         -2   -1    0    0    0  501 -0.00000000000E+00  0.00000000000E+00  0.60896745126E+03  0.60896745126E+03  0.00000000000E+00 0.  1.
          2   -1    0    0  501    0  0.00000000000E+00 -0.00000000000E+00 -0.15889038275E+04  0.15889038275E+04  0.00000000000E+00 0. -1.
         23    2    1    2    0    0  0.97397726447E+03  0.86706850774E+02 -0.39460530232E+03  0.10582387697E+04  0.89477144442E+02 0.  0.
         13    1    3    3    0    0  0.56799203674E+03  0.94789823753E+02 -0.23232548535E+03  0.62094701516E+03  0.00000000000E+00 0. -1.
        -13    1    3    3    0    0  0.40598522772E+03 -0.80829729787E+01 -0.16227981697E+03  0.43729175453E+03  0.00000000000E+00 0.  1.
         22    1    1    2    0    0 -0.97397726447E+03 -0.86706850774E+02 -0.58533107394E+03  0.11396325091E+04  0.00000000000E+00 0. -1.
<mgrwt>
<rscale>  0 0.19673238E+04</rscale>
<asrwt>0</asrwt>
<pdfrwt beam="1">  1        2 0.24444674E+00 0.19673238E+04</pdfrwt>
<pdfrwt beam="2">  1       -2 0.93687300E-01 0.19673238E+04</pdfrwt>
<totfact> 0.10146279E+01</totfact>
</mgrwt>
</event>
<event>
 6    1  0.9562506E-007  0.3082279E+04  0.7818608E-02  0.8220618E-01
         -2   -1    0    0    0  501 -0.00000000000E+00  0.00000000000E+00  0.18345636717E+04  0.18345636717E+04  0.00000000000E+00 0.  1.
          2   -1    0    0  501    0  0.00000000000E+00 -0.00000000000E+00 -0.12946459222E+04  0.12946459222E+04  0.00000000000E+00 0. -1.
         23    2    1    2    0    0 -0.56862947192E+03 -0.10851401967E+03  0.17188892638E+04  0.18157833112E+04  0.85871784294E+02 0.  0.
         11    1    3    3    0    0 -0.64180750570E+02 -0.18267998576E+02  0.29590646160E+03  0.30333730818E+03  0.00000000000E+00 0.  1.
        -11    1    3    3    0    0 -0.50444872135E+03 -0.90246021096E+02  0.14229828022E+04  0.15124460030E+04  0.00000000000E+00 0. -1.
         22    1    1    2    0    0  0.56862947192E+03  0.10851401967E+03 -0.11789715142E+04  0.13134262827E+04  0.00000000000E+00 0. -1.
<mgrwt>
<rscale>  0 0.30822786E+04</rscale>
<asrwt>0</asrwt>
<pdfrwt beam="1">  1        2 0.19917629E+00 0.30822786E+04</pdfrwt>
<pdfrwt beam="2">  1       -2 0.28224057E+00 0.30822786E+04</pdfrwt>
<totfact> 0.57771131E-01</totfact>
</mgrwt>
</event>
<event>
 6    1  0.9562506E-007  0.1859206E+04  0.7818608E-02  0.8675433E-01
          1   -1    0    0  501    0  0.00000000000E+00  0.00000000000E+00  0.24244535891E+04  0.24244535891E+04  0.00000000000E+00 0. -1.
         -1   -1    0    0    0  501 -0.00000000000E+00 -0.00000000000E+00 -0.35643555623E+03  0.35643555623E+03  0.00000000000E+00 0.  1.
         23    2    1    2    0    0  0.33324867601E+03  0.14887617345E+03  0.23116381047E+04  0.23420616911E+04  0.91451860282E+02 0.  0.
         11    1    3    3    0    0  0.26766235812E+03  0.13978810924E+03  0.20527070963E+04  0.20747988521E+04  0.00000000000E+00 0. -1.
        -11    1    3    3    0    0  0.65586317895E+02  0.90880642187E+01  0.25893100840E+03  0.26726283901E+03  0.00000000000E+00 0.  1.
         22    1    1    2    0    0 -0.33324867601E+03 -0.14887617345E+03 -0.24362007190E+03  0.43882745415E+03  0.00000000000E+00 0.  1.
<mgrwt>
<rscale>  0 0.18592057E+04</rscale>
<asrwt>0</asrwt>
<pdfrwt beam="1">  1        1 0.37299285E+00 0.18592057E+04</pdfrwt>
<pdfrwt beam="2">  1       -1 0.54836241E-01 0.18592057E+04</pdfrwt>
<totfact> 0.48247234E+00</totfact>
</mgrwt>
</event>
<event>
 6    1  0.9562506E-007  0.1656223E+04  0.7818608E-02  0.8786733E-01
          2   -1    0    0  501    0  0.00000000000E+00  0.00000000000E+00  0.13211104634E+04  0.13211104634E+04  0.00000000000E+00 0. -1.
         -2   -1    0    0    0  501 -0.00000000000E+00 -0.00000000000E+00 -0.51908529224E+03  0.51908529224E+03  0.00000000000E+00 0.  1.
         23    2    1    2    0    0  0.30146787407E+03 -0.73550848553E+03  0.64978689912E+03  0.10308552199E+04  0.92649116070E+02 0.  0.
         13    1    3    3    0    0  0.30473283188E+03 -0.68599207464E+03  0.60774535913E+03  0.96581656998E+03  0.00000000000E+00 0. -1.
        -13    1    3    3    0    0 -0.32649578131E+01 -0.49516410893E+02  0.42041539985E+02  0.65038649905E+02  0.00000000000E+00 0.  1.
         22    1    1    2    0    0 -0.30146787407E+03  0.73550848553E+03  0.15223827207E+03  0.80934053579E+03  0.00000000000E+00 0.  1.
<mgrwt>
<rscale>  0 0.16562234E+04</rscale>
<asrwt>0</asrwt>
<pdfrwt beam="1">  1        2 0.20324776E+00 0.16562234E+04</pdfrwt>
<pdfrwt beam="2">  1       -2 0.79859276E-01 0.16562234E+04</pdfrwt>
<totfact> 0.21294759E+01</totfact>
</mgrwt>
</event>
<event>
 6    1  0.9562506E-007  0.1023054E+04  0.7818608E-02  0.9283615E-01
          2   -1    0    0  501    0  0.00000000000E+00  0.00000000000E+00  0.22411967509E+03  0.22411967509E+03  0.00000000000E+00 0. -1.
         -2   -1    0    0    0  501 -0.00000000000E+00 -0.00000000000E+00 -0.11675000968E+04  0.11675000968E+04  0.00000000000E+00 0.  1.
         23    2    1    2    0    0  0.22080188234E+02  0.30203917017E+03  0.78143754020E+02  0.32614952987E+03  0.92476345697E+02 0.  0.
         11    1    3    3    0    0 -0.20784956590E+02  0.15869144942E+02  0.14385072085E+02  0.29845845281E+02  0.00000000000E+00 0.  1.
        -11    1    3    3    0    0  0.42865144825E+02  0.28617002523E+03  0.63758681935E+02  0.29630368459E+03  0.00000000000E+00 0. -1.
         22    1    1    2    0    0 -0.22080188234E+02 -0.30203917017E+03 -0.10215241757E+04  0.10654702420E+04  0.00000000000E+00 0.  1.
<mgrwt>
<rscale>  0 0.10230537E+04</rscale>
<asrwt>0</asrwt>
<pdfrwt beam="1">  1        2 0.34479950E-01 0.10230537E+04</pdfrwt>
<pdfrwt beam="2">  1       -2 0.17961540E+00 0.10230537E+04</pdfrwt>
<totfact> 0.27670228E+01</totfact>
</mgrwt>
</event>
<event>
 6    1  0.9562506E-007  0.2351953E+04  0.7818608E-02  0.8457714E-01
         -2   -1    0    0    0  501 -0.00000000000E+00  0.00000000000E+00  0.76632243231E+03  0.76632243231E+03  0.00000000000E+00 0.  1.
          2   -1    0    0  501    0  0.00000000000E+00 -0.00000000000E+00 -0.18046199713E+04  0.18046199713E+04  0.00000000000E+00 0. -1.
         23    2    1    2    0    0  0.62312526140E+03  0.76351207377E+03  0.17783770183E+03  0.10056243202E+04  0.91751005660E+02 0.  0.
         13    1    3    3    0    0  0.37954417231E+03  0.40415321650E+03  0.75022743427E+02  0.55948370233E+03  0.00000000000E+00 0.  1.
        -13    1    3    3    0    0  0.24358108910E+03  0.35935885727E+03  0.10281495840E+03  0.44614061789E+03  0.00000000000E+00 0. -1.
         22    1    1    2    0    0 -0.62312526140E+03 -0.76351207377E+03 -0.12161352408E+04  0.15653180833E+04  0.00000000000E+00 0. -1.
<mgrwt>
<rscale>  0 0.23519530E+04</rscale>
<asrwt>0</asrwt>
<pdfrwt beam="1">  1        2 0.27763384E+00 0.23519530E+04</pdfrwt>
<pdfrwt beam="2">  1       -2 0.11789576E+00 0.23519530E+04</pdfrwt>
<totfact> 0.42966442E+00</totfact>
</mgrwt>
</event>
<event>
 6    1  0.9562506E-007  0.2306793E+04  0.7818608E-02  0.8475248E-01
         -1   -1    0    0    0  501 -0.00000000000E+00  0.00000000000E+00  0.72553578479E+03  0.72553578479E+03  0.00000000000E+00 0.  1.
          1   -1    0    0  501    0  0.00000000000E+00 -0.00000000000E+00 -0.18335735836E+04  0.18335735836E+04  0.00000000000E+00 0. -1.
         23    2    1    2    0    0 -0.49064880296E+03  0.97177343179E+03 -0.97143414669E+03  0.14619583267E+04  0.92509442976E+02 0.  0.
         11    1    3    3    0    0 -0.24622955270E+03  0.48129632138E+03 -0.54422173348E+03  0.76710653549E+03  0.00000000000E+00 0. -1.
        -11    1    3    3    0    0 -0.24441925025E+03  0.49047711041E+03 -0.42721241321E+03  0.69485179119E+03  0.00000000000E+00 0.  1.
         22    1    1    2    0    0  0.49064880296E+03 -0.97177343179E+03 -0.13660365214E+03  0.10971510417E+04  0.00000000000E+00 0.  1.
<mgrwt>
<rscale>  0 0.23067928E+04</rscale>
<asrwt>0</asrwt>
<pdfrwt beam="1">  1        1 0.28208824E+00 0.23067928E+04</pdfrwt>
<pdfrwt beam="2">  1       -1 0.11162089E+00 0.23067928E+04</pdfrwt>
<totfact> 0.25736563E+00</totfact>
</mgrwt>
</event>
<event>
 6    1  0.9562506E-007  0.1585552E+04  0.7818608E-02  0.8829473E-01
         -2   -1    0    0    0  501 -0.00000000000E+00  0.00000000000E+00  0.15268662826E+04  0.15268662826E+04  0.00000000000E+00 0.  1.
          2   -1    0    0  501    0  0.00000000000E+00 -0.00000000000E+00 -0.41162358886E+03  0.41162358886E+03  0.00000000000E+00 0. -1.
         23    2    1    2    0    0  0.62700841518E+02 -0.56472190945E+03 -0.11178705213E+03  0.58629009783E+03  0.91637892016E+02 0.  0.
         13    1    3    3    0    0 -0.15123040336E+02 -0.27649736252E+03 -0.48992179663E+02  0.28121118665E+03  0.00000000000E+00 0.  1.
        -13    1    3    3    0    0  0.77823881854E+02 -0.28822454693E+03 -0.62794872467E+02  0.30507891118E+03  0.00000000000E+00 0. -1.
         22    1    1    2    0    0 -0.62700841518E+02  0.56472190945E+03  0.12270297459E+04  0.13521997737E+04  0.00000000000E+00 0.  1.
<mgrwt>
<rscale>  0 0.15855525E+04</rscale>
<asrwt>0</asrwt>
<pdfrwt beam="1">  1        2 0.63326707E-01 0.15855525E+04</pdfrwt>
<pdfrwt beam="2">  1       -2 0.23490250E+00 0.15855525E+04</pdfrwt>
<totfact> 0.58869424E+00</totfact>
</mgrwt>
</event>
<event>
 6    1  0.9562506E-007  0.1616782E+04  0.7818608E-02  0.8810304E-01
         -1   -1    0    0    0  501 -0.00000000000E+00  0.00000000000E+00  0.49814698763E+03  0.49814698763E+03  0.00000000000E+00 0.  1.
          1   -1    0    0  501    0  0.00000000000E+00 -0.00000000000E+00 -0.13118536323E+04  0.13118536323E+04  0.00000000000E+00 0. -1.
         23    2    1    2    0    0 -0.67087321404E+03  0.19628017580E+03  0.41910913461E+02  0.70515756206E+03  0.83029428077E+02 0.  0.
         11    1    3    3    0    0 -0.51257271074E+03  0.17623587030E+03  0.82781749397E+01  0.54208707230E+03  0.00000000000E+00 0.  1.
        -11    1    3    3    0    0 -0.15830050330E+03  0.20044305502E+02  0.33632738522E+02  0.16307048976E+03  0.00000000000E+00 0. -1.
         22    1    1    2    0    0  0.67087321404E+03 -0.19628017580E+03 -0.85561755810E+03  0.11048430578E+04  0.00000000000E+00 0. -1.
<mgrwt>
<rscale>  0 0.16167819E+04</rscale>
<asrwt>0</asrwt>
<pdfrwt beam="1">  1        1 0.20182364E+00 0.16167819E+04</pdfrwt>
<pdfrwt beam="2">  1       -1 0.76637997E-01 0.16167819E+04</pdfrwt>
<totfact> 0.14523272E+01</totfact>
</mgrwt>
</event>
<event>
 6    1  0.9562506E-007  0.9892497E+03  0.7818608E-02  0.9320415E-01
          2   -1    0    0  501    0  0.00000000000E+00  0.00000000000E+00  0.18360994832E+04  0.18360994832E+04  0.00000000000E+00 0. -1.
         -2   -1    0    0    0  501 -0.00000000000E+00 -0.00000000000E+00 -0.13324645074E+03  0.13324645074E+03  0.00000000000E+00 0.  1.
         23    2    1    2    0    0  0.19742015047E+03  0.44851586252E+03  0.87699560747E+03  0.10090430228E+04  0.94368064546E+02 0.  0.
         13    1    3    3    0    0  0.45025075281E+02  0.32463686183E+02  0.84711861739E+02  0.10127807188E+03  0.00000000000E+00 0.  1.
        -13    1    3    3    0    0  0.15239507519E+03  0.41605217633E+03  0.79228374574E+03  0.90776495093E+03  0.00000000000E+00 0. -1.
         22    1    1    2    0    0 -0.19742015047E+03 -0.44851586252E+03  0.82585742500E+03  0.96030291115E+03  0.00000000000E+00 0.  1.
<mgrwt>
<rscale>  0 0.98924969E+03</rscale>
<asrwt>0</asrwt>
<pdfrwt beam="1">  1        2 0.28247683E+00 0.98924969E+03</pdfrwt>
<pdfrwt beam="2">  1       -2 0.20499455E-01 0.98924969E+03</pdfrwt>
<totfact> 0.16876892E+02</totfact>
</mgrwt>
</event>
<event>
 6    1  0.9562506E-007  0.1462473E+04  0.7818608E-02  0.8909799E-01
         -1   -1    0    0    0  501 -0.00000000000E+00  0.00000000000E+00  0.44281544648E+03  0.44281544648E+03  0.00000000000E+00 0.  1.
          1   -1    0    0  501    0  0.00000000000E+00 -0.00000000000E+00 -0.12075156264E+04  0.12075156264E+04  0.00000000000E+00 0. -1.
         23    2    1    2    0    0  0.48405634025E+03  0.30211776485E+03  0.12709420794E+03  0.59161349270E+03  0.90928008223E+02 0.  0.
         11    1    3    3    0    0  0.36791939384E+03  0.23388802968E+03  0.56724003029E+02  0.43964292705E+03  0.00000000000E+00 0.  1.
        -11    1    3    3    0    0  0.11613694641E+03  0.68229735172E+02  0.70370204914E+02  0.15197056565E+03  0.00000000000E+00 0. -1.
         22    1    1    2    0    0 -0.48405634025E+03 -0.30211776485E+03 -0.89179438791E+03  0.10587175802E+04  0.00000000000E+00 0. -1.
<mgrwt>
<rscale>  0 0.14624727E+04</rscale>
<asrwt>0</asrwt>
<pdfrwt beam="1">  1        1 0.18577163E+00 0.14624727E+04</pdfrwt>
<pdfrwt beam="2">  1       -1 0.68125453E-01 0.14624727E+04</pdfrwt>
<totfact> 0.22332092E+01</totfact>
</mgrwt>
</event>
<event>
 6    1  0.9562506E-007  0.4541956E+04  0.7818608E-02  0.7903332E-01
          2   -1    0    0  501    0  0.00000000000E+00  0.00000000000E+00  0.24671343801E+04  0.24671343801E+04  0.00000000000E+00 0. -1.
         -2   -1    0    0    0  501 -0.00000000000E+00 -0.00000000000E+00 -0.20904176103E+04  0.20904176103E+04  0.00000000000E+00 0.  1.
         23    2    1    2    0    0 -0.40623104581E+03  0.21856231508E+04  0.64993174782E+03  0.23177710537E+04  0.87630820127E+02 0.  0.
         11    1    3    3    0    0 -0.14252609519E+03  0.99806597386E+03  0.28325566971E+03  0.10472264084E+04  0.00000000000E+00 0. -1.
        -11    1    3    3    0    0 -0.26370495062E+03  0.11875571770E+04  0.36667607811E+03  0.12705446453E+04  0.00000000000E+00 0.  1.
         22    1    1    2    0    0  0.40623104581E+03 -0.21856231508E+04 -0.27321497802E+03  0.22397809366E+04  0.00000000000E+00 0.  1.
<mgrwt>
<rscale>  0 0.45419560E+04</rscale>
<asrwt>0</asrwt>
<pdfrwt beam="1">  1        2 0.37955913E+00 0.45419560E+04</pdfrwt>
<pdfrwt beam="2">  1       -2 0.32160271E+00 0.45419560E+04</pdfrwt>
<totfact> 0.64279199E-02</totfact>
</mgrwt>
</event>
<event>
 6    1  0.9562506E-007  0.5681206E+04  0.7818608E-02  0.7731236E-01
         -2   -1    0    0    0  501 -0.00000000000E+00  0.00000000000E+00  0.18722107759E+04  0.18722107759E+04  0.00000000000E+00 0.  1.
          2   -1    0    0  501    0  0.00000000000E+00 -0.00000000000E+00 -0.43098917175E+04  0.43098917175E+04  0.00000000000E+00 0. -1.
         23    2    1    2    0    0  0.85405139770E+03  0.68367551515E+03  0.16323040634E+04  0.19676518839E+04  0.10208516405E+03 0.  0.
         11    1    3    3    0    0  0.54480904328E+03  0.48458923610E+03  0.10306817833E+04  0.12625167563E+04  0.00000000000E+00 0. -1.
        -11    1    3    3    0    0  0.30924235442E+03  0.19908627905E+03  0.60162228006E+03  0.70513512757E+03  0.00000000000E+00 0.  1.
         22    1    1    2    0    0 -0.85405139770E+03 -0.68367551515E+03 -0.40699850049E+04  0.42144506095E+04  0.00000000000E+00 0. -1.
<mgrwt>
<rscale>  0 0.56812061E+04</rscale>
<asrwt>0</asrwt>
<pdfrwt beam="1">  1        2 0.66306025E+00 0.56812061E+04</pdfrwt>
<pdfrwt beam="2">  1       -2 0.28803243E+00 0.56812061E+04</pdfrwt>
<totfact> 0.47810367E-03</totfact>
</mgrwt>
</event>
<event>
 6    1  0.9562506E-007  0.2478951E+03  0.7818608E-02  0.1114642E+00
          2   -1    0    0  501    0  0.00000000000E+00  0.00000000000E+00  0.31906145045E+03  0.31906145045E+03  0.00000000000E+00 0. -1.
         -2   -1    0    0    0  501 -0.00000000000E+00 -0.00000000000E+00 -0.48150601966E+02  0.48150601966E+02  0.00000000000E+00 0.  1.
         23    2    1    2    0    0  0.81700180373E+02 -0.56486789186E+02  0.21647502555E+03  0.25394716092E+03  0.88102480272E+02 0.  0.
         11    1    3    3    0    0  0.92066560387E+02 -0.51715497980E+02  0.21819724143E+03  0.24240623020E+03  0.00000000000E+00 0. -1.
        -11    1    3    3    0    0 -0.10366380015E+02 -0.47712912064E+01 -0.17222158829E+01  0.11540930722E+02  0.00000000000E+00 0.  1.
         22    1    1    2    0    0 -0.81700180373E+02  0.56486789186E+02  0.54435822933E+02  0.11326489149E+03  0.00000000000E+00 0. -1.
<mgrwt>
<rscale>  0 0.24789515E+03</rscale>
<asrwt>0</asrwt>
<pdfrwt beam="1">  1        2 0.49086376E-01 0.24789515E+03</pdfrwt>
<pdfrwt beam="2">  1       -2 0.74077851E-02 0.24789515E+03</pdfrwt>
<totfact> 0.10750875E+04</totfact>
</mgrwt>
</event>
<event>
 6    1  0.9562506E-007  0.1657250E+04  0.7818608E-02  0.8786129E-01
          1   -1    0    0  501    0  0.00000000000E+00  0.00000000000E+00  0.27260270844E+03  0.27260270844E+03  0.00000000000E+00 0. -1.
         -1   -1    0    0    0  501 -0.00000000000E+00 -0.00000000000E+00 -0.25187534643E+04  0.25187534643E+04  0.00000000000E+00 0.  1.
         23    2    1    2    0    0  0.73889261866E+03  0.24925523225E+03 -0.15858182589E+04  0.17695296321E+04  0.91241962184E+02 0.  0.
         13    1    3    3    0    0  0.21066669386E+03  0.80945421160E+02 -0.55402680030E+03  0.59822931436E+03  0.00000000000E+00 0. -1.
        -13    1    3    3    0    0  0.52822592480E+03  0.16830981109E+03 -0.10317914586E+04  0.11713003177E+04  0.00000000000E+00 0.  1.
         22    1    1    2    0    0 -0.73889261866E+03 -0.24925523225E+03 -0.66033249691E+03  0.10218265407E+04  0.00000000000E+00 0. -1.
<mgrwt>
<rscale>  0 0.16572495E+04</rscale>
<asrwt>0</asrwt>
<pdfrwt beam="1">  1        1 0.41938879E-01 0.16572495E+04</pdfrwt>
<pdfrwt beam="2">  1       -1 0.38750052E+00 0.16572495E+04</pdfrwt>
<totfact> 0.82947257E-01</totfact>
</mgrwt>
</event>
<event>
 6    1  0.9562506E-007  0.1626632E+04  0.7818608E-02  0.8804352E-01
         -2   -1    0    0    0  501 -0.00000000000E+00  0.00000000000E+00  0.56235620232E+03  0.56235620232E+03  0.00000000000E+00 0.  1.
          2   -1    0    0  501    0  0.00000000000E+00 -0.00000000000E+00 -0.11762701188E+04  0.11762701188E+04  0.00000000000E+00 0. -1.
         23    2    1    2    0    0  0.38246039494E+03  0.20077959076E+03 -0.10412841860E+04  0.11309802523E+04  0.90858005741E+02 0.  0.
         13    1    3    3    0    0  0.99093825358E+02  0.90534129201E+02 -0.38379459561E+03  0.40658862059E+03  0.00000000000E+00 0. -1.
        -13    1    3    3    0    0  0.28336656958E+03  0.11024546156E+03 -0.65748959041E+03  0.72439163168E+03  0.00000000000E+00 0.  1.
         22    1    1    2    0    0 -0.38246039494E+03 -0.20077959076E+03  0.42737026952E+03  0.60764606888E+03  0.00000000000E+00 0.  1.
<mgrwt>
<rscale>  0 0.16266319E+04</rscale>
<asrwt>0</asrwt>
<pdfrwt beam="1">  1        2 0.18096463E+00 0.16266319E+04</pdfrwt>
<pdfrwt beam="2">  1       -2 0.86516340E-01 0.16266319E+04</pdfrwt>
<totfact> 0.21678901E+01</totfact>
</mgrwt>
</event>
<event>
 6    1  0.9562506E-007  0.5630373E+03  0.7818608E-02  0.9985206E-01
         -2   -1    0    0    0  501 -0.00000000000E+00  0.00000000000E+00  0.46252971705E+02  0.46252971705E+02  0.00000000000E+00 0.  1.
          2   -1    0    0  501    0  0.00000000000E+00 -0.00000000000E+00 -0.17134626465E+04  0.17134626465E+04  0.00000000000E+00 0. -1.
         23    2    1    2    0    0  0.13843508252E+03  0.19443846285E+03 -0.42933547148E+03  0.49903995367E+03  0.87984887242E+02 0.  0.
         13    1    3    3    0    0  0.65836316661E+02  0.66332790861E+02 -0.25061686046E+03  0.26747573812E+03  0.00000000000E+00 0. -1.
        -13    1    3    3    0    0  0.72598765855E+02  0.12810567199E+03 -0.17871861101E+03  0.23156421555E+03  0.00000000000E+00 0.  1.
         22    1    1    2    0    0 -0.13843508252E+03 -0.19443846285E+03 -0.12378742033E+04  0.12606756646E+04  0.00000000000E+00 0. -1.
<mgrwt>
<rscale>  0 0.56303726E+03</rscale>
<asrwt>0</asrwt>
<pdfrwt beam="1">  1        2 0.26360961E+00 0.56303726E+03</pdfrwt>
<pdfrwt beam="2">  1       -2 0.71158425E-02 0.56303726E+03</pdfrwt>
<totfact> 0.11723871E+03</totfact>
</mgrwt>
</event>
<event>
 6    1  0.9562506E-007  0.3155670E+04  0.7818608E-02  0.8200624E-01
          1   -1    0    0  501    0  0.00000000000E+00  0.00000000000E+00  0.99252965137E+03  0.99252965137E+03  0.00000000000E+00 0. -1.
         -1   -1    0    0    0  501 -0.00000000000E+00 -0.00000000000E+00 -0.25083013084E+04  0.25083013084E+04  0.00000000000E+00 0.  1.
         23    2    1    2    0    0 -0.93347066703E+02 -0.83757273336E+03 -0.22366755783E+04  0.23918024560E+04  0.88088520107E+02 0.  0.
         13    1    3    3    0    0 -0.75689864097E+02 -0.34177398296E+03 -0.86364740507E+03  0.93189336903E+03  0.00000000000E+00 0.  1.
        -13    1    3    3    0    0 -0.17657202606E+02 -0.49579875040E+03 -0.13730281732E+04  0.14599090870E+04  0.00000000000E+00 0. -1.
         22    1    1    2    0    0  0.93347066703E+02  0.83757273336E+03  0.72090392127E+03  0.11090285038E+04  0.00000000000E+00 0. -1.
<mgrwt>
<rscale>  0 0.31556701E+04</rscale>
<asrwt>0</asrwt>
<pdfrwt beam="1">  1        1 0.15269687E+00 0.31556701E+04</pdfrwt>
<pdfrwt beam="2">  1       -1 0.38589251E+00 0.31556701E+04</pdfrwt>
<totfact> 0.11487751E-01</totfact>
</mgrwt>
</event>
<event>
 6    1  0.9562506E-007  0.5308096E+04  0.7818608E-02  0.7782662E-01
          1   -1    0    0  501    0  0.00000000000E+00  0.00000000000E+00  0.25667043864E+04  0.25667043864E+04  0.00000000000E+00 0. -1.
         -1   -1    0    0    0  501 -0.00000000000E+00 -0.00000000000E+00 -0.27443636335E+04  0.27443636335E+04  0.00000000000E+00 0.  1.
         23    2    1    2    0    0  0.28812574837E+03  0.17208929993E+04 -0.20889183681E+04  0.27231343674E+04  0.85974836620E+02 0.  0.
         13    1    3    3    0    0  0.66301812346E+02  0.63074152514E+03 -0.73614998326E+03  0.97167257845E+03  0.00000000000E+00 0.  1.
        -13    1    3    3    0    0  0.22182393602E+03  0.10901514741E+04 -0.13527683849E+04  0.17514617890E+04  0.00000000000E+00 0. -1.
         22    1    1    2    0    0 -0.28812574837E+03 -0.17208929993E+04  0.19112591210E+04  0.25879336525E+04  0.00000000000E+00 0. -1.
<mgrwt>
<rscale>  0 0.53080958E+04</rscale>
<asrwt>0</asrwt>
<pdfrwt beam="1">  1        1 0.39487760E+00 0.53080958E+04</pdfrwt>
<pdfrwt beam="2">  1       -1 0.42220979E+00 0.53080958E+04</pdfrwt>
<totfact> 0.43244622E-03</totfact>
</mgrwt>
</event>
<event>
 6    1  0.9562506E-007  0.5127125E+04  0.7818608E-02  0.7809191E-01
          2   -1    0    0  501    0  0.00000000000E+00  0.00000000000E+00  0.26201660437E+04  0.26201660437E+04  0.00000000000E+00 0. -1.
         -2   -1    0    0    0  501 -0.00000000000E+00 -0.00000000000E+00 -0.25081819905E+04  0.25081819905E+04  0.00000000000E+00 0.  1.
         23    2    1    2    0    0 -0.93808241915E+03 -0.19705501248E+04  0.13996248366E+04  0.25943620029E+04  0.93263601917E+02 0.  0.
         13    1    3    3    0    0 -0.71830533932E+03 -0.15473981874E+04  0.11346415334E+04  0.20488570278E+04  0.00000000000E+00 0. -1.
        -13    1    3    3    0    0 -0.21977707983E+03 -0.42315193735E+03  0.26498330321E+03  0.54550497512E+03  0.00000000000E+00 0.  1.
         22    1    1    2    0    0  0.93808241915E+03  0.19705501248E+04 -0.12876407835E+04  0.25339860313E+04  0.00000000000E+00 0.  1.
<mgrwt>
<rscale>  0 0.51271252E+04</rscale>
<asrwt>0</asrwt>
<pdfrwt beam="1">  1        2 0.40310247E+00 0.51271252E+04</pdfrwt>
<pdfrwt beam="2">  1       -2 0.38587415E+00 0.51271252E+04</pdfrwt>
<totfact> 0.19587458E-02</totfact>
</mgrwt>
</event>
<event>
 6    1  0.1981810E-006  0.2638673E+04  0.7818608E-02  0.8355182E-01
          2   -1    0    0  501    0  0.00000000000E+00  0.00000000000E+00  0.18128980469E+04  0.18128980469E+04  0.00000000000E+00 0. -1.
         -2   -1    0    0    0  501 -0.00000000000E+00 -0.00000000000E+00 -0.96014683592E+03  0.96014683592E+03  0.00000000000E+00 0.  1.
         23    2    1    2    0    0 -0.71330493320E+03 -0.15622470791E+03  0.15796858319E+04  0.17426837664E+04  0.91264971333E+02 0.  0.
         11    1    3    3    0    0 -0.31428045328E+03 -0.10867538268E+03  0.77108415286E+03  0.83973407273E+03  0.00000000000E+00 0.  1.
        -11    1    3    3    0    0 -0.39902447992E+03 -0.47549325229E+02  0.80860167906E+03  0.90294969366E+03  0.00000000000E+00 0. -1.
         22    1    1    2    0    0  0.71330493320E+03  0.15622470791E+03 -0.72693462095E+03  0.10303611164E+04  0.00000000000E+00 0.  1.
<mgrwt>
<rscale>  0 0.26386726E+04</rscale>
<asrwt>0</asrwt>
<pdfrwt beam="1">  1        2 0.27890739E+00 0.26386726E+04</pdfrwt>
<pdfrwt beam="2">  1       -2 0.14771490E+00 0.26386726E+04</pdfrwt>
<totfact> 0.23356571E+00</totfact>
</mgrwt>
</event>
<event>
 6    1  0.9562506E-007  0.2013694E+04  0.7818608E-02  0.8600245E-01
         -1   -1    0    0    0  501 -0.00000000000E+00  0.00000000000E+00  0.58978170634E+03  0.58978170634E+03  0.00000000000E+00 0.  1.
          1   -1    0    0  501    0  0.00000000000E+00 -0.00000000000E+00 -0.17188412882E+04  0.17188412882E+04  0.00000000000E+00 0. -1.
         23    2    1    2    0    0 -0.99007858421E+03  0.12009519186E+02 -0.76117971668E+03  0.12523392132E+04  0.92515471654E+02 0.  0.
         11    1    3    3    0    0 -0.71384221588E+03 -0.90415732616E+01 -0.59452390135E+03  0.92903774331E+03  0.00000000000E+00 0.  1.
        -11    1    3    3    0    0 -0.27623636833E+03  0.21051092448E+02 -0.16665581533E+03  0.32330146994E+03  0.00000000000E+00 0. -1.
         22    1    1    2    0    0  0.99007858421E+03 -0.12009519186E+02 -0.36787986523E+03  0.10562837813E+04  0.00000000000E+00 0.  1.
<mgrwt>
<rscale>  0 0.20136943E+04</rscale>
<asrwt>0</asrwt>
<pdfrwt beam="1">  1        1 0.26443712E+00 0.20136943E+04</pdfrwt>
<pdfrwt beam="2">  1       -1 0.90735649E-01 0.20136943E+04</pdfrwt>
<totfact> 0.50856080E+00</totfact>
</mgrwt>
</event>
<event>
 6    1  0.9562506E-007  0.2880274E+04  0.7818608E-02  0.8278771E-01
         -2   -1    0    0    0  501 -0.00000000000E+00  0.00000000000E+00  0.29747710898E+04  0.29747710898E+04  0.00000000000E+00 0.  1.
          2   -1    0    0  501    0  0.00000000000E+00 -0.00000000000E+00 -0.69719484109E+03  0.69719484109E+03  0.00000000000E+00 0. -1.
         23    2    1    2    0    0  0.12988423974E+04  0.20879815156E+03  0.39695749690E+03  0.13769027224E+04  0.87736030160E+02 0.  0.
         11    1    3    3    0    0  0.19753323094E+03  0.43212248425E+02  0.92441309883E+02  0.22233324428E+03  0.00000000000E+00 0. -1.
        -11    1    3    3    0    0  0.11013091665E+04  0.16558590313E+03  0.30451618702E+03  0.11545694781E+04  0.00000000000E+00 0.  1.
         22    1    1    2    0    0 -0.12988423974E+04 -0.20879815156E+03  0.18806187518E+04  0.22950632085E+04  0.00000000000E+00 0. -1.
<mgrwt>
<rscale>  0 0.28802743E+04</rscale>
<asrwt>0</asrwt>
<pdfrwt beam="1">  1        2 0.10726075E+00 0.28802743E+04</pdfrwt>
<pdfrwt beam="2">  1       -2 0.45765708E+00 0.28802743E+04</pdfrwt>
<totfact> 0.10980156E-01</totfact>
</mgrwt>
</event>
<event>
 6    1  0.9562506E-007  0.3564697E+04  0.7818608E-02  0.8098626E-01
         -2   -1    0    0    0  501 -0.00000000000E+00  0.00000000000E+00  0.16197063016E+04  0.16197063016E+04  0.00000000000E+00 0.  1.
          2   -1    0    0  501    0  0.00000000000E+00 -0.00000000000E+00 -0.19613221799E+04  0.19613221799E+04  0.00000000000E+00 0. -1.
         23    2    1    2    0    0  0.30817026246E+03  0.87744753895E+03 -0.16969934697E+04  0.19372731743E+04  0.91418932749E+02 0.  0.
         13    1    3    3    0    0  0.13549996149E+03  0.52194380043E+03 -0.98350977905E+03  0.11216403416E+04  0.00000000000E+00 0.  1.
        -13    1    3    3    0    0  0.17267030097E+03  0.35550373852E+03 -0.71348369069E+03  0.81563283273E+03  0.00000000000E+00 0. -1.
         22    1    1    2    0    0 -0.30817026246E+03 -0.87744753895E+03  0.13553775915E+04  0.16437553071E+04  0.00000000000E+00 0.  1.
<mgrwt>
<rscale>  0 0.35646968E+04</rscale>
<asrwt>0</asrwt>
<pdfrwt beam="1">  1        2 0.30174187E+00 0.35646968E+04</pdfrwt>
<pdfrwt beam="2">  1       -2 0.24918559E+00 0.35646968E+04</pdfrwt>
<totfact> 0.37307165E-01</totfact>
</mgrwt>
</event>
<event>
 6    1  0.9562506E-007  0.1043812E+04  0.7818608E-02  0.9261757E-01
         -3   -1    0    0    0  501 -0.00000000000E+00  0.00000000000E+00  0.12899561234E+03  0.12899561234E+03  0.00000000000E+00 0.  1.
          3   -1    0    0  501    0  0.00000000000E+00 -0.00000000000E+00 -0.21115887054E+04  0.21115887054E+04  0.00000000000E+00 0. -1.
         23    2    1    2    0    0  0.28007289917E+03 -0.41855417433E+03 -0.73540601559E+03  0.89555493816E+03  0.86995481555E+02 0.  0.
         13    1    3    3    0    0  0.17417793670E+03 -0.32238441723E+03 -0.49608308227E+03  0.61673988895E+03  0.00000000000E+00 0.  1.
        -13    1    3    3    0    0  0.10589496247E+03 -0.96169757091E+02 -0.23932293332E+03  0.27881504921E+03  0.00000000000E+00 0. -1.
         22    1    1    2    0    0 -0.28007289917E+03  0.41855417433E+03 -0.12471870775E+04  0.13450293796E+04  0.00000000000E+00 0.  1.
<mgrwt>
<rscale>  0 0.10438116E+04</rscale>
<asrwt>0</asrwt>
<pdfrwt beam="1">  1        3 0.32485977E+00 0.10438116E+04</pdfrwt>
<pdfrwt beam="2">  1       -3 0.19845481E-01 0.10438116E+04</pdfrwt>
<totfact> 0.17477341E+00</totfact>
</mgrwt>
</event>
<event>
 6    1  0.9562506E-007  0.3173361E+04  0.7818608E-02  0.8195888E-01
         -1   -1    0    0    0  501 -0.00000000000E+00  0.00000000000E+00  0.17766240291E+04  0.17766240291E+04  0.00000000000E+00 0.  1.
          1   -1    0    0  501    0  0.00000000000E+00 -0.00000000000E+00 -0.14170439316E+04  0.14170439316E+04  0.00000000000E+00 0. -1.
         23    2    1    2    0    0  0.12611643515E+04  0.79311928344E+03 -0.36559442514E+03  0.15367274646E+04  0.91094991733E+02 0.  0.
         13    1    3    3    0    0  0.81260203017E+03  0.47338648228E+03 -0.19927878748E+03  0.96131621030E+03  0.00000000000E+00 0.  1.
        -13    1    3    3    0    0  0.44856232137E+03  0.31973280116E+03 -0.16631563767E+03  0.57541125434E+03  0.00000000000E+00 0. -1.
         22    1    1    2    0    0 -0.12611643515E+04 -0.79311928344E+03  0.72517452265E+03  0.16569404961E+04  0.00000000000E+00 0. -1.
<mgrwt>
<rscale>  0 0.31733606E+04</rscale>
<asrwt>0</asrwt>
<pdfrwt beam="1">  1        1 0.21800676E+00 0.31733606E+04</pdfrwt>
<pdfrwt beam="2">  1       -1 0.27332677E+00 0.31733606E+04</pdfrwt>
<totfact> 0.30811594E-01</totfact>
</mgrwt>
</event>
<event>
 6    1  0.9562506E-007  0.2170957E+04  0.7818608E-02  0.8530614E-01
          2   -1    0    0  501    0  0.00000000000E+00  0.00000000000E+00  0.17768485559E+04  0.17768485559E+04  0.00000000000E+00 0. -1.
         -2   -1    0    0    0  501 -0.00000000000E+00 -0.00000000000E+00 -0.66312009438E+03  0.66312009438E+03  0.00000000000E+00 0.  1.
         23    2    1    2    0    0 -0.29951194277E+03  0.75278299087E+03  0.13665855239E+04  0.15912482433E+04  0.90140682201E+02 0.  0.
         11    1    3    3    0    0 -0.99679882318E+02  0.19470432576E+03  0.30422770273E+03  0.37470034497E+03  0.00000000000E+00 0.  1.
        -11    1    3    3    0    0 -0.19983206046E+03  0.55807866511E+03  0.10623578212E+04  0.12165478984E+04  0.00000000000E+00 0. -1.
         22    1    1    2    0    0  0.29951194277E+03 -0.75278299087E+03 -0.25285706237E+03  0.84872040696E+03  0.00000000000E+00 0.  1.
<mgrwt>
<rscale>  0 0.21709574E+04</rscale>
<asrwt>0</asrwt>
<pdfrwt beam="1">  1        2 0.27336131E+00 0.21709574E+04</pdfrwt>
<pdfrwt beam="2">  1       -2 0.10201848E+00 0.21709574E+04</pdfrwt>
<totfact> 0.64139172E+00</totfact>
</mgrwt>
</event>
<event>
 6    1  0.9562506E-007  0.2245614E+04  0.7818608E-02  0.8499679E-01
         -1   -1    0    0    0  501 -0.00000000000E+00  0.00000000000E+00  0.91792872927E+03  0.91792872927E+03  0.00000000000E+00 0.  1.
          1   -1    0    0  501    0  0.00000000000E+00 -0.00000000000E+00 -0.13734128877E+04  0.13734128877E+04  0.00000000000E+00 0. -1.
         23    2    1    2    0    0 -0.25270275968E+03  0.24727664555E+03 -0.13136960295E+04  0.13631541145E+04  0.85950321233E+02 0.  0.
         13    1    3    3    0    0 -0.39160772160E+02  0.89988208524E+02 -0.32390467635E+03  0.33844598256E+03  0.00000000000E+00 0. -1.
        -13    1    3    3    0    0 -0.21354198752E+03  0.15728843703E+03 -0.98979135318E+03  0.10247081319E+04  0.00000000000E+00 0.  1.
         22    1    1    2    0    0  0.25270275968E+03 -0.24727664555E+03  0.85821187106E+03  0.92818750251E+03  0.00000000000E+00 0.  1.
<mgrwt>
<rscale>  0 0.22456136E+04</rscale>
<asrwt>0</asrwt>
<pdfrwt beam="1">  1        1 0.21129429E+00 0.22456136E+04</pdfrwt>
<pdfrwt beam="2">  1       -1 0.14121980E+00 0.22456136E+04</pdfrwt>
<totfact> 0.29848606E+00</totfact>
</mgrwt>
</event>
<event>
 6    1  0.9562506E-007  0.1390055E+04  0.7818608E-02  0.8961049E-01
          2   -1    0    0  501    0  0.00000000000E+00  0.00000000000E+00  0.24074692028E+04  0.24074692028E+04  0.00000000000E+00 0. -1.
         -2   -1    0    0    0  501 -0.00000000000E+00 -0.00000000000E+00 -0.20065196244E+03  0.20065196244E+03  0.00000000000E+00 0.  1.
         23    2    1    2    0    0  0.38282762313E+03 -0.14731340430E+03  0.21539665747E+04  0.21945375329E+04  0.90359007016E+02 0.  0.
         11    1    3    3    0    0  0.23470458567E+03 -0.48170179838E+02  0.13441803884E+04  0.13653671760E+04  0.00000000000E+00 0.  1.
        -11    1    3    3    0    0  0.14812303746E+03 -0.99143224460E+02  0.80978618630E+03  0.82917035686E+03  0.00000000000E+00 0. -1.
         22    1    1    2    0    0 -0.38282762313E+03  0.14731340430E+03  0.52850665681E+02  0.41358363239E+03  0.00000000000E+00 0.  1.
<mgrwt>
<rscale>  0 0.13900553E+04</rscale>
<asrwt>0</asrwt>
<pdfrwt beam="1">  1        2 0.37037986E+00 0.13900553E+04</pdfrwt>
<pdfrwt beam="2">  1       -2 0.30869534E-01 0.13900553E+04</pdfrwt>
<totfact> 0.37380971E+01</totfact>
</mgrwt>
</event>
<event>
 6    1  0.9562506E-007  0.1483685E+04  0.7818608E-02  0.8895375E-01
         -2   -1    0    0    0  501 -0.00000000000E+00  0.00000000000E+00  0.74620648257E+03  0.74620648257E+03  0.00000000000E+00 0.  1.
          2   -1    0    0  501    0  0.00000000000E+00 -0.00000000000E+00 -0.73750376374E+03  0.73750376374E+03  0.00000000000E+00 0. -1.
         23    2    1    2    0    0  0.19350960488E+03  0.68795233368E+03  0.19287169067E+03  0.74571120106E+03  0.90340056063E+02 0.  0.
         13    1    3    3    0    0  0.82144436271E+02  0.17150388902E+03  0.74903980695E+02  0.20438174744E+03  0.00000000000E+00 0.  1.
        -13    1    3    3    0    0  0.11136516861E+03  0.51644844465E+03  0.11796770998E+03  0.54132945362E+03  0.00000000000E+00 0. -1.
         22    1    1    2    0    0 -0.19350960488E+03 -0.68795233368E+03 -0.18416897185E+03  0.73799904525E+03  0.00000000000E+00 0.  1.
<mgrwt>
<rscale>  0 0.14836847E+04</rscale>
<asrwt>0</asrwt>
<pdfrwt beam="1">  1        2 0.11346212E+00 0.14836847E+04</pdfrwt>
<pdfrwt beam="2">  1       -2 0.11480100E+00 0.14836847E+04</pdfrwt>
<totfact> 0.21953506E+01</totfact>
</mgrwt>
</event>
<event>
 6    1  0.9562506E-007  0.9139118E+03  0.7818608E-02  0.9408356E-01
          1   -1    0    0  501    0  0.00000000000E+00  0.00000000000E+00  0.10955301105E+04  0.10955301105E+04  0.00000000000E+00 0. -1.
         -1   -1    0    0    0  501 -0.00000000000E+00 -0.00000000000E+00 -0.19060061551E+03  0.19060061551E+03  0.00000000000E+00 0.  1.
         23    2    1    2    0    0 -0.44321059448E+03  0.27297708917E+02  0.31236251390E+03  0.54564681462E+03  0.54583058170E+02 0.  0.
         13    1    3    3    0    0 -0.34266706975E+03  0.51819845541E+01  0.25984441560E+03  0.43007754414E+03  0.00000000000E+00 0. -1.
        -13    1    3    3    0    0 -0.10054352473E+03  0.22115724363E+02  0.52518098299E+02  0.11556927048E+03  0.00000000000E+00 0.  1.
         22    1    1    2    0    0  0.44321059448E+03 -0.27297708917E+02  0.59256698111E+03  0.74048391142E+03  0.00000000000E+00 0. -1.
<mgrwt>
<rscale>  0 0.91391184E+03</rscale>
<asrwt>0</asrwt>
<pdfrwt beam="1">  1        1 0.16854309E+00 0.91391184E+03</pdfrwt>
<pdfrwt beam="2">  1       -1 0.29323172E-01 0.91391184E+03</pdfrwt>
<totfact> 0.13648156E+02</totfact>
</mgrwt>
</event>
<event>
 6    1  0.9562506E-007  0.3508286E+04  0.7818608E-02  0.8111829E-01
          1   -1    0    0  501    0  0.00000000000E+00  0.00000000000E+00  0.24207219180E+04  0.24207219180E+04  0.00000000000E+00 0. -1.
         -1   -1    0    0    0  501 -0.00000000000E+00 -0.00000000000E+00 -0.12711158294E+04  0.12711158294E+04  0.00000000000E+00 0.  1.
         23    2    1    2    0    0 -0.30819998048E+03 -0.28087626718E+02  0.23909636482E+04  0.24124844993E+04  0.87167367046E+02 0.  0.
         11    1    3    3    0    0 -0.26417236341E+03 -0.49457888922E+02  0.18679001385E+04  0.18871364678E+04  0.00000000000E+00 0. -1.
        -11    1    3    3    0    0 -0.44027617070E+02  0.21370262203E+02  0.52306350964E+03  0.52534803158E+03  0.00000000000E+00 0.  1.
         22    1    1    2    0    0  0.30819998048E+03  0.28087626718E+02 -0.12413575596E+04  0.12793532481E+04  0.00000000000E+00 0.  1.
<mgrwt>
<rscale>  0 0.35082862E+04</rscale>
<asrwt>0</asrwt>
<pdfrwt beam="1">  1        1 0.37241876E+00 0.35082862E+04</pdfrwt>
<pdfrwt beam="2">  1       -1 0.19555628E+00 0.35082862E+04</pdfrwt>
<totfact> 0.20247349E-01</totfact>
</mgrwt>
</event>
<event>
 6    1  0.9562506E-007  0.2376489E+04  0.7818608E-02  0.8448359E-01
         -2   -1    0    0    0  501 -0.00000000000E+00  0.00000000000E+00  0.12228373299E+04  0.12228373299E+04  0.00000000000E+00 0.  1.
          2   -1    0    0  501    0  0.00000000000E+00 -0.00000000000E+00 -0.11546299716E+04  0.11546299716E+04  0.00000000000E+00 0. -1.
         23    2    1    2    0    0  0.11190623937E+04  0.35265931557E+03  0.21681481644E+03  0.11947782424E+04  0.61783088552E+02 0.  0.
         13    1    3    3    0    0  0.11196227717E+04  0.35333539367E+03  0.21651844460E+03  0.11938514515E+04  0.00000000000E+00 0.  1.
        -13    1    3    3    0    0 -0.56037801739E+00 -0.67607810295E+00  0.29637184161E+00  0.92679091070E+00  0.00000000000E+00 0. -1.
         22    1    1    2    0    0 -0.11190623937E+04 -0.35265931557E+03 -0.14860745819E+03  0.11826890591E+04  0.00000000000E+00 0.  1.
<mgrwt>
<rscale>  0 0.23764887E+04</rscale>
<asrwt>0</asrwt>
<pdfrwt beam="1">  1        2 0.17763538E+00 0.23764887E+04</pdfrwt>
<pdfrwt beam="2">  1       -2 0.18812882E+00 0.23764887E+04</pdfrwt>
<totfact> 0.28997080E+00</totfact>
</mgrwt>
</event>
<event>
 6    1  0.9562506E-007  0.8414941E+03  0.7818608E-02  0.9501825E-01
         -1   -1    0    0    0  501 -0.00000000000E+00  0.00000000000E+00  0.20839321022E+03  0.20839321022E+03  0.00000000000E+00 0.  1.
          1   -1    0    0  501    0  0.00000000000E+00 -0.00000000000E+00 -0.84949060714E+03  0.84949060714E+03  0.00000000000E+00 0. -1.
         23    2    1    2    0    0 -0.57054292935E+01 -0.31541403565E+03  0.15199309551E+02  0.32970531402E+03  0.94636194328E+02 0.  0.
         13    1    3    3    0    0  0.43176201508E+02 -0.11974443897E+03 -0.18390311299E+01  0.12730395547E+03  0.00000000000E+00 0.  1.
        -13    1    3    3    0    0 -0.48881630801E+02 -0.19566959668E+03  0.17038340681E+02  0.20240135856E+03  0.00000000000E+00 0. -1.
         22    1    1    2    0    0  0.57054292935E+01  0.31541403565E+03 -0.65629670647E+03  0.72817850334E+03  0.00000000000E+00 0. -1.
<mgrwt>
<rscale>  0 0.84149409E+03</rscale>
<asrwt>0</asrwt>
<pdfrwt beam="1">  1        1 0.13069086E+00 0.84149409E+03</pdfrwt>
<pdfrwt beam="2">  1       -1 0.32060494E-01 0.84149409E+03</pdfrwt>
<totfact> 0.18347172E+02</totfact>
</mgrwt>
</event>
<event>
 6    1  0.9562506E-007  0.2704998E+04  0.7818608E-02  0.8333385E-01
          2   -1    0    0  501    0  0.00000000000E+00  0.00000000000E+00  0.20070407248E+04  0.20070407248E+04  0.00000000000E+00 0. -1.
         -2   -1    0    0    0  501 -0.00000000000E+00 -0.00000000000E+00 -0.91141821893E+03  0.91141821893E+03  0.00000000000E+00 0.  1.
         23    2    1    2    0    0 -0.27816839809E+03 -0.35958996042E+03 -0.82414227401E+03  0.94559822705E+03  0.90900615252E+02 0.  0.
         11    1    3    3    0    0 -0.12570433220E+03 -0.19019638075E+03 -0.32612703987E+03  0.39791341837E+03  0.00000000000E+00 0.  1.
        -11    1    3    3    0    0 -0.15246406589E+03 -0.16939357967E+03 -0.49801523414E+03  0.54768480868E+03  0.00000000000E+00 0. -1.
         22    1    1    2    0    0  0.27816839809E+03  0.35958996042E+03  0.19197647799E+04  0.19728607167E+04  0.00000000000E+00 0. -1.
<mgrwt>
<rscale>  0 0.27049980E+04</rscale>
<asrwt>0</asrwt>
<pdfrwt beam="1">  1        2 0.30877549E+00 0.27049980E+04</pdfrwt>
<pdfrwt beam="2">  1       -2 0.14021819E+00 0.27049980E+04</pdfrwt>
<totfact> 0.20771023E+00</totfact>
</mgrwt>
</event>
<event>
 6    1  0.9562506E-007  0.8721936E+03  0.7818608E-02  0.9461024E-01
         -2   -1    0    0    0  501 -0.00000000000E+00  0.00000000000E+00  0.14103521970E+03  0.14103521970E+03  0.00000000000E+00 0.  1.
          2   -1    0    0  501    0  0.00000000000E+00 -0.00000000000E+00 -0.13484605776E+04  0.13484605776E+04  0.00000000000E+00 0. -1.
         23    2    1    2    0    0 -0.36842844929E+03  0.88776739601E+02 -0.96214650583E+03  0.10380729944E+04  0.90822966347E+02 0.  0.
         13    1    3    3    0    0 -0.16746981540E+03 -0.20550388449E+01 -0.46369301209E+03  0.49301275005E+03  0.00000000000E+00 0. -1.
        -13    1    3    3    0    0 -0.20095863389E+03  0.90831778446E+02 -0.49845349374E+03  0.54506024431E+03  0.00000000000E+00 0.  1.
         22    1    1    2    0    0  0.36842844929E+03 -0.88776739601E+02 -0.24527885206E+03  0.45142280293E+03  0.00000000000E+00 0. -1.
<mgrwt>
<rscale>  0 0.87219363E+03</rscale>
<asrwt>0</asrwt>
<pdfrwt beam="1">  1        2 0.20745547E+00 0.87219363E+03</pdfrwt>
<pdfrwt beam="2">  1       -2 0.21697727E-01 0.87219363E+03</pdfrwt>
<totfact> 0.28751028E+02</totfact>
</mgrwt>
</event>
<event>
 6    1  0.9562506E-007  0.1254847E+04  0.7818608E-02  0.9066159E-01
         -2   -1    0    0    0  501 -0.00000000000E+00  0.00000000000E+00  0.12963462320E+03  0.12963462320E+03  0.00000000000E+00 0.  1.
          2   -1    0    0  501    0  0.00000000000E+00 -0.00000000000E+00 -0.30366910518E+04  0.30366910518E+04  0.00000000000E+00 0. -1.
         23    2    1    2    0    0 -0.36356538129E+03  0.49078657065E+03 -0.11269501600E+04  0.12843507624E+04  0.80554163167E+02 0.  0.
         13    1    3    3    0    0 -0.15908045640E+03  0.20996288729E+03 -0.40436391140E+03  0.48259836147E+03  0.00000000000E+00 0. -1.
        -13    1    3    3    0    0 -0.20448492489E+03  0.28082368336E+03 -0.72258624864E+03  0.80175240091E+03  0.00000000000E+00 0.  1.
         22    1    1    2    0    0  0.36356538129E+03 -0.49078657065E+03 -0.17801062685E+04  0.18819749126E+04  0.00000000000E+00 0. -1.
<mgrwt>
<rscale>  0 0.12548471E+04</rscale>
<asrwt>0</asrwt>
<pdfrwt beam="1">  1        2 0.46718320E+00 0.12548471E+04</pdfrwt>
<pdfrwt beam="2">  1       -2 0.19943790E-01 0.12548471E+04</pdfrwt>
<totfact> 0.35335838E+01</totfact>
</mgrwt>
</event>
<event>
 6    1  0.9562506E-007  0.1243080E+04  0.7818608E-02  0.9075962E-01
          2   -1    0    0  501    0  0.00000000000E+00  0.00000000000E+00  0.13639837327E+04  0.13639837327E+04  0.00000000000E+00 0. -1.
         -2   -1    0    0    0  501 -0.00000000000E+00 -0.00000000000E+00 -0.28322343054E+03  0.28322343054E+03  0.00000000000E+00 0.  1.
         23    2    1    2    0    0  0.40437721243E+03 -0.26760953564E+03  0.10513515249E+04  0.11614081619E+04  0.91613842943E+02 0.  0.
         11    1    3    3    0    0  0.20218995204E+03 -0.14678207469E+03  0.64537820971E+03  0.69205403526E+03  0.00000000000E+00 0. -1.
        -11    1    3    3    0    0  0.20218726039E+03 -0.12082746094E+03  0.40597331516E+03  0.46935412665E+03  0.00000000000E+00 0.  1.
         22    1    1    2    0    0 -0.40437721243E+03  0.26760953564E+03  0.29408777279E+02  0.48579900131E+03  0.00000000000E+00 0.  1.
<mgrwt>
<rscale>  0 0.12430803E+04</rscale>
<asrwt>0</asrwt>
<pdfrwt beam="1">  1        2 0.20984365E+00 0.12430803E+04</pdfrwt>
<pdfrwt beam="2">  1       -2 0.43572836E-01 0.12430803E+04</pdfrwt>
<totfact> 0.74550369E+01</totfact>
</mgrwt>
</event>
<event>
 6    1  0.9562506E-007  0.1958172E+04  0.7818608E-02  0.8626430E-01
         -2   -1    0    0    0  501 -0.00000000000E+00  0.00000000000E+00  0.37459414509E+03  0.37459414509E+03  0.00000000000E+00 0.  1.
          2   -1    0    0  501    0  0.00000000000E+00 -0.00000000000E+00 -0.25590619821E+04  0.25590619821E+04  0.00000000000E+00 0. -1.
         23    2    1    2    0    0 -0.30496028307E+02  0.53612801402E+03 -0.23173175643E+04  0.23804723375E+04  0.91239250365E+02 0.  0.
         11    1    3    3    0    0 -0.41559063762E+02  0.17268519777E+03 -0.89148799336E+03  0.90900944748E+03  0.00000000000E+00 0.  1.
        -11    1    3    3    0    0  0.11063035455E+02  0.36344281625E+03 -0.14258295709E+04  0.14714628900E+04  0.00000000000E+00 0. -1.
         22    1    1    2    0    0  0.30496028307E+02 -0.53612801402E+03  0.13284972724E+03  0.55318378970E+03  0.00000000000E+00 0.  1.
<mgrwt>
<rscale>  0 0.19581722E+04</rscale>
<asrwt>0</asrwt>
<pdfrwt beam="1">  1        2 0.39370184E+00 0.19581722E+04</pdfrwt>
<pdfrwt beam="2">  1       -2 0.57629869E-01 0.19581722E+04</pdfrwt>
<totfact> 0.84605115E+00</totfact>
</mgrwt>
</event>
<event>
 6    1  0.1443011E-006  0.4272590E+04  0.7818608E-02  0.7951706E-01
         -2   -1    0    0    0  501 -0.00000000000E+00  0.00000000000E+00  0.16150670130E+04  0.16150670130E+04  0.00000000000E+00 0.  1.
          2   -1    0    0  501    0  0.00000000000E+00 -0.00000000000E+00 -0.28257381059E+04  0.28257381059E+04  0.00000000000E+00 0. -1.
         23    2    1    2    0    0  0.81024608986E+03 -0.19100107640E+04 -0.11304141307E+04  0.23644908303E+04  0.91328719424E+02 0.  0.
         13    1    3    3    0    0  0.55875830255E+03 -0.12790474748E+04 -0.71429232778E+03  0.15679243645E+04  0.00000000000E+00 0.  1.
        -13    1    3    3    0    0  0.25148778732E+03 -0.63096328927E+03 -0.41612180297E+03  0.79656646582E+03  0.00000000000E+00 0. -1.
         22    1    1    2    0    0 -0.81024608986E+03  0.19100107640E+04 -0.80256962095E+02  0.20763142885E+04  0.00000000000E+00 0.  1.
<mgrwt>
<rscale>  0 0.42725900E+04</rscale>
<asrwt>0</asrwt>
<pdfrwt beam="1">  1        2 0.43472894E+00 0.42725900E+04</pdfrwt>
<pdfrwt beam="2">  1       -2 0.24847185E+00 0.42725900E+04</pdfrwt>
<totfact> 0.11302068E-01</totfact>
</mgrwt>
</event>
<event>
 6    1  0.9562506E-007  0.1953133E+04  0.7818608E-02  0.8628852E-01
         -2   -1    0    0    0  501 -0.00000000000E+00  0.00000000000E+00  0.80318549600E+03  0.80318549600E+03  0.00000000000E+00 0.  1.
          2   -1    0    0  501    0  0.00000000000E+00 -0.00000000000E+00 -0.11873743766E+04  0.11873743766E+04  0.00000000000E+00 0. -1.
         23    2    1    2    0    0  0.13489376387E+03  0.77784040935E+03  0.38937727345E+03  0.88528315403E+03  0.94231479747E+02 0.  0.
         11    1    3    3    0    0  0.48476212861E+02  0.43650009382E+03  0.17316395484E+03  0.47208900684E+03  0.00000000000E+00 0.  1.
        -11    1    3    3    0    0  0.86417551013E+02  0.34134031553E+03  0.21621331862E+03  0.41319414719E+03  0.00000000000E+00 0. -1.
         22    1    1    2    0    0 -0.13489376387E+03 -0.77784040935E+03 -0.77356615408E+03  0.11052767186E+04  0.00000000000E+00 0. -1.
<mgrwt>
<rscale>  0 0.19531327E+04</rscale>
<asrwt>0</asrwt>
<pdfrwt beam="1">  1        2 0.18267298E+00 0.19531327E+04</pdfrwt>
<pdfrwt beam="2">  1       -2 0.12356700E+00 0.19531327E+04</pdfrwt>
<totfact> 0.88726738E+00</totfact>
</mgrwt>
</event>
<event>
 6    1  0.9562506E-007  0.2775341E+04  0.7818608E-02  0.8310965E-01
         -3   -1    0    0    0  501 -0.00000000000E+00  0.00000000000E+00  0.16560441585E+04  0.16560441585E+04  0.00000000000E+00 0.  1.
          3   -1    0    0  501    0  0.00000000000E+00 -0.00000000000E+00 -0.11627888447E+04  0.11627888447E+04  0.00000000000E+00 0. -1.
         23    2    1    2    0    0 -0.93263579992E+03  0.23435057571E+03  0.12609300834E+04  0.15883638733E+04  0.90693941188E+02 0.  0.
         11    1    3    3    0    0 -0.15737142880E+03  0.25936227648E+02  0.26332419518E+03  0.30786049807E+03  0.00000000000E+00 0. -1.
        -11    1    3    3    0    0 -0.77526437112E+03  0.20841434806E+03  0.99760588825E+03  0.12805033752E+04  0.00000000000E+00 0.  1.
         22    1    1    2    0    0  0.93263579992E+03 -0.23435057571E+03 -0.76767476972E+03  0.12304691299E+04  0.00000000000E+00 0. -1.
<mgrwt>
<rscale>  0 0.27753412E+04</rscale>
<asrwt>0</asrwt>
<pdfrwt beam="1">  1        3 0.17889059E+00 0.27753412E+04</pdfrwt>
<pdfrwt beam="2">  1       -3 0.25477603E+00 0.27753412E+04</pdfrwt>
<totfact> 0.31401588E-02</totfact>
</mgrwt>
</event>
<event>
 6    1  0.9562506E-007  0.5347313E+04  0.7818608E-02  0.7777056E-01
          1   -1    0    0  501    0  0.00000000000E+00  0.00000000000E+00  0.21439635129E+04  0.21439635129E+04  0.00000000000E+00 0. -1.
         -1   -1    0    0    0  501 -0.00000000000E+00 -0.00000000000E+00 -0.33342168207E+04  0.33342168207E+04  0.00000000000E+00 0.  1.
         23    2    1    2    0    0  0.19461646413E+04  0.12494239501E+04  0.77743010891E+03  0.24416699933E+04  0.93476007302E+02 0.  0.
         11    1    3    3    0    0  0.13709628949E+04  0.82892843751E+03  0.53614807370E+03  0.16894130254E+04  0.00000000000E+00 0.  1.
        -11    1    3    3    0    0  0.57520174641E+03  0.42049551260E+03  0.24128203521E+03  0.75225696787E+03  0.00000000000E+00 0. -1.
         22    1    1    2    0    0 -0.19461646413E+04 -0.12494239501E+04 -0.19676834167E+04  0.30365103402E+04  0.00000000000E+00 0. -1.
<mgrwt>
<rscale>  0 0.53473130E+04</rscale>
<asrwt>0</asrwt>
<pdfrwt beam="1">  1        1 0.32984054E+00 0.53473130E+04</pdfrwt>
<pdfrwt beam="2">  1       -1 0.51295643E+00 0.53473130E+04</pdfrwt>
<totfact> 0.20785151E-03</totfact>
</mgrwt>
</event>
<event>
 6    1  0.9562506E-007  0.1818274E+04  0.7818608E-02  0.8696642E-01
          1   -1    0    0  501    0  0.00000000000E+00  0.00000000000E+00  0.11600208803E+04  0.11600208803E+04  0.00000000000E+00 0. -1.
         -1   -1    0    0    0  501 -0.00000000000E+00 -0.00000000000E+00 -0.71251308311E+03  0.71251308311E+03  0.00000000000E+00 0.  1.
         23    2    1    2    0    0 -0.54886541850E+03 -0.40924633719E+02  0.96648620755E+03  0.11160508747E+04  0.92443994698E+02 0.  0.
         13    1    3    3    0    0 -0.25087363079E+03  0.20280671797E+01  0.35801672122E+03  0.43717006342E+03  0.00000000000E+00 0. -1.
        -13    1    3    3    0    0 -0.29799178772E+03 -0.42952700898E+02  0.60846948633E+03  0.67888081123E+03  0.00000000000E+00 0.  1.
         22    1    1    2    0    0  0.54886541850E+03  0.40924633719E+02 -0.51897841031E+03  0.75648308880E+03  0.00000000000E+00 0.  1.
<mgrwt>
<rscale>  0 0.18182740E+04</rscale>
<asrwt>0</asrwt>
<pdfrwt beam="1">  1        1 0.17846475E+00 0.18182740E+04</pdfrwt>
<pdfrwt beam="2">  1       -1 0.10961740E+00 0.18182740E+04</pdfrwt>
<totfact> 0.82911495E+00</totfact>
</mgrwt>
</event>
<event>
 6    1  0.9562506E-007  0.4896097E+04  0.7818608E-02  0.7844738E-01
         -2   -1    0    0    0  501 -0.00000000000E+00  0.00000000000E+00  0.26178879746E+04  0.26178879746E+04  0.00000000000E+00 0.  1.
          2   -1    0    0  501    0  0.00000000000E+00 -0.00000000000E+00 -0.22892273565E+04  0.22892273565E+04  0.00000000000E+00 0. -1.
         23    2    1    2    0    0 -0.23515646316E+04  0.24457005246E+03 -0.46882965478E+03  0.24119877867E+04  0.90626214265E+02 0.  0.
         13    1    3    3    0    0 -0.85337683304E+03  0.13153161918E+03 -0.16127929971E+03  0.87838692985E+03  0.00000000000E+00 0. -1.
        -13    1    3    3    0    0 -0.14981877986E+04  0.11303843328E+03 -0.30755035507E+03  0.15336008568E+04  0.00000000000E+00 0.  1.
         22    1    1    2    0    0  0.23515646316E+04 -0.24457005246E+03  0.79749027290E+03  0.24951275444E+04  0.00000000000E+00 0.  1.
<mgrwt>
<rscale>  0 0.48960967E+04</rscale>
<asrwt>0</asrwt>
<pdfrwt beam="1">  1        2 0.35218882E+00 0.48960967E+04</pdfrwt>
<pdfrwt beam="2">  1       -2 0.40275200E+00 0.48960967E+04</pdfrwt>
<totfact> 0.24048766E-02</totfact>
</mgrwt>
</event>
<event>
 6    1  0.9562506E-007  0.1290159E+04  0.7818608E-02  0.9037406E-01
          1   -1    0    0  501    0  0.00000000000E+00  0.00000000000E+00  0.47204252729E+03  0.47204252729E+03  0.00000000000E+00 0. -1.
         -1   -1    0    0    0  501 -0.00000000000E+00 -0.00000000000E+00 -0.88154713902E+03  0.88154713902E+03  0.00000000000E+00 0.  1.
         23    2    1    2    0    0 -0.16656848045E+03  0.57270926280E+03 -0.45467308351E+03  0.75544156657E+03  0.90682905022E+02 0.  0.
         13    1    3    3    0    0 -0.11521720807E+03  0.50677811263E+03 -0.38987378297E+03  0.64969271747E+03  0.00000000000E+00 0.  1.
        -13    1    3    3    0    0 -0.51351272381E+02  0.65931150165E+02 -0.64799300534E+02  0.10574884910E+03  0.00000000000E+00 0. -1.
         22    1    1    2    0    0  0.16656848045E+03 -0.57270926280E+03  0.45168471777E+02  0.59814809974E+03  0.00000000000E+00 0. -1.
<mgrwt>
<rscale>  0 0.12901593E+04</rscale>
<asrwt>0</asrwt>
<pdfrwt beam="1">  1        1 0.72621927E-01 0.12901593E+04</pdfrwt>
<pdfrwt beam="2">  1       -1 0.13562264E+00 0.12901593E+04</pdfrwt>
<totfact> 0.21477662E+01</totfact>
</mgrwt>
</event>
<event>
 6    1  0.9562506E-007  0.1887515E+04  0.7818608E-02  0.8661096E-01
          2   -1    0    0  501    0  0.00000000000E+00  0.00000000000E+00  0.75478756824E+03  0.75478756824E+03  0.00000000000E+00 0. -1.
         -2   -1    0    0    0  501 -0.00000000000E+00 -0.00000000000E+00 -0.11800388878E+04  0.11800388878E+04  0.00000000000E+00 0.  1.
         23    2    1    2    0    0  0.27451895912E+03  0.82898202173E+03  0.14837373904E+03  0.89002142204E+03  0.86899447620E+02 0.  0.
         11    1    3    3    0    0  0.25003325743E+03  0.65846887916E+03  0.10254980402E+03  0.71176847145E+03  0.00000000000E+00 0.  1.
        -11    1    3    3    0    0  0.24485701690E+02  0.17051314257E+03  0.45823935015E+02  0.17825295060E+03  0.00000000000E+00 0. -1.
         22    1    1    2    0    0 -0.27451895912E+03 -0.82898202173E+03 -0.57362505863E+03  0.10448050340E+04  0.00000000000E+00 0.  1.
<mgrwt>
<rscale>  0 0.18875155E+04</rscale>
<asrwt>0</asrwt>
<pdfrwt beam="1">  1        2 0.11612116E+00 0.18875155E+04</pdfrwt>
<pdfrwt beam="2">  1       -2 0.18154444E+00 0.18875155E+04</pdfrwt>
<totfact> 0.61652472E+00</totfact>
</mgrwt>
</event>
<event>
 6    1  0.9562506E-007  0.2937734E+04  0.7818608E-02  0.8261738E-01
         -1   -1    0    0    0  501 -0.00000000000E+00  0.00000000000E+00  0.11666334579E+04  0.11666334579E+04  0.00000000000E+00 0.  1.
          1   -1    0    0  501    0  0.00000000000E+00 -0.00000000000E+00 -0.18493986173E+04  0.18493986173E+04  0.00000000000E+00 0. -1.
         23    2    1    2    0    0  0.69476870634E+03  0.11494278720E+04  0.26452228524E+03  0.13724866724E+04  0.99295711011E+02 0.  0.
         11    1    3    3    0    0  0.54027908118E+03  0.86372493382E+03  0.15991064194E+03  0.10312582898E+04  0.00000000000E+00 0. -1.
        -11    1    3    3    0    0  0.15448962516E+03  0.28570293816E+03  0.10461164330E+03  0.34122838256E+03  0.00000000000E+00 0.  1.
         22    1    1    2    0    0 -0.69476870634E+03 -0.11494278720E+04 -0.94728744465E+03  0.16435454028E+04  0.00000000000E+00 0.  1.
<mgrwt>
<rscale>  0 0.29377340E+04</rscale>
<asrwt>0</asrwt>
<pdfrwt beam="1">  1        1 0.28452286E+00 0.29377340E+04</pdfrwt>
<pdfrwt beam="2">  1       -1 0.17948207E+00 0.29377340E+04</pdfrwt>
<totfact> 0.67725113E-01</totfact>
</mgrwt>
</event>
<event>
 6    1  0.9562506E-007  0.1474341E+04  0.7818608E-02  0.8901698E-01
         -4   -1    0    0    0  501 -0.00000000000E+00  0.00000000000E+00  0.53831994396E+03  0.53831994396E+03  0.00000000000E+00 0.  1.
          4   -1    0    0  501    0  0.00000000000E+00 -0.00000000000E+00 -0.10094743124E+04  0.10094743124E+04  0.00000000000E+00 0. -1.
         23    2    1    2    0    0 -0.59022271702E+03 -0.11556008157E+03  0.20605823454E+03  0.64207139711E+03  0.89881559974E+02 0.  0.
         11    1    3    3    0    0 -0.38172714636E+02 -0.21319568283E+01 -0.82597112439E+01  0.39114245645E+02  0.00000000000E+00 0.  1.
        -11    1    3    3    0    0 -0.55205000239E+03 -0.11342812474E+03  0.21431794578E+03  0.60295715147E+03  0.00000000000E+00 0. -1.
         22    1    1    2    0    0  0.59022271702E+03  0.11556008157E+03 -0.67721260298E+03  0.90572285926E+03  0.00000000000E+00 0. -1.
<mgrwt>
<rscale>  0 0.14743407E+04</rscale>
<asrwt>0</asrwt>
<pdfrwt beam="1">  1        4 0.15530374E+00 0.14743407E+04</pdfrwt>
<pdfrwt beam="2">  1       -4 0.82818453E-01 0.14743407E+04</pdfrwt>
<totfact> 0.67334908E-01</totfact>
</mgrwt>
</event>
<event>
 6    1  0.9562506E-007  0.1439507E+04  0.7818608E-02  0.8925707E-01
         -2   -1    0    0    0  501 -0.00000000000E+00  0.00000000000E+00  0.11727955950E+03  0.11727955950E+03  0.00000000000E+00 0.  1.
          2   -1    0    0  501    0  0.00000000000E+00 -0.00000000000E+00 -0.44171835902E+04  0.44171835902E+04  0.00000000000E+00 0. -1.
         23    2    1    2    0    0 -0.51205277719E+03 -0.28966531341E+03 -0.34488093399E+04  0.34998297783E+04  0.91752787165E+02 0.  0.
         13    1    3    3    0    0 -0.34910827375E+03 -0.17290658511E+03 -0.24897100924E+04  0.25200058766E+04  0.00000000000E+00 0.  1.
        -13    1    3    3    0    0 -0.16294450345E+03 -0.11675872830E+03 -0.95909924746E+03  0.97982390169E+03  0.00000000000E+00 0. -1.
         22    1    1    2    0    0  0.51205277719E+03  0.28966531341E+03 -0.85109469083E+03  0.10346333714E+04  0.00000000000E+00 0.  1.
<mgrwt>
<rscale>  0 0.14395073E+04</rscale>
<asrwt>0</asrwt>
<pdfrwt beam="1">  1        2 0.67956671E+00 0.14395073E+04</pdfrwt>
<pdfrwt beam="2">  1       -2 0.18043009E-01 0.14395073E+04</pdfrwt>
<totfact> 0.38099276E+00</totfact>
</mgrwt>
</event>
<event>
 6    1  0.9562506E-007  0.1949302E+04  0.7818608E-02  0.8630697E-01
          1   -1    0    0  501    0  0.00000000000E+00  0.00000000000E+00  0.11178299636E+04  0.11178299636E+04  0.00000000000E+00 0. -1.
         -1   -1    0    0    0  501 -0.00000000000E+00 -0.00000000000E+00 -0.84981131075E+03  0.84981131075E+03  0.00000000000E+00 0.  1.
         23    2    1    2    0    0 -0.76799539472E+02 -0.26197675882E+03  0.10765047737E+04  0.11143067565E+04  0.91033116823E+02 0.  0.
         11    1    3    3    0    0 -0.77706107405E+02 -0.12261453465E+03  0.46549064989E+03  0.48760035723E+03  0.00000000000E+00 0. -1.
        -11    1    3    3    0    0  0.90656793274E+00 -0.13936222417E+03  0.61101412386E+03  0.62670639932E+03  0.00000000000E+00 0.  1.
         22    1    1    2    0    0  0.76799539472E+02  0.26197675882E+03 -0.80848612095E+03  0.85333451776E+03  0.00000000000E+00 0.  1.
<mgrwt>
<rscale>  0 0.19493020E+04</rscale>
<asrwt>0</asrwt>
<pdfrwt beam="1">  1        1 0.17197384E+00 0.19493020E+04</pdfrwt>
<pdfrwt beam="2">  1       -1 0.13074020E+00 0.19493020E+04</pdfrwt>
<totfact> 0.57263220E+00</totfact>
</mgrwt>
</event>
<event>
 6    1  0.9562506E-007  0.1064236E+04  0.7818608E-02  0.9240768E-01
         -1   -1    0    0    0  501 -0.00000000000E+00  0.00000000000E+00  0.11692803867E+04  0.11692803867E+04  0.00000000000E+00 0.  1.
          1   -1    0    0  501    0  0.00000000000E+00 -0.00000000000E+00 -0.24215726151E+03  0.24215726151E+03  0.00000000000E+00 0. -1.
         23    2    1    2    0    0 -0.15445771738E+03 -0.49771935996E+03  0.35286426222E+03  0.63596683030E+03  0.91426877642E+02 0.  0.
         11    1    3    3    0    0 -0.80015625745E+02 -0.19057156501E+03  0.18852211004E+03  0.27975097449E+03  0.00000000000E+00 0. -1.
        -11    1    3    3    0    0 -0.74442091632E+02 -0.30714779495E+03  0.16434215218E+03  0.35621585581E+03  0.00000000000E+00 0.  1.
         22    1    1    2    0    0  0.15445771738E+03  0.49771935996E+03  0.57425886299E+03  0.77547081792E+03  0.00000000000E+00 0.  1.
<mgrwt>
<rscale>  0 0.10642363E+04</rscale>
<asrwt>0</asrwt>
<pdfrwt beam="1">  1        1 0.37254964E-01 0.10642363E+04</pdfrwt>
<pdfrwt beam="2">  1       -1 0.17988929E+00 0.10642363E+04</pdfrwt>
<totfact> 0.24151416E+01</totfact>
</mgrwt>
</event>
<event>
 6    1  0.9562506E-007  0.1668077E+04  0.7818608E-02  0.8779784E-01
          2   -1    0    0  501    0  0.00000000000E+00  0.00000000000E+00  0.18891959803E+04  0.18891959803E+04  0.00000000000E+00 0. -1.
         -2   -1    0    0    0  501 -0.00000000000E+00 -0.00000000000E+00 -0.36820953612E+03  0.36820953612E+03  0.00000000000E+00 0.  1.
         23    2    1    2    0    0  0.77434576299E+03  0.17968134571E+03  0.43546693446E+03  0.91195044373E+03  0.10062511696E+03 0.  0.
         11    1    3    3    0    0  0.17239741853E+03  0.11588663518E+01  0.75399543114E+02  0.18816828635E+03  0.00000000000E+00 0.  1.
        -11    1    3    3    0    0  0.60194834446E+03  0.17852247935E+03  0.36006739134E+03  0.72378215738E+03  0.00000000000E+00 0. -1.
         22    1    1    2    0    0 -0.77434576299E+03 -0.17968134571E+03  0.10855195097E+04  0.13454550727E+04  0.00000000000E+00 0. -1.
<mgrwt>
<rscale>  0 0.16680767E+04</rscale>
<asrwt>0</asrwt>
<pdfrwt beam="1">  1        2 0.29064553E+00 0.16680767E+04</pdfrwt>
<pdfrwt beam="2">  1       -2 0.56647622E-01 0.16680767E+04</pdfrwt>
<totfact> 0.21468435E+01</totfact>
</mgrwt>
</event>
<event>
 6    1  0.9562506E-007  0.4407095E+04  0.7818608E-02  0.7927107E-01
         -2   -1    0    0    0  501 -0.00000000000E+00  0.00000000000E+00  0.22034086135E+04  0.22034086135E+04  0.00000000000E+00 0.  1.
          2   -1    0    0  501    0  0.00000000000E+00 -0.00000000000E+00 -0.22036859353E+04  0.22036859353E+04  0.00000000000E+00 0. -1.
         23    2    1    2    0    0  0.11088225486E+04 -0.13275348695E+04 -0.13637946500E+04  0.22045923859E+04  0.91953610948E+02 0.  0.
         13    1    3    3    0    0  0.48320489904E+03 -0.65001149308E+03 -0.63505237201E+03  0.10292198165E+04  0.00000000000E+00 0.  1.
        -13    1    3    3    0    0  0.62561764952E+03 -0.67752337640E+03 -0.72874227798E+03  0.11753725693E+04  0.00000000000E+00 0. -1.
         22    1    1    2    0    0 -0.11088225486E+04  0.13275348695E+04  0.13635173282E+04  0.22025021630E+04  0.00000000000E+00 0.  1.
<mgrwt>
<rscale>  0 0.44070945E+04</rscale>
<asrwt>0</asrwt>
<pdfrwt beam="1">  1        2 0.33902860E+00 0.44070945E+04</pdfrwt>
<pdfrwt beam="2">  1       -2 0.33898594E+00 0.44070945E+04</pdfrwt>
<totfact> 0.71581260E-02</totfact>
</mgrwt>
</event>
<event>
 6    1  0.9562506E-007  0.9255633E+03  0.7818608E-02  0.9394178E-01
          2   -1    0    0  501    0  0.00000000000E+00  0.00000000000E+00  0.21584550210E+04  0.21584550210E+04  0.00000000000E+00 0. -1.
         -2   -1    0    0    0  501 -0.00000000000E+00 -0.00000000000E+00 -0.99222287209E+02  0.99222287209E+02  0.00000000000E+00 0.  1.
         23    2    1    2    0    0  0.22005718858E+03 -0.49208567043E+01  0.20200117424E+04  0.20340980890E+04  0.93049531855E+02 0.  0.
         13    1    3    3    0    0  0.14836827633E+03 -0.26091860256E+02  0.16329882905E+04  0.16399221590E+04  0.00000000000E+00 0. -1.
        -13    1    3    3    0    0  0.71688912244E+02  0.21171003552E+02  0.38702345187E+03  0.39417593005E+03  0.00000000000E+00 0.  1.
         22    1    1    2    0    0 -0.22005718858E+03  0.49208567043E+01  0.39220991395E+02  0.22357921916E+03  0.00000000000E+00 0.  1.
<mgrwt>
<rscale>  0 0.92556328E+03</rscale>
<asrwt>0</asrwt>
<pdfrwt beam="1">  1        2 0.33206997E+00 0.92556328E+03</pdfrwt>
<pdfrwt beam="2">  1       -2 0.15264969E-01 0.92556328E+03</pdfrwt>
<totfact> 0.18769206E+02</totfact>
</mgrwt>
</event>
<event>
 6    1  0.9562506E-007  0.2294297E+04  0.7818608E-02  0.8480173E-01
         -2   -1    0    0    0  501 -0.00000000000E+00  0.00000000000E+00  0.10222376731E+04  0.10222376731E+04  0.00000000000E+00 0.  1.
          2   -1    0    0  501    0  0.00000000000E+00 -0.00000000000E+00 -0.12873226935E+04  0.12873226935E+04  0.00000000000E+00 0. -1.
         23    2    1    2    0    0  0.79187641053E+03 -0.71256202684E+03  0.29039572674E+03  0.11081562913E+04  0.94168977268E+02 0.  0.
         13    1    3    3    0    0  0.15716211930E+03 -0.14959069592E+03  0.98660159540E+02  0.23835086559E+03  0.00000000000E+00 0. -1.
        -13    1    3    3    0    0  0.63471429122E+03 -0.56297133092E+03  0.19173556720E+03  0.86980542574E+03  0.00000000000E+00 0.  1.
         22    1    1    2    0    0 -0.79187641053E+03  0.71256202684E+03 -0.55548074712E+03  0.12014040753E+04  0.00000000000E+00 0. -1.
<mgrwt>
<rscale>  0 0.22942971E+04</rscale>
<asrwt>0</asrwt>
<pdfrwt beam="1">  1        2 0.19804964E+00 0.22942971E+04</pdfrwt>
<pdfrwt beam="2">  1       -2 0.15726733E+00 0.22942971E+04</pdfrwt>
<totfact> 0.40266053E+00</totfact>
</mgrwt>
</event>
<event>
 6    1  0.9562506E-007  0.2446191E+04  0.7818608E-02  0.8422410E-01
         -4   -1    0    0    0  501 -0.00000000000E+00  0.00000000000E+00  0.25065743877E+04  0.25065743877E+04  0.00000000000E+00 0.  1.
          4   -1    0    0  501    0  0.00000000000E+00 -0.00000000000E+00 -0.59681548346E+03  0.59681548346E+03  0.00000000000E+00 0. -1.
         23    2    1    2    0    0  0.40796749307E+03 -0.14205421000E+03 -0.49330990106E+03  0.66180093013E+03  0.89492673722E+02 0.  0.
         13    1    3    3    0    0  0.18441070448E+03 -0.48763755017E+02 -0.15542977681E+03  0.24605614654E+03  0.00000000000E+00 0. -1.
        -13    1    3    3    0    0  0.22355678859E+03 -0.93290454986E+02 -0.33788012425E+03  0.41574478359E+03  0.00000000000E+00 0.  1.
         22    1    1    2    0    0 -0.40796749307E+03  0.14205421000E+03  0.24030688053E+04  0.24415889410E+04  0.00000000000E+00 0.  1.
<mgrwt>
<rscale>  0 0.24461908E+04</rscale>
<asrwt>0</asrwt>
<pdfrwt beam="1">  1        4 0.91817768E-01 0.24461908E+04</pdfrwt>
<pdfrwt beam="2">  1       -4 0.38562682E+00 0.24461908E+04</pdfrwt>
<totfact> 0.15487697E-02</totfact>
</mgrwt>
</event>
<event>
 6    1  0.9562506E-007  0.1687079E+04  0.7818608E-02  0.8768768E-01
         -1   -1    0    0    0  501 -0.00000000000E+00  0.00000000000E+00  0.48255539405E+03  0.48255539405E+03  0.00000000000E+00 0.  1.
          1   -1    0    0  501    0  0.00000000000E+00 -0.00000000000E+00 -0.14745638013E+04  0.14745638013E+04  0.00000000000E+00 0. -1.
         23    2    1    2    0    0  0.10571239074E+03  0.41903808680E+03 -0.13345046506E+04  0.14056922243E+04  0.91104002140E+02 0.  0.
         13    1    3    3    0    0  0.41387376047E+02  0.87826705829E+02 -0.20423442223E+03  0.22613744576E+03  0.00000000000E+00 0. -1.
        -13    1    3    3    0    0  0.64325014690E+02  0.33121138097E+03 -0.11302702284E+04  0.11795547785E+04  0.00000000000E+00 0.  1.
         22    1    1    2    0    0 -0.10571239074E+03 -0.41903808680E+03  0.34249624333E+03  0.55142697108E+03  0.00000000000E+00 0.  1.
<mgrwt>
<rscale>  0 0.16870788E+04</rscale>
<asrwt>0</asrwt>
<pdfrwt beam="1">  1        1 0.22685597E+00 0.16870788E+04</pdfrwt>
<pdfrwt beam="2">  1       -1 0.74239291E-01 0.16870788E+04</pdfrwt>
<totfact> 0.11854613E+01</totfact>
</mgrwt>
</event>
<event>
 6    1  0.9562506E-007  0.4013366E+04  0.7818608E-02  0.8001856E-01
          1   -1    0    0  501    0  0.00000000000E+00  0.00000000000E+00  0.14303345143E+04  0.14303345143E+04  0.00000000000E+00 0. -1.
         -1   -1    0    0    0  501 -0.00000000000E+00 -0.00000000000E+00 -0.28152689024E+04  0.28152689024E+04  0.00000000000E+00 0.  1.
         23    2    1    2    0    0  0.72409064114E+03  0.10123918538E+04 -0.23565156304E+04  0.26666117662E+04  0.91694454401E+02 0.  0.
         13    1    3    3    0    0  0.63950214353E+02  0.51583767318E+02 -0.16611797583E+03  0.18532592064E+03  0.00000000000E+00 0. -1.
        -13    1    3    3    0    0  0.66014042679E+03  0.96080808645E+03 -0.21903976546E+04  0.24812858455E+04  0.00000000000E+00 0.  1.
         22    1    1    2    0    0 -0.72409064114E+03 -0.10123918538E+04  0.97158124226E+03  0.15789916505E+04  0.00000000000E+00 0. -1.
<mgrwt>
<rscale>  0 0.40133658E+04</rscale>
<asrwt>0</asrwt>
<pdfrwt beam="1">  1        1 0.22005147E+00 0.40133658E+04</pdfrwt>
<pdfrwt beam="2">  1       -1 0.43311829E+00 0.40133658E+04</pdfrwt>
<totfact> 0.24195590E-02</totfact>
</mgrwt>
</event>
<event>
 6    1  0.1334910E-006  0.5172235E+04  0.7818608E-02  0.7802474E-01
         -2   -1    0    0    0  501 -0.00000000000E+00  0.00000000000E+00  0.27287557535E+04  0.27287557535E+04  0.00000000000E+00 0.  1.
          2   -1    0    0  501    0  0.00000000000E+00 -0.00000000000E+00 -0.24509349075E+04  0.24509349075E+04  0.00000000000E+00 0. -1.
         23    2    1    2    0    0  0.20635962503E+04 -0.10737547075E+04 -0.99073428866E+03  0.25300471405E+04  0.90583917933E+02 0.  0.
         11    1    3    3    0    0  0.79101596785E+03 -0.46146896750E+03 -0.39016816134E+03  0.99543511264E+03  0.00000000000E+00 0.  1.
        -11    1    3    3    0    0  0.12725802825E+04 -0.61228573995E+03 -0.60056612731E+03  0.15346120279E+04  0.00000000000E+00 0. -1.
         22    1    1    2    0    0 -0.20635962503E+04  0.10737547075E+04  0.12685551346E+04  0.26496435205E+04  0.00000000000E+00 0.  1.
<mgrwt>
<rscale>  0 0.51722346E+04</rscale>
<asrwt>0</asrwt>
<pdfrwt beam="1">  1        2 0.37706691E+00 0.51722346E+04</pdfrwt>
<pdfrwt beam="2">  1       -2 0.41980858E+00 0.51722346E+04</pdfrwt>
<totfact> 0.14698330E-02</totfact>
</mgrwt>
</event>
<event>
 6    1  0.9562506E-007  0.1497305E+04  0.7818608E-02  0.8886247E-01
         -2   -1    0    0    0  501 -0.00000000000E+00  0.00000000000E+00  0.49693635676E+03  0.49693635676E+03  0.00000000000E+00 0.  1.
          2   -1    0    0  501    0  0.00000000000E+00 -0.00000000000E+00 -0.11278712954E+04  0.11278712954E+04  0.00000000000E+00 0. -1.
         23    2    1    2    0    0  0.18313857201E+03 -0.52761698414E+03  0.22038562137E+03  0.60663963340E+03  0.86731794598E+02 0.  0.
         13    1    3    3    0    0  0.76904334803E+02 -0.15848362247E+03  0.10712923135E+03  0.20617470144E+03  0.00000000000E+00 0. -1.
        -13    1    3    3    0    0  0.10623423721E+03 -0.36913336167E+03  0.11325639002E+03  0.40046493196E+03  0.00000000000E+00 0.  1.
         22    1    1    2    0    0 -0.18313857201E+03  0.52761698414E+03 -0.85132056003E+03  0.10181680188E+04  0.00000000000E+00 0. -1.
<mgrwt>
<rscale>  0 0.14973046E+04</rscale>
<asrwt>0</asrwt>
<pdfrwt beam="1">  1        2 0.17351866E+00 0.14973046E+04</pdfrwt>
<pdfrwt beam="2">  1       -2 0.76451748E-01 0.14973046E+04</pdfrwt>
<totfact> 0.30974046E+01</totfact>
</mgrwt>
</event>
<event>
 6    1  0.9562506E-007  0.3443460E+04  0.7818608E-02  0.8127321E-01
         -2   -1    0    0    0  501 -0.00000000000E+00  0.00000000000E+00  0.10319309156E+04  0.10319309156E+04  0.00000000000E+00 0.  1.
          2   -1    0    0  501    0  0.00000000000E+00 -0.00000000000E+00 -0.28726285196E+04  0.28726285196E+04  0.00000000000E+00 0. -1.
         23    2    1    2    0    0  0.48108535146E+03  0.13599232637E+04 -0.19843095959E+04  0.24549185131E+04  0.91136903268E+02 0.  0.
         11    1    3    3    0    0  0.42630168787E+03  0.11484143412E+04 -0.17274280139E+04  0.21176865140E+04  0.00000000000E+00 0. -1.
        -11    1    3    3    0    0  0.54783663590E+02  0.21150892249E+03 -0.25688158195E+03  0.33723199913E+03  0.00000000000E+00 0.  1.
         22    1    1    2    0    0 -0.48108535146E+03 -0.13599232637E+04  0.14361199189E+03  0.14496409220E+04  0.00000000000E+00 0.  1.
<mgrwt>
<rscale>  0 0.34434600E+04</rscale>
<asrwt>0</asrwt>
<pdfrwt beam="1">  1        2 0.44194285E+00 0.34434600E+04</pdfrwt>
<pdfrwt beam="2">  1       -2 0.15875860E+00 0.34434600E+04</pdfrwt>
<totfact> 0.44332726E-01</totfact>
</mgrwt>
</event>
<event>
 6    1  0.9562506E-007  0.1928565E+04  0.7818608E-02  0.8640767E-01
         -2   -1    0    0    0  501 -0.00000000000E+00  0.00000000000E+00  0.81787685803E+03  0.81787685803E+03  0.00000000000E+00 0.  1.
          2   -1    0    0  501    0  0.00000000000E+00 -0.00000000000E+00 -0.11368963093E+04  0.11368963093E+04  0.00000000000E+00 0. -1.
         23    2    1    2    0    0  0.41369002697E+03  0.86476846939E+03 -0.77677224070E+02  0.96623383344E+03  0.92790762913E+02 0.  0.
         11    1    3    3    0    0  0.59075171953E+02  0.12750722196E+03  0.21391157950E+02  0.14214622482E+03  0.00000000000E+00 0. -1.
        -11    1    3    3    0    0  0.35461485502E+03  0.73726124743E+03 -0.99068382020E+02  0.82408760862E+03  0.00000000000E+00 0.  1.
         22    1    1    2    0    0 -0.41369002697E+03 -0.86476846939E+03 -0.24134222723E+03  0.98853933392E+03  0.00000000000E+00 0.  1.
<mgrwt>
<rscale>  0 0.19285655E+04</rscale>
<asrwt>0</asrwt>
<pdfrwt beam="1">  1        2 0.17490712E+00 0.19285655E+04</pdfrwt>
<pdfrwt beam="2">  1       -2 0.12582721E+00 0.19285655E+04</pdfrwt>
<totfact> 0.91136338E+00</totfact>
</mgrwt>
</event>
<event>
 6    1  0.9562506E-007  0.1457884E+04  0.7818608E-02  0.8912953E-01
          1   -1    0    0  501    0  0.00000000000E+00  0.00000000000E+00  0.37868282364E+03  0.37868282364E+03  0.00000000000E+00 0. -1.
         -1   -1    0    0    0  501 -0.00000000000E+00 -0.00000000000E+00 -0.14031692038E+04  0.14031692038E+04  0.00000000000E+00 0.  1.
         23    2    1    2    0    0  0.21228010086E+03  0.36954041308E+03  0.20383418509E+03  0.48170035586E+03  0.94148285702E+02 0.  0.
         13    1    3    3    0    0  0.20942200348E+03  0.29975132542E+03  0.18245433471E+03  0.40865390844E+03  0.00000000000E+00 0. -1.
        -13    1    3    3    0    0  0.28580973752E+01  0.69789087659E+02  0.21379850385E+02  0.73046447411E+02  0.00000000000E+00 0.  1.
         22    1    1    2    0    0 -0.21228010086E+03 -0.36954041308E+03 -0.12283205652E+04  0.13001516715E+04  0.00000000000E+00 0.  1.
<mgrwt>
<rscale>  0 0.14578835E+04</rscale>
<asrwt>0</asrwt>
<pdfrwt beam="1">  1        1 0.58258896E-01 0.14578835E+04</pdfrwt>
<pdfrwt beam="2">  1       -1 0.21587218E+00 0.14578835E+04</pdfrwt>
<totfact> 0.73482950E+00</totfact>
</mgrwt>
</event>
<event>
 6    1  0.9562506E-007  0.1383565E+04  0.7818608E-02  0.8965802E-01
         -1   -1    0    0    0  501 -0.00000000000E+00  0.00000000000E+00  0.65932870092E+03  0.65932870092E+03  0.00000000000E+00 0.  1.
          1   -1    0    0  501    0  0.00000000000E+00 -0.00000000000E+00 -0.72583370161E+03  0.72583370161E+03  0.00000000000E+00 0. -1.
         23    2    1    2    0    0 -0.12005109065E+03 -0.52056631246E+03  0.40172169455E+03  0.67478377942E+03  0.92473126155E+02 0.  0.
         13    1    3    3    0    0 -0.27659494128E+01 -0.20848884890E+03  0.14410501586E+03  0.25345908188E+03  0.00000000000E+00 0. -1.
        -13    1    3    3    0    0 -0.11728514124E+03 -0.31207746357E+03  0.25761667869E+03  0.42132469754E+03  0.00000000000E+00 0.  1.
         22    1    1    2    0    0  0.12005109065E+03  0.52056631246E+03 -0.46822669523E+03  0.71037862311E+03  0.00000000000E+00 0. -1.
<mgrwt>
<rscale>  0 0.13835649E+04</rscale>
<asrwt>0</asrwt>
<pdfrwt beam="1">  1        1 0.11166672E+00 0.13835649E+04</pdfrwt>
<pdfrwt beam="2">  1       -1 0.10143519E+00 0.13835649E+04</pdfrwt>
<totfact> 0.23218065E+01</totfact>
</mgrwt>
</event>
<event>
 6    1  0.9562506E-007  0.2931938E+04  0.7818608E-02  0.8263438E-01
          1   -1    0    0  501    0  0.00000000000E+00  0.00000000000E+00  0.11146250876E+04  0.11146250876E+04  0.00000000000E+00 0. -1.
         -1   -1    0    0    0  501 -0.00000000000E+00 -0.00000000000E+00 -0.19280613367E+04  0.19280613367E+04  0.00000000000E+00 0.  1.
         23    2    1    2    0    0 -0.77039138653E+03 -0.11693338442E+04 -0.85233382693E+03  0.16418446954E+04  0.91304564749E+02 0.  0.
         13    1    3    3    0    0 -0.61244647363E+03 -0.86942183132E+03 -0.62178286704E+03  0.12319086563E+04  0.00000000000E+00 0. -1.
        -13    1    3    3    0    0 -0.15794491290E+03 -0.29991201291E+03 -0.23055095989E+03  0.40993603905E+03  0.00000000000E+00 0.  1.
         22    1    1    2    0    0  0.77039138653E+03  0.11693338442E+04  0.38897577799E+02  0.14008417288E+04  0.00000000000E+00 0.  1.
<mgrwt>
<rscale>  0 0.29319383E+04</rscale>
<asrwt>0</asrwt>
<pdfrwt beam="1">  1        1 0.17148078E+00 0.29319383E+04</pdfrwt>
<pdfrwt beam="2">  1       -1 0.29662482E+00 0.29319383E+04</pdfrwt>
<totfact> 0.36748420E-01</totfact>
</mgrwt>
</event>
<event>
 6    1  0.9562506E-007  0.2016997E+04  0.7818608E-02  0.8598715E-01
         -2   -1    0    0    0  501 -0.00000000000E+00  0.00000000000E+00  0.46447268166E+03  0.46447268166E+03  0.00000000000E+00 0.  1.
          2   -1    0    0  501    0  0.00000000000E+00 -0.00000000000E+00 -0.21897283323E+04  0.21897283323E+04  0.00000000000E+00 0. -1.
         23    2    1    2    0    0  0.22268602437E+03  0.66618530478E+03  0.84228072498E+02  0.71316436566E+03  0.90095052528E+02 0.  0.
         11    1    3    3    0    0  0.19218119542E+03  0.47990142277E+03  0.87858345777E+02  0.52436444995E+03  0.00000000000E+00 0. -1.
        -11    1    3    3    0    0  0.30504828950E+02  0.18628388201E+03 -0.36302732792E+01  0.18879991571E+03  0.00000000000E+00 0.  1.
         22    1    1    2    0    0 -0.22268602437E+03 -0.66618530478E+03 -0.18094837231E+04  0.19410366483E+04  0.00000000000E+00 0. -1.
<mgrwt>
<rscale>  0 0.20169968E+04</rscale>
<asrwt>0</asrwt>
<pdfrwt beam="1">  1        2 0.33688128E+00 0.20169968E+04</pdfrwt>
<pdfrwt beam="2">  1       -2 0.71457335E-01 0.20169968E+04</pdfrwt>
<totfact> 0.86267841E+00</totfact>
</mgrwt>
</event>
<event>
 6    1  0.9562506E-007  0.1737431E+04  0.7818608E-02  0.8740299E-01
          1   -1    0    0  501    0  0.00000000000E+00  0.00000000000E+00  0.49846756590E+03  0.49846756590E+03  0.00000000000E+00 0. -1.
         -1   -1    0    0    0  501 -0.00000000000E+00 -0.00000000000E+00 -0.15139740559E+04  0.15139740559E+04  0.00000000000E+00 0.  1.
         23    2    1    2    0    0  0.26653795135E+03 -0.62774090637E+03 -0.11281408441E+04  0.13212197885E+04  0.88424206521E+02 0.  0.
         13    1    3    3    0    0  0.18256528575E+03 -0.36998400410E+03 -0.74929443732E+03  0.85537149862E+03  0.00000000000E+00 0.  1.
        -13    1    3    3    0    0  0.83972665599E+02 -0.25775690227E+03 -0.37884640682E+03  0.46584828989E+03  0.00000000000E+00 0. -1.
         22    1    1    2    0    0 -0.26653795135E+03  0.62774090637E+03  0.11263435416E+03  0.69122183327E+03  0.00000000000E+00 0. -1.
<mgrwt>
<rscale>  0 0.17374314E+04</rscale>
<asrwt>0</asrwt>
<pdfrwt beam="1">  1        1 0.76687316E-01 0.17374314E+04</pdfrwt>
<pdfrwt beam="2">  1       -1 0.23291909E+00 0.17374314E+04</pdfrwt>
<totfact> 0.38118306E+00</totfact>
</mgrwt>
</event>
<event>
 6    1  0.9562506E-007  0.9220538E+03  0.7818608E-02  0.9398425E-01
         -1   -1    0    0    0  501 -0.00000000000E+00  0.00000000000E+00  0.70610968537E+03  0.70610968537E+03  0.00000000000E+00 0.  1.
          1   -1    0    0  501    0  0.00000000000E+00 -0.00000000000E+00 -0.30100962661E+03  0.30100962661E+03  0.00000000000E+00 0. -1.
         23    2    1    2    0    0 -0.13347058031E+03 -0.13861116615E+03  0.65669270268E+03  0.69037602529E+03  0.91358083151E+02 0.  0.
         13    1    3    3    0    0 -0.14335810270E+02  0.11542087539E+02  0.31737259343E+02  0.36687720990E+02  0.00000000000E+00 0.  1.
        -13    1    3    3    0    0 -0.11913477004E+03 -0.15015325369E+03  0.62495544333E+03  0.65368830430E+03  0.00000000000E+00 0. -1.
         22    1    1    2    0    0  0.13347058031E+03  0.13861116615E+03 -0.25159264392E+03  0.31674328669E+03  0.00000000000E+00 0. -1.
<mgrwt>
<rscale>  0 0.92205382E+03</rscale>
<asrwt>0</asrwt>
<pdfrwt beam="1">  1        1 0.46309173E-01 0.92205382E+03</pdfrwt>
<pdfrwt beam="2">  1       -1 0.10863226E+00 0.92205382E+03</pdfrwt>
<totfact> 0.69123901E+01</totfact>
</mgrwt>
</event>
<event>
 6    1  0.9562506E-007  0.2263303E+04  0.7818608E-02  0.8492532E-01
         -2   -1    0    0    0  501 -0.00000000000E+00  0.00000000000E+00  0.90241918227E+03  0.90241918227E+03  0.00000000000E+00 0.  1.
          2   -1    0    0  501    0  0.00000000000E+00 -0.00000000000E+00 -0.14191133225E+04  0.14191133225E+04  0.00000000000E+00 0. -1.
         23    2    1    2    0    0 -0.72608230571E+03 -0.77546448201E+03 -0.65329313312E+03  0.12504582952E+04  0.91177588736E+02 0.  0.
         11    1    3    3    0    0 -0.57535489713E+03 -0.56249803951E+03 -0.51245483742E+03  0.95396397338E+03  0.00000000000E+00 0.  1.
        -11    1    3    3    0    0 -0.15072740858E+03 -0.21296644250E+03 -0.14083829570E+03  0.29649432181E+03  0.00000000000E+00 0. -1.
         22    1    1    2    0    0  0.72608230571E+03  0.77546448201E+03  0.13659899291E+03  0.10710742096E+04  0.00000000000E+00 0.  1.
<mgrwt>
<rscale>  0 0.22633030E+04</rscale>
<asrwt>0</asrwt>
<pdfrwt beam="1">  1        2 0.21832513E+00 0.22633030E+04</pdfrwt>
<pdfrwt beam="2">  1       -2 0.13883372E+00 0.22633030E+04</pdfrwt>
<totfact> 0.47105996E+00</totfact>
</mgrwt>
</event>
<event>
 6    1  0.9562506E-007  0.1087607E+04  0.7818608E-02  0.9217356E-01
         -2   -1    0    0    0  501 -0.00000000000E+00  0.00000000000E+00  0.29600450298E+03  0.29600450298E+03  0.00000000000E+00 0.  1.
          2   -1    0    0  501    0  0.00000000000E+00 -0.00000000000E+00 -0.99904636627E+03  0.99904636627E+03  0.00000000000E+00 0. -1.
         23    2    1    2    0    0 -0.51619668785E+02  0.45830414109E+03 -0.19714155371E+02  0.47064560947E+03  0.91713498677E+02 0.  0.
         13    1    3    3    0    0  0.26566154006E+02  0.11075441404E+03 -0.60105762234E+00  0.11389759452E+03  0.00000000000E+00 0.  1.
        -13    1    3    3    0    0 -0.78185822791E+02  0.34754972705E+03 -0.19113097748E+02  0.35674801494E+03  0.00000000000E+00 0. -1.
         22    1    1    2    0    0  0.51619668785E+02 -0.45830414109E+03 -0.68332770792E+03  0.82440525978E+03  0.00000000000E+00 0. -1.
<mgrwt>
<rscale>  0 0.10876070E+04</rscale>
<asrwt>0</asrwt>
<pdfrwt beam="1">  1        2 0.15369944E+00 0.10876070E+04</pdfrwt>
<pdfrwt beam="2">  1       -2 0.45539155E-01 0.10876070E+04</pdfrwt>
<totfact> 0.11455172E+02</totfact>
</mgrwt>
</event>
<event>
 6    1  0.9562506E-007  0.4931908E+04  0.7818608E-02  0.7839098E-01
         -1   -1    0    0    0  501 -0.00000000000E+00  0.00000000000E+00  0.27597503186E+04  0.27597503186E+04  0.00000000000E+00 0.  1.
          1   -1    0    0  501    0  0.00000000000E+00 -0.00000000000E+00 -0.22034342526E+04  0.22034342526E+04  0.00000000000E+00 0. -1.
         23    2    1    2    0    0  0.22388888626E+04  0.30725844831E+03 -0.71242729670E+03  0.23715169974E+04  0.97514730050E+02 0.  0.
         11    1    3    3    0    0  0.13976976991E+04  0.23853822948E+03 -0.45604569574E+03  0.14894418490E+04  0.00000000000E+00 0. -1.
        -11    1    3    3    0    0  0.84119116352E+03  0.68720218832E+02 -0.25638160096E+03  0.88207514837E+03  0.00000000000E+00 0.  1.
         22    1    1    2    0    0 -0.22388888626E+04 -0.30725844831E+03  0.12687433626E+04  0.25916675738E+04  0.00000000000E+00 0. -1.
<mgrwt>
<rscale>  0 0.49319077E+04</rscale>
<asrwt>0</asrwt>
<pdfrwt beam="1">  1        1 0.33898988E+00 0.49319077E+04</pdfrwt>
<pdfrwt beam="2">  1       -1 0.42457697E+00 0.49319077E+04</pdfrwt>
<totfact> 0.76324786E-03</totfact>
</mgrwt>
</event>
<event>
 6    1  0.9562506E-007  0.1447851E+04  0.7818608E-02  0.8919892E-01
          1   -1    0    0  501    0  0.00000000000E+00  0.00000000000E+00  0.21854994531E+04  0.21854994531E+04  0.00000000000E+00 0. -1.
         -1   -1    0    0    0  501 -0.00000000000E+00 -0.00000000000E+00 -0.23979326932E+03  0.23979326932E+03  0.00000000000E+00 0.  1.
         23    2    1    2    0    0 -0.68068341410E+03 -0.21574144616E+03  0.80486168946E+03  0.10794099482E+04  0.86308836187E+02 0.  0.
         11    1    3    3    0    0 -0.25089840136E+03 -0.36837932824E+02  0.27406042210E+03  0.37338472928E+03  0.00000000000E+00 0.  1.
        -11    1    3    3    0    0 -0.42978501274E+03 -0.17890351334E+03  0.53080126736E+03  0.70602521888E+03  0.00000000000E+00 0. -1.
         22    1    1    2    0    0  0.68068341410E+03  0.21574144616E+03  0.11408444943E+04  0.13458827743E+04  0.00000000000E+00 0.  1.
<mgrwt>
<rscale>  0 0.14478509E+04</rscale>
<asrwt>0</asrwt>
<pdfrwt beam="1">  1        1 0.33623067E+00 0.14478509E+04</pdfrwt>
<pdfrwt beam="2">  1       -1 0.36891274E-01 0.14478509E+04</pdfrwt>
<totfact> 0.15301775E+01</totfact>
</mgrwt>
</event>
<event>
 6    1  0.9562506E-007  0.1578028E+04  0.7818608E-02  0.8834161E-01
         -2   -1    0    0    0  501 -0.00000000000E+00  0.00000000000E+00  0.22331490643E+03  0.22331490643E+03  0.00000000000E+00 0.  1.
          2   -1    0    0  501    0  0.00000000000E+00 -0.00000000000E+00 -0.27877353557E+04  0.27877353557E+04  0.00000000000E+00 0. -1.
         23    2    1    2    0    0  0.22109181907E+02  0.78320742835E+03 -0.11567691468E+04  0.14000304357E+04  0.89820210419E+02 0.  0.
         13    1    3    3    0    0 -0.87641138678E+01  0.64377686284E+03 -0.90635597190E+03  0.11117583400E+04  0.00000000000E+00 0.  1.
        -13    1    3    3    0    0  0.30873295775E+02  0.13943056551E+03 -0.25041317491E+03  0.28827209570E+03  0.00000000000E+00 0. -1.
         22    1    1    2    0    0 -0.22109181907E+02 -0.78320742835E+03 -0.14076513025E+04  0.16110198264E+04  0.00000000000E+00 0.  1.
<mgrwt>
<rscale>  0 0.15780277E+04</rscale>
<asrwt>0</asrwt>
<pdfrwt beam="1">  1        2 0.42888237E+00 0.15780277E+04</pdfrwt>
<pdfrwt beam="2">  1       -2 0.34356139E-01 0.15780277E+04</pdfrwt>
<totfact> 0.18012428E+01</totfact>
</mgrwt>
</event>
<event>
 6    1  0.9562506E-007  0.2079133E+04  0.7818608E-02  0.8570491E-01
         -2   -1    0    0    0  501 -0.00000000000E+00  0.00000000000E+00  0.70194586962E+03  0.70194586962E+03  0.00000000000E+00 0.  1.
          2   -1    0    0  501    0  0.00000000000E+00 -0.00000000000E+00 -0.15395757002E+04  0.15395757002E+04  0.00000000000E+00 0. -1.
         23    2    1    2    0    0 -0.96335450929E+03 -0.38081313020E+03 -0.48471671345E+03  0.11471641242E+04  0.89245082425E+02 0.  0.
         11    1    3    3    0    0 -0.86670319424E+02 -0.63111575836E+02 -0.46951751861E+02  0.11704393310E+03  0.00000000000E+00 0.  1.
        -11    1    3    3    0    0 -0.87668418987E+03 -0.31770155436E+03 -0.43776496159E+03  0.10301201910E+04  0.00000000000E+00 0. -1.
         22    1    1    2    0    0  0.96335450929E+03  0.38081313020E+03 -0.35291311719E+03  0.10943574457E+04  0.00000000000E+00 0.  1.
<mgrwt>
<rscale>  0 0.20791333E+04</rscale>
<asrwt>0</asrwt>
<pdfrwt beam="1">  1        2 0.23685780E+00 0.20791333E+04</pdfrwt>
<pdfrwt beam="2">  1       -2 0.10799167E+00 0.20791333E+04</pdfrwt>
<totfact> 0.76475586E+00</totfact>
</mgrwt>
</event>
<event>
 6    1  0.9562506E-007  0.2975909E+04  0.7818608E-02  0.8250644E-01
         -1   -1    0    0    0  501 -0.00000000000E+00  0.00000000000E+00  0.28834807049E+04  0.28834807049E+04  0.00000000000E+00 0.  1.
          1   -1    0    0  501    0  0.00000000000E+00 -0.00000000000E+00 -0.76782505314E+03  0.76782505314E+03  0.00000000000E+00 0. -1.
         23    2    1    2    0    0 -0.14024407574E+04 -0.21897171711E+03  0.51682690460E+03  0.15133062132E+04  0.90537036159E+02 0.  0.
         11    1    3    3    0    0 -0.40070746887E+03 -0.21623761748E+02  0.15086038916E+03  0.42871076461E+03  0.00000000000E+00 0.  1.
        -11    1    3    3    0    0 -0.10017332885E+04 -0.19734795536E+03  0.36596651544E+03  0.10845954486E+04  0.00000000000E+00 0. -1.
         22    1    1    2    0    0  0.14024407574E+04  0.21897171711E+03  0.15988287472E+04  0.21379995448E+04  0.00000000000E+00 0.  1.
<mgrwt>
<rscale>  0 0.29759091E+04</rscale>
<asrwt>0</asrwt>
<pdfrwt beam="1">  1        1 0.11812693E+00 0.29759091E+04</pdfrwt>
<pdfrwt beam="2">  1       -1 0.44361241E+00 0.29759091E+04</pdfrwt>
<totfact> 0.72019574E-02</totfact>
</mgrwt>
</event>
<event>
 6    1  0.9562506E-007  0.1748184E+04  0.7818608E-02  0.8734351E-01
          2   -1    0    0  501    0  0.00000000000E+00  0.00000000000E+00  0.18689611695E+04  0.18689611695E+04  0.00000000000E+00 0. -1.
         -2   -1    0    0    0  501 -0.00000000000E+00 -0.00000000000E+00 -0.40880286721E+03  0.40880286721E+03  0.00000000000E+00 0.  1.
         23    2    1    2    0    0 -0.83339045721E+03  0.10924315602E+03  0.43030773107E+03  0.94845371915E+03  0.89028044169E+02 0.  0.
         13    1    3    3    0    0 -0.54548554484E+03  0.11193158577E+03  0.29829435171E+03  0.63171408072E+03  0.00000000000E+00 0. -1.
        -13    1    3    3    0    0 -0.28790491237E+03 -0.26884297514E+01  0.13201337936E+03  0.31673963843E+03  0.00000000000E+00 0.  1.
         22    1    1    2    0    0  0.83339045721E+03 -0.10924315602E+03  0.10298505712E+04  0.13293103176E+04  0.00000000000E+00 0.  1.
<mgrwt>
<rscale>  0 0.17481838E+04</rscale>
<asrwt>0</asrwt>
<pdfrwt beam="1">  1        2 0.28753248E+00 0.17481838E+04</pdfrwt>
<pdfrwt beam="2">  1       -2 0.62892750E-01 0.17481838E+04</pdfrwt>
<totfact> 0.17547470E+01</totfact>
</mgrwt>
</event>
<event>
 6    1  0.9562506E-007  0.3308803E+04  0.7818608E-02  0.8160659E-01
          1   -1    0    0  501    0  0.00000000000E+00  0.00000000000E+00  0.29239186179E+04  0.29239186179E+04  0.00000000000E+00 0. -1.
         -1   -1    0    0    0  501 -0.00000000000E+00 -0.00000000000E+00 -0.93608794203E+03  0.93608794203E+03  0.00000000000E+00 0.  1.
         23    2    1    2    0    0  0.51721563910E+03  0.14896876997E+04  0.15735423297E+04  0.22295721719E+04  0.90967830362E+02 0.  0.
         11    1    3    3    0    0  0.45639357134E+03  0.12109565541E+04  0.13009178678E+04  0.18349654401E+04  0.00000000000E+00 0. -1.
        -11    1    3    3    0    0  0.60822067761E+02  0.27873114566E+03  0.27262446191E+03  0.39460673172E+03  0.00000000000E+00 0.  1.
         22    1    1    2    0    0 -0.51721563910E+03 -0.14896876997E+04  0.41428834621E+03  0.16304343881E+04  0.00000000000E+00 0. -1.
<mgrwt>
<rscale>  0 0.33088034E+04</rscale>
<asrwt>0</asrwt>
<pdfrwt beam="1">  1        1 0.44983363E+00 0.33088034E+04</pdfrwt>
<pdfrwt beam="2">  1       -1 0.14401353E+00 0.33088034E+04</pdfrwt>
<totfact> 0.21882034E-01</totfact>
</mgrwt>
</event>
<event>
 6    1  0.9562506E-007  0.6071244E+03  0.7818608E-02  0.9890734E-01
         -2   -1    0    0    0  501 -0.00000000000E+00  0.00000000000E+00  0.89395680229E+02  0.89395680229E+02  0.00000000000E+00 0.  1.
          2   -1    0    0  501    0  0.00000000000E+00 -0.00000000000E+00 -0.10308105354E+04  0.10308105354E+04  0.00000000000E+00 0. -1.
         23    2    1    2    0    0 -0.27392438126E+03 -0.52258972886E+02 -0.29404486248E+03  0.41532787554E+03  0.90935670420E+02 0.  0.
         11    1    3    3    0    0 -0.80124799335E+02 -0.57413072595E+02 -0.11458228582E+03  0.15114676509E+03  0.00000000000E+00 0.  1.
        -11    1    3    3    0    0 -0.19379958192E+03  0.51540997094E+01 -0.17946257666E+03  0.26418111045E+03  0.00000000000E+00 0. -1.
         22    1    1    2    0    0  0.27392438126E+03  0.52258972886E+02 -0.64736999274E+03  0.70487834014E+03  0.00000000000E+00 0. -1.
<mgrwt>
<rscale>  0 0.60712440E+03</rscale>
<asrwt>0</asrwt>
<pdfrwt beam="1">  1        2 0.15858624E+00 0.60712440E+03</pdfrwt>
<pdfrwt beam="2">  1       -2 0.13753181E-01 0.60712440E+03</pdfrwt>
<totfact> 0.98447983E+02</totfact>
</mgrwt>
</event>
<event>
 6    1  0.9562506E-007  0.2771819E+04  0.7818608E-02  0.8312071E-01
         -2   -1    0    0    0  501 -0.00000000000E+00  0.00000000000E+00  0.45207539992E+03  0.45207539992E+03  0.00000000000E+00 0.  1.
          2   -1    0    0  501    0  0.00000000000E+00 -0.00000000000E+00 -0.42487266643E+04  0.42487266643E+04  0.00000000000E+00 0. -1.
         23    2    1    2    0    0  0.81663069711E+03  0.79840720862E+03 -0.32274044532E+04  0.34247214640E+04  0.90762521410E+02 0.  0.
         11    1    3    3    0    0  0.47977416660E+03  0.44473569236E+03 -0.17228326535E+04  0.18428579540E+04  0.00000000000E+00 0. -1.
        -11    1    3    3    0    0  0.33685653051E+03  0.35367151626E+03 -0.15045717998E+04  0.15818635100E+04  0.00000000000E+00 0.  1.
         22    1    1    2    0    0 -0.81663069711E+03 -0.79840720862E+03 -0.56924681120E+03  0.12760806002E+04  0.00000000000E+00 0.  1.
<mgrwt>
<rscale>  0 0.27718188E+04</rscale>
<asrwt>0</asrwt>
<pdfrwt beam="1">  1        2 0.65365025E+00 0.27718188E+04</pdfrwt>
<pdfrwt beam="2">  1       -2 0.69550062E-01 0.27718188E+04</pdfrwt>
<totfact> 0.34703531E-01</totfact>
</mgrwt>
</event>
<event>
 6    1  0.9562506E-007  0.2119713E+04  0.7818608E-02  0.8552609E-01
          1   -1    0    0  501    0  0.00000000000E+00  0.00000000000E+00  0.21458133827E+04  0.21458133827E+04  0.00000000000E+00 0. -1.
         -1   -1    0    0    0  501 -0.00000000000E+00 -0.00000000000E+00 -0.52348253590E+03  0.52348253590E+03  0.00000000000E+00 0.  1.
         23    2    1    2    0    0  0.93377098323E+03 -0.49702075304E+03  0.81051281290E+03  0.13358768553E+04  0.93156184280E+02 0.  0.
         11    1    3    3    0    0  0.86824238958E+03 -0.47433037643E+03  0.78116533742E+03  0.12605766289E+04  0.00000000000E+00 0. -1.
        -11    1    3    3    0    0  0.65528593656E+02 -0.22690376609E+02  0.29347475480E+02  0.75300226389E+02  0.00000000000E+00 0.  1.
         22    1    1    2    0    0 -0.93377098323E+03  0.49702075304E+03  0.81181803390E+03  0.13334190633E+04  0.00000000000E+00 0.  1.
<mgrwt>
<rscale>  0 0.21197130E+04</rscale>
<asrwt>0</asrwt>
<pdfrwt beam="1">  1        1 0.33012513E+00 0.21197130E+04</pdfrwt>
<pdfrwt beam="2">  1       -1 0.80535776E-01 0.21197130E+04</pdfrwt>
<totfact> 0.33485541E+00</totfact>
</mgrwt>
</event>
<event>
 6    1  0.9562506E-007  0.1262103E+04  0.7818608E-02  0.9060169E-01
         -3   -1    0    0    0  501 -0.00000000000E+00  0.00000000000E+00  0.18432394420E+04  0.18432394420E+04  0.00000000000E+00 0.  1.
          3   -1    0    0  501    0  0.00000000000E+00 -0.00000000000E+00 -0.21604693461E+03  0.21604693461E+03  0.00000000000E+00 0. -1.
         23    2    1    2    0    0  0.15264854982E+03 -0.58835957545E+03  0.10689566676E+04  0.12340010789E+04  0.10306180567E+03 0.  0.
         13    1    3    3    0    0  0.16243039217E+02 -0.20927046910E+03  0.30381244738E+03  0.36926950692E+03  0.00000000000E+00 0. -1.
        -13    1    3    3    0    0  0.13640551060E+03 -0.37908910635E+03  0.76514422019E+03  0.86473157197E+03  0.00000000000E+00 0.  1.
         22    1    1    2    0    0 -0.15264854982E+03  0.58835957545E+03  0.55823583987E+03  0.82528529776E+03  0.00000000000E+00 0.  1.
<mgrwt>
<rscale>  0 0.12621034E+04</rscale>
<asrwt>0</asrwt>
<pdfrwt beam="1">  1        3 0.33237991E-01 0.12621034E+04</pdfrwt>
<pdfrwt beam="2">  1       -3 0.28357529E+00 0.12621034E+04</pdfrwt>
<totfact> 0.10870400E+00</totfact>
</mgrwt>
</event>
<event>
 6    1  0.9562506E-007  0.4351161E+04  0.7818608E-02  0.7937225E-01
          1   -1    0    0  501    0  0.00000000000E+00  0.00000000000E+00  0.28703507227E+04  0.28703507227E+04  0.00000000000E+00 0. -1.
         -1   -1    0    0    0  501 -0.00000000000E+00 -0.00000000000E+00 -0.16489802294E+04  0.16489802294E+04  0.00000000000E+00 0.  1.
         23    2    1    2    0    0 -0.71242998683E+03  0.20525731533E+04  0.52351098240E+03  0.22373097137E+04  0.10429750867E+03 0.  0.
         13    1    3    3    0    0 -0.23943110992E+03  0.84514716191E+03  0.21652062503E+03  0.90470004021E+03  0.00000000000E+00 0. -1.
        -13    1    3    3    0    0 -0.47299887691E+03  0.12074259914E+04  0.30699035737E+03  0.13326096735E+04  0.00000000000E+00 0.  1.
         22    1    1    2    0    0  0.71242998683E+03 -0.20525731533E+04  0.69785951094E+03  0.22820212385E+04  0.00000000000E+00 0. -1.
<mgrwt>
<rscale>  0 0.43511615E+04</rscale>
<asrwt>0</asrwt>
<pdfrwt beam="1">  1        1 0.44159242E+00 0.43511615E+04</pdfrwt>
<pdfrwt beam="2">  1       -1 0.25368927E+00 0.43511615E+04</pdfrwt>
<totfact> 0.37220955E-02</totfact>
</mgrwt>
</event>
<event>
 6    1  0.9562506E-007  0.2395351E+04  0.7818608E-02  0.8441246E-01
         -1   -1    0    0    0  501 -0.00000000000E+00  0.00000000000E+00  0.33663877407E+03  0.33663877407E+03  0.00000000000E+00 0.  1.
          1   -1    0    0  501    0  0.00000000000E+00 -0.00000000000E+00 -0.42610262800E+04  0.42610262800E+04  0.00000000000E+00 0. -1.
         23    2    1    2    0    0  0.85092047681E+03  0.62465760362E+01 -0.35779523466E+04  0.36789039332E+04  0.92122080602E+02 0.  0.
         11    1    3    3    0    0  0.55584569523E+03  0.39285015633E+01 -0.21422994048E+04  0.22132389410E+04  0.00000000000E+00 0. -1.
        -11    1    3    3    0    0  0.29507478158E+03  0.23180744729E+01 -0.14356529418E+04  0.14656649922E+04  0.00000000000E+00 0.  1.
         22    1    1    2    0    0 -0.85092047681E+03 -0.62465760362E+01 -0.34643515933E+03  0.91876112085E+03  0.00000000000E+00 0.  1.
<mgrwt>
<rscale>  0 0.23953510E+04</rscale>
<asrwt>0</asrwt>
<pdfrwt beam="1">  1        1 0.65554253E+00 0.23953510E+04</pdfrwt>
<pdfrwt beam="2">  1       -1 0.51790579E-01 0.23953510E+04</pdfrwt>
<totfact> 0.18739169E-01</totfact>
</mgrwt>
</event>
<event>
 6    1  0.9562506E-007  0.2385610E+04  0.7818608E-02  0.8444911E-01
         -1   -1    0    0    0  501 -0.00000000000E+00  0.00000000000E+00  0.98990205474E+03  0.98990205474E+03  0.00000000000E+00 0.  1.
          1   -1    0    0  501    0  0.00000000000E+00 -0.00000000000E+00 -0.14372972517E+04  0.14372972517E+04  0.00000000000E+00 0. -1.
         23    2    1    2    0    0  0.84216499738E+03 -0.61409422449E+03  0.36226566150E+03  0.11073870830E+04  0.93360284536E+02 0.  0.
         11    1    3    3    0    0  0.27230365856E+03 -0.21630039947E+03  0.77188392212E+02  0.35622070851E+03  0.00000000000E+00 0.  1.
        -11    1    3    3    0    0  0.56986133882E+03 -0.39779382502E+03  0.28507726929E+03  0.75116637450E+03  0.00000000000E+00 0. -1.
         22    1    1    2    0    0 -0.84216499738E+03  0.61409422449E+03 -0.80966085842E+03  0.13198122234E+04  0.00000000000E+00 0. -1.
<mgrwt>
<rscale>  0 0.23856098E+04</rscale>
<asrwt>0</asrwt>
<pdfrwt beam="1">  1        1 0.22112265E+00 0.23856098E+04</pdfrwt>
<pdfrwt beam="2">  1       -1 0.15229262E+00 0.23856098E+04</pdfrwt>
<totfact> 0.21734549E+00</totfact>
</mgrwt>
</event>
<event>
 6    1  0.9562506E-007  0.3589573E+04  0.7818608E-02  0.8092884E-01
         -1   -1    0    0    0  501 -0.00000000000E+00  0.00000000000E+00  0.70407102269E+03  0.70407102269E+03  0.00000000000E+00 0.  1.
          1   -1    0    0  501    0  0.00000000000E+00 -0.00000000000E+00 -0.45751901208E+04  0.45751901208E+04  0.00000000000E+00 0. -1.
         23    2    1    2    0    0  0.91269712970E+03 -0.76149942997E+03  0.38708213065E+02  0.11927409813E+04  0.90748500845E+02 0.  0.
         11    1    3    3    0    0  0.32070899579E+03 -0.32323468817E+03  0.25632156302E+02  0.45606132379E+03  0.00000000000E+00 0. -1.
        -11    1    3    3    0    0  0.59198813391E+03 -0.43826474180E+03  0.13076056763E+02  0.73667965756E+03  0.00000000000E+00 0.  1.
         22    1    1    2    0    0 -0.91269712970E+03  0.76149942997E+03 -0.39098273111E+04  0.40865201621E+04  0.00000000000E+00 0. -1.
<mgrwt>
<rscale>  0 0.35895731E+04</rscale>
<asrwt>0</asrwt>
<pdfrwt beam="1">  1        1 0.70387538E+00 0.35895731E+04</pdfrwt>
<pdfrwt beam="2">  1       -1 0.10831862E+00 0.35895731E+04</pdfrwt>
<totfact> 0.17157686E-02</totfact>
</mgrwt>
</event>
<event>
 6    1  0.9562506E-007  0.2197478E+04  0.7818608E-02  0.8519479E-01
          1   -1    0    0  501    0  0.00000000000E+00  0.00000000000E+00  0.15385695494E+04  0.15385695494E+04  0.00000000000E+00 0. -1.
         -1   -1    0    0    0  501 -0.00000000000E+00 -0.00000000000E+00 -0.78464278358E+03  0.78464278358E+03  0.00000000000E+00 0.  1.
         23    2    1    2    0    0  0.12222275796E+03 -0.73728560473E+03  0.12264251903E+04  0.14390272693E+04  0.90289916398E+02 0.  0.
         13    1    3    3    0    0  0.14324557837E+02 -0.26686298770E+03  0.37800683432E+03  0.46293651180E+03  0.00000000000E+00 0. -1.
        -13    1    3    3    0    0  0.10789820013E+03 -0.47042261703E+03  0.84841835599E+03  0.97609075755E+03  0.00000000000E+00 0.  1.
         22    1    1    2    0    0 -0.12222275796E+03  0.73728560473E+03 -0.47249842452E+03  0.88418506359E+03  0.00000000000E+00 0.  1.
<mgrwt>
<rscale>  0 0.21974781E+04</rscale>
<asrwt>0</asrwt>
<pdfrwt beam="1">  1        1 0.23670301E+00 0.21974781E+04</pdfrwt>
<pdfrwt beam="2">  1       -1 0.12071427E+00 0.21974781E+04</pdfrwt>
<totfact> 0.34225185E+00</totfact>
</mgrwt>
</event>
<event>
 6    1  0.9562506E-007  0.3848207E+04  0.7818608E-02  0.8035888E-01
          2   -1    0    0  501    0  0.00000000000E+00  0.00000000000E+00  0.22364819115E+04  0.22364819115E+04  0.00000000000E+00 0. -1.
         -2   -1    0    0    0  501 -0.00000000000E+00 -0.00000000000E+00 -0.16553565582E+04  0.16553565582E+04  0.00000000000E+00 0.  1.
         23    2    1    2    0    0 -0.76321857761E+02 -0.42107046370E+03  0.21868343496E+04  0.22300843536E+04  0.88917885952E+02 0.  0.
         13    1    3    3    0    0 -0.24274072289E+02 -0.33903142266E+03  0.17086050462E+04  0.17420857442E+04  0.00000000000E+00 0. -1.
        -13    1    3    3    0    0 -0.52047785473E+02 -0.82039041041E+02  0.47822930331E+03  0.48799860940E+03  0.00000000000E+00 0.  1.
         22    1    1    2    0    0  0.76321857761E+02  0.42107046370E+03 -0.16057089963E+04  0.16617541160E+04  0.00000000000E+00 0.  1.
<mgrwt>
<rscale>  0 0.38482074E+04</rscale>
<asrwt>0</asrwt>
<pdfrwt beam="1">  1        2 0.34407414E+00 0.38482074E+04</pdfrwt>
<pdfrwt beam="2">  1       -2 0.25467024E+00 0.38482074E+04</pdfrwt>
<totfact> 0.23661311E-01</totfact>
</mgrwt>
</event>
<event>
 6    1  0.9562506E-007  0.4009163E+04  0.7818608E-02  0.8002701E-01
         -1   -1    0    0    0  501 -0.00000000000E+00  0.00000000000E+00  0.23177944819E+04  0.23177944819E+04  0.00000000000E+00 0.  1.
          1   -1    0    0  501    0  0.00000000000E+00 -0.00000000000E+00 -0.17336946307E+04  0.17336946307E+04  0.00000000000E+00 0. -1.
         23    2    1    2    0    0  0.11687230659E+04 -0.38949341655E+03 -0.13045177413E+04  0.17966066020E+04  0.91706153965E+02 0.  0.
         13    1    3    3    0    0  0.42431693807E+03 -0.12922707217E+03 -0.40876065228E+03  0.60318303273E+03  0.00000000000E+00 0. -1.
        -13    1    3    3    0    0  0.74440612781E+03 -0.26026634439E+03 -0.89575708899E+03  0.11934235692E+04  0.00000000000E+00 0.  1.
         22    1    1    2    0    0 -0.11687230659E+04  0.38949341655E+03  0.18886175924E+04  0.22548825106E+04  0.00000000000E+00 0.  1.
<mgrwt>
<rscale>  0 0.40091634E+04</rscale>
<asrwt>0</asrwt>
<pdfrwt beam="1">  1        1 0.26672225E+00 0.40091634E+04</pdfrwt>
<pdfrwt beam="2">  1       -1 0.35658376E+00 0.40091634E+04</pdfrwt>
<totfact> 0.49644308E-02</totfact>
</mgrwt>
</event>
<event>
 6    1  0.9562506E-007  0.2668677E+04  0.7818608E-02  0.8345240E-01
         -1   -1    0    0    0  501 -0.00000000000E+00  0.00000000000E+00  0.75760530165E+03  0.75760530165E+03  0.00000000000E+00 0.  1.
          1   -1    0    0  501    0  0.00000000000E+00 -0.00000000000E+00 -0.23501148152E+04  0.23501148152E+04  0.00000000000E+00 0. -1.
         23    2    1    2    0    0 -0.17728428303E+03 -0.11566526543E+04 -0.15401241789E+04  0.19363878399E+04  0.91325245320E+02 0.  0.
         13    1    3    3    0    0 -0.82796047772E+02 -0.45821715822E+03 -0.68444039541E+03  0.82781447467E+03  0.00000000000E+00 0. -1.
        -13    1    3    3    0    0 -0.94488235256E+02 -0.69843549612E+03 -0.85568378345E+03  0.11085733652E+04  0.00000000000E+00 0.  1.
         22    1    1    2    0    0  0.17728428303E+03  0.11566526543E+04 -0.52385334728E+02  0.11713322770E+04  0.00000000000E+00 0.  1.
<mgrwt>
<rscale>  0 0.26686772E+04</rscale>
<asrwt>0</asrwt>
<pdfrwt beam="1">  1        1 0.36155612E+00 0.26686772E+04</pdfrwt>
<pdfrwt beam="2">  1       -1 0.11655466E+00 0.26686772E+04</pdfrwt>
<totfact> 0.10000573E+00</totfact>
</mgrwt>
</event>
<event>
 6    1  0.9562506E-007  0.1791948E+04  0.7818608E-02  0.8710593E-01
          1   -1    0    0  501    0  0.00000000000E+00  0.00000000000E+00  0.10750544134E+04  0.10750544134E+04  0.00000000000E+00 0. -1.
         -1   -1    0    0    0  501 -0.00000000000E+00 -0.00000000000E+00 -0.74672467016E+03  0.74672467016E+03  0.00000000000E+00 0.  1.
         23    2    1    2    0    0  0.48192348498E+03 -0.56106437660E+03 -0.34532844310E+03  0.82134975967E+03  0.91215207242E+02 0.  0.
         11    1    3    3    0    0  0.47141409990E+03 -0.54771437210E+03 -0.31879646218E+03  0.78984395376E+03  0.00000000000E+00 0.  1.
        -11    1    3    3    0    0  0.10509385079E+02 -0.13350004501E+02 -0.26531980911E+02  0.31505805909E+02  0.00000000000E+00 0. -1.
         22    1    1    2    0    0 -0.48192348498E+03  0.56106437660E+03  0.67365818632E+03  0.10004293239E+04  0.00000000000E+00 0. -1.
<mgrwt>
<rscale>  0 0.17919483E+04</rscale>
<asrwt>0</asrwt>
<pdfrwt beam="1">  1        1 0.16539299E+00 0.17919483E+04</pdfrwt>
<pdfrwt beam="2">  1       -1 0.11488072E+00 0.17919483E+04</pdfrwt>
<totfact> 0.86057573E+00</totfact>
</mgrwt>
</event>
<event>
 6    1  0.9562506E-007  0.1409225E+04  0.7818608E-02  0.8947168E-01
         -2   -1    0    0    0  501 -0.00000000000E+00  0.00000000000E+00  0.24063932761E+03  0.24063932761E+03  0.00000000000E+00 0.  1.
          2   -1    0    0  501    0  0.00000000000E+00 -0.00000000000E+00 -0.20631666362E+04  0.20631666362E+04  0.00000000000E+00 0. -1.
         23    2    1    2    0    0 -0.27805766359E+02  0.24529527730E+03 -0.19888034069E+04  0.20061641075E+04  0.91719689860E+02 0.  0.
         11    1    3    3    0    0 -0.55483425046E+02  0.90915144349E+02 -0.79857070813E+03  0.80564207302E+03  0.00000000000E+00 0.  1.
        -11    1    3    3    0    0  0.27677658687E+02  0.15438013295E+03 -0.11902326987E+04  0.12005220345E+04  0.00000000000E+00 0. -1.
         22    1    1    2    0    0  0.27805766359E+02 -0.24529527730E+03  0.16627609832E+03  0.29764185623E+03  0.00000000000E+00 0.  1.
<mgrwt>
<rscale>  0 0.14092254E+04</rscale>
<asrwt>0</asrwt>
<pdfrwt beam="1">  1        2 0.31741023E+00 0.14092254E+04</pdfrwt>
<pdfrwt beam="2">  1       -2 0.37021437E-01 0.14092254E+04</pdfrwt>
<totfact> 0.41239270E+01</totfact>
</mgrwt>
</event>
<event>
 6    1  0.9562506E-007  0.1352512E+04  0.7818608E-02  0.8988929E-01
         -1   -1    0    0    0  501 -0.00000000000E+00  0.00000000000E+00  0.14512968872E+03  0.14512968872E+03  0.00000000000E+00 0.  1.
          1   -1    0    0  501    0  0.00000000000E+00 -0.00000000000E+00 -0.31511270292E+04  0.31511270292E+04  0.00000000000E+00 0. -1.
         23    2    1    2    0    0  0.60314950719E+03  0.29874013652E+03 -0.14914627333E+04  0.16388943334E+04  0.92079064517E+02 0.  0.
         11    1    3    3    0    0  0.15266842869E+03  0.91308415238E+02 -0.30736910235E+03  0.35513467994E+03  0.00000000000E+00 0.  1.
        -11    1    3    3    0    0  0.45048107850E+03  0.20743172128E+03 -0.11840936309E+04  0.12837596534E+04  0.00000000000E+00 0. -1.
         22    1    1    2    0    0 -0.60314950719E+03 -0.29874013652E+03 -0.15145346072E+04  0.16573623845E+04  0.00000000000E+00 0.  1.
<mgrwt>
<rscale>  0 0.13525119E+04</rscale>
<asrwt>0</asrwt>
<pdfrwt beam="1">  1        1 0.48478880E+00 0.13525119E+04</pdfrwt>
<pdfrwt beam="2">  1       -1 0.22327643E-01 0.13525119E+04</pdfrwt>
<totfact> 0.77714154E+00</totfact>
</mgrwt>
</event>
<event>
 6    1  0.9562506E-007  0.2862334E+04  0.7818608E-02  0.8284173E-01
          2   -1    0    0  501    0  0.00000000000E+00  0.00000000000E+00  0.94593802699E+03  0.94593802699E+03  0.00000000000E+00 0. -1.
         -2   -1    0    0    0  501 -0.00000000000E+00 -0.00000000000E+00 -0.21652993011E+04  0.21652993011E+04  0.00000000000E+00 0.  1.
         23    2    1    2    0    0 -0.10178633850E+04  0.91649975098E+03 -0.10576715458E+04  0.17320487144E+04  0.72842198895E+02 0.  0.
         13    1    3    3    0    0 -0.42405023182E+03  0.37877101085E+03 -0.39407598216E+03  0.69179618204E+03  0.00000000000E+00 0.  1.
        -13    1    3    3    0    0 -0.59381315319E+03  0.53772874013E+03 -0.66359556368E+03  0.10402525323E+04  0.00000000000E+00 0. -1.
         22    1    1    2    0    0  0.10178633850E+04 -0.91649975098E+03 -0.16168972831E+03  0.13791886138E+04  0.00000000000E+00 0. -1.
<mgrwt>
<rscale>  0 0.28623340E+04</rscale>
<asrwt>0</asrwt>
<pdfrwt beam="1">  1        2 0.14552893E+00 0.28623340E+04</pdfrwt>
<pdfrwt beam="2">  1       -2 0.33312297E+00 0.28623340E+04</pdfrwt>
<totfact> 0.46942017E-01</totfact>
</mgrwt>
</event>
<event>
 6    1  0.9562506E-007  0.1423849E+04  0.7818608E-02  0.8936734E-01
         -2   -1    0    0    0  501 -0.00000000000E+00  0.00000000000E+00  0.19664697334E+03  0.19664697334E+03  0.00000000000E+00 0.  1.
          2   -1    0    0  501    0  0.00000000000E+00 -0.00000000000E+00 -0.25773916673E+04  0.25773916673E+04  0.00000000000E+00 0. -1.
         23    2    1    2    0    0 -0.56483820844E+03 -0.42750244480E+03 -0.12535967808E+04  0.14427749702E+04  0.91072410199E+02 0.  0.
         13    1    3    3    0    0 -0.42056353780E+03 -0.29546972637E+03 -0.97804498375E+03  0.11048746711E+04  0.00000000000E+00 0. -1.
        -13    1    3    3    0    0 -0.14427467064E+03 -0.13203271843E+03 -0.27555179705E+03  0.33790029917E+03  0.00000000000E+00 0.  1.
         22    1    1    2    0    0  0.56483820844E+03  0.42750244480E+03 -0.11271479132E+04  0.13312636704E+04  0.00000000000E+00 0. -1.
<mgrwt>
<rscale>  0 0.14238487E+04</rscale>
<asrwt>0</asrwt>
<pdfrwt beam="1">  1        2 0.39652180E+00 0.14238487E+04</pdfrwt>
<pdfrwt beam="2">  1       -2 0.30253380E-01 0.14238487E+04</pdfrwt>
<totfact> 0.30900881E+01</totfact>
</mgrwt>
</event>
<event>
 6    1  0.9562506E-007  0.1715075E+04  0.7818608E-02  0.8752813E-01
         -1   -1    0    0    0  501 -0.00000000000E+00  0.00000000000E+00  0.12006901244E+04  0.12006901244E+04  0.00000000000E+00 0.  1.
          1   -1    0    0  501    0  0.00000000000E+00 -0.00000000000E+00 -0.61245645393E+03  0.61245645393E+03  0.00000000000E+00 0. -1.
         23    2    1    2    0    0  0.54002571588E+03 -0.42931170915E+03  0.82893853167E+03  0.10824789743E+04  0.93195080549E+02 0.  0.
         11    1    3    3    0    0  0.12691419404E+03 -0.15455846474E+03  0.24216809262E+03  0.31407151535E+03  0.00000000000E+00 0. -1.
        -11    1    3    3    0    0  0.41311152184E+03 -0.27475324441E+03  0.58677043905E+03  0.76840745892E+03  0.00000000000E+00 0.  1.
         22    1    1    2    0    0 -0.54002571588E+03  0.42931170915E+03 -0.24070486119E+03  0.73066760406E+03  0.00000000000E+00 0. -1.
<mgrwt>
<rscale>  0 0.17150748E+04</rscale>
<asrwt>0</asrwt>
<pdfrwt beam="1">  1        1 0.94224070E-01 0.17150748E+04</pdfrwt>
<pdfrwt beam="2">  1       -1 0.18472156E+00 0.17150748E+04</pdfrwt>
<totfact> 0.60822334E+00</totfact>
</mgrwt>
</event>
<event>
 6    1  0.9562506E-007  0.2816187E+04  0.7818608E-02  0.8298261E-01
          1   -1    0    0  501    0  0.00000000000E+00  0.00000000000E+00  0.26705060827E+04  0.26705060827E+04  0.00000000000E+00 0. -1.
         -1   -1    0    0    0  501 -0.00000000000E+00 -0.00000000000E+00 -0.74245362196E+03  0.74245362196E+03  0.00000000000E+00 0.  1.
         23    2    1    2    0    0 -0.20495428487E+03  0.12557561880E+04  0.23838244212E+03  0.12977966768E+04  0.92304728258E+02 0.  0.
         11    1    3    3    0    0 -0.16955795080E+03  0.80433565790E+03  0.17693944979E+03  0.84084083996E+03  0.00000000000E+00 0.  1.
        -11    1    3    3    0    0 -0.35396334067E+02  0.45142053015E+03  0.61442992324E+02  0.45695583683E+03  0.00000000000E+00 0. -1.
         22    1    1    2    0    0  0.20495428487E+03 -0.12557561880E+04  0.16896700187E+04  0.21151630279E+04  0.00000000000E+00 0. -1.
<mgrwt>
<rscale>  0 0.28161867E+04</rscale>
<asrwt>0</asrwt>
<pdfrwt beam="1">  1        1 0.41084709E+00 0.28161867E+04</pdfrwt>
<pdfrwt beam="2">  1       -1 0.11422364E+00 0.28161867E+04</pdfrwt>
<totfact> 0.62063073E-01</totfact>
</mgrwt>
</event>
<event>
 6    1  0.9562506E-007  0.1980197E+04  0.7818608E-02  0.8615936E-01
         -1   -1    0    0    0  501 -0.00000000000E+00  0.00000000000E+00  0.94415309803E+03  0.94415309803E+03  0.00000000000E+00 0.  1.
          1   -1    0    0  501    0  0.00000000000E+00 -0.00000000000E+00 -0.10382798446E+04  0.10382798446E+04  0.00000000000E+00 0. -1.
         23    2    1    2    0    0 -0.17378785433E+03  0.13909177670E+03  0.91637708227E+03  0.94770267403E+03  0.94046056721E+02 0.  0.
         13    1    3    3    0    0 -0.14223401567E+03  0.71374351267E+02  0.72501272333E+03  0.74227236391E+03  0.00000000000E+00 0.  1.
        -13    1    3    3    0    0 -0.31553838657E+02  0.67717425434E+02  0.19136435894E+03  0.20543031012E+03  0.00000000000E+00 0. -1.
         22    1    1    2    0    0  0.17378785433E+03 -0.13909177670E+03 -0.10105038289E+04  0.10347302687E+04  0.00000000000E+00 0. -1.
<mgrwt>
<rscale>  0 0.19801971E+04</rscale>
<asrwt>0</asrwt>
<pdfrwt beam="1">  1        1 0.15973536E+00 0.19801971E+04</pdfrwt>
<pdfrwt beam="2">  1       -1 0.14525432E+00 0.19801971E+04</pdfrwt>
<totfact> 0.49936846E+00</totfact>
</mgrwt>
</event>
<event>
 6    1  0.9562506E-007  0.4406583E+03  0.7818608E-02  0.1030545E+00
         -1   -1    0    0    0  501 -0.00000000000E+00  0.00000000000E+00  0.18679565462E+03  0.18679565462E+03  0.00000000000E+00 0.  1.
          1   -1    0    0  501    0  0.00000000000E+00 -0.00000000000E+00 -0.25988254071E+03  0.25988254071E+03  0.00000000000E+00 0. -1.
         23    2    1    2    0    0  0.42169447055E+02 -0.19548869064E+03  0.30268313404E+02  0.22156402942E+03  0.90445331025E+02 0.  0.
         13    1    3    3    0    0  0.33066843292E+02 -0.12873862094E+02 -0.34051876457E+01  0.35647549052E+02  0.00000000000E+00 0. -1.
        -13    1    3    3    0    0  0.91026037624E+01 -0.18261482854E+03  0.33673501050E+02  0.18591648037E+03  0.00000000000E+00 0.  1.
         22    1    1    2    0    0 -0.42169447055E+02  0.19548869064E+03 -0.10335519949E+03  0.22511416591E+03  0.00000000000E+00 0. -1.
<mgrwt>
<rscale>  0 0.44065828E+03</rscale>
<asrwt>0</asrwt>
<pdfrwt beam="1">  1        1 0.39981929E-01 0.44065828E+03</pdfrwt>
<pdfrwt beam="2">  1       -1 0.28737793E-01 0.44065828E+03</pdfrwt>
<totfact> 0.11616137E+03</totfact>
</mgrwt>
</event>
<event>
 6    1  0.9562506E-007  0.1496377E+04  0.7818608E-02  0.8886866E-01
          1   -1    0    0  501    0  0.00000000000E+00  0.00000000000E+00  0.65040601180E+03  0.65040601180E+03  0.00000000000E+00 0. -1.
         -1   -1    0    0    0  501 -0.00000000000E+00 -0.00000000000E+00 -0.86067142824E+03  0.86067142824E+03  0.00000000000E+00 0.  1.
         23    2    1    2    0    0 -0.20490388023E+03  0.75573677217E+02 -0.82516494168E+03  0.85854513665E+03  0.92225754931E+02 0.  0.
         11    1    3    3    0    0 -0.33018572065E+02  0.50892561960E+02 -0.27563109588E+03  0.28222824093E+03  0.00000000000E+00 0. -1.
        -11    1    3    3    0    0 -0.17188530817E+03  0.24681115257E+02 -0.54953384580E+03  0.57631689572E+03  0.00000000000E+00 0.  1.
         22    1    1    2    0    0  0.20490388023E+03 -0.75573677217E+02  0.61489952524E+03  0.65253230338E+03  0.00000000000E+00 0. -1.
<mgrwt>
<rscale>  0 0.14963768E+04</rscale>
<asrwt>0</asrwt>
<pdfrwt beam="1">  1        1 0.10006246E+00 0.14963768E+04</pdfrwt>
<pdfrwt beam="2">  1       -1 0.13241099E+00 0.14963768E+04</pdfrwt>
<totfact> 0.14254786E+01</totfact>
</mgrwt>
</event>
<event>
 6    1  0.9562506E-007  0.1555570E+04  0.7818608E-02  0.8848318E-01
          1   -1    0    0  501    0  0.00000000000E+00  0.00000000000E+00  0.89885263705E+03  0.89885263705E+03  0.00000000000E+00 0. -1.
         -1   -1    0    0    0  501 -0.00000000000E+00 -0.00000000000E+00 -0.67302441220E+03  0.67302441220E+03  0.00000000000E+00 0.  1.
         23    2    1    2    0    0 -0.49248797465E+03  0.59208634129E+03  0.23889169621E+02  0.77570494302E+03  0.89648343441E+02 0.  0.
         13    1    3    3    0    0 -0.44399716490E+03  0.56807303389E+03  0.17434812849E+02  0.72121039023E+03  0.00000000000E+00 0. -1.
        -13    1    3    3    0    0 -0.48490809750E+02  0.24013307395E+02  0.64543567721E+01  0.54494552788E+02  0.00000000000E+00 0.  1.
         22    1    1    2    0    0  0.49248797465E+03 -0.59208634129E+03  0.20193905523E+03  0.79617210624E+03  0.00000000000E+00 0. -1.
<mgrwt>
<rscale>  0 0.15555703E+04</rscale>
<asrwt>0</asrwt>
<pdfrwt beam="1">  1        1 0.13828502E+00 0.15555703E+04</pdfrwt>
<pdfrwt beam="2">  1       -1 0.10354222E+00 0.15555703E+04</pdfrwt>
<totfact> 0.15450458E+01</totfact>
</mgrwt>
</event>
<event>
 6    1  0.9562506E-007  0.2103667E+04  0.7818608E-02  0.8559630E-01
         -2   -1    0    0    0  501 -0.00000000000E+00  0.00000000000E+00  0.25911112189E+03  0.25911112189E+03  0.00000000000E+00 0.  1.
          2   -1    0    0  501    0  0.00000000000E+00 -0.00000000000E+00 -0.42698033158E+04  0.42698033158E+04  0.00000000000E+00 0. -1.
         23    2    1    2    0    0 -0.75124474664E+03  0.68253481539E+03 -0.25871908967E+04  0.27806071458E+04  0.89425499407E+02 0.  0.
         11    1    3    3    0    0 -0.18183421784E+03  0.19140993111E+03 -0.58283634544E+03  0.63984345748E+03  0.00000000000E+00 0. -1.
        -11    1    3    3    0    0 -0.56941052880E+03  0.49112488428E+03 -0.20043545513E+04  0.21407636884E+04  0.00000000000E+00 0.  1.
         22    1    1    2    0    0  0.75124474664E+03 -0.68253481539E+03 -0.14235012972E+04  0.17483072918E+04  0.00000000000E+00 0.  1.
<mgrwt>
<rscale>  0 0.21036668E+04</rscale>
<asrwt>0</asrwt>
<pdfrwt beam="1">  1        2 0.65689281E+00 0.21036668E+04</pdfrwt>
<pdfrwt beam="2">  1       -2 0.39863250E-01 0.21036668E+04</pdfrwt>
<totfact> 0.11200715E+00</totfact>
</mgrwt>
</event>
<event>
 6    1  0.9562506E-007  0.2306553E+04  0.7818608E-02  0.8475342E-01
         -1   -1    0    0    0  501 -0.00000000000E+00  0.00000000000E+00  0.10968008288E+04  0.10968008288E+04  0.00000000000E+00 0.  1.
          1   -1    0    0  501    0  0.00000000000E+00 -0.00000000000E+00 -0.12126606286E+04  0.12126606286E+04  0.00000000000E+00 0. -1.
         23    2    1    2    0    0 -0.99257189406E+03  0.22308639087E+03  0.48161629284E+03  0.11296546157E+04  0.95910346434E+02 0.  0.
         11    1    3    3    0    0 -0.67966683197E+03  0.10839726502E+03  0.33782109434E+03  0.76669424240E+03  0.00000000000E+00 0.  1.
        -11    1    3    3    0    0 -0.31290506208E+03  0.11468912585E+03  0.14379519850E+03  0.36296037329E+03  0.00000000000E+00 0. -1.
         22    1    1    2    0    0  0.99257189406E+03 -0.22308639087E+03 -0.59747609261E+03  0.11798068418E+04  0.00000000000E+00 0. -1.
<mgrwt>
<rscale>  0 0.23065534E+04</rscale>
<asrwt>0</asrwt>
<pdfrwt beam="1">  1        1 0.18656317E+00 0.23065534E+04</pdfrwt>
<pdfrwt beam="2">  1       -1 0.16873859E+00 0.23065534E+04</pdfrwt>
<totfact> 0.23756883E+00</totfact>
</mgrwt>
</event>
<event>
 6    1  0.9562506E-007  0.1141765E+04  0.7818608E-02  0.9165415E-01
          1   -1    0    0  501    0  0.00000000000E+00  0.00000000000E+00  0.22446323960E+03  0.22446323960E+03  0.00000000000E+00 0. -1.
         -1   -1    0    0    0  501 -0.00000000000E+00 -0.00000000000E+00 -0.14519376478E+04  0.14519376478E+04  0.00000000000E+00 0.  1.
         23    2    1    2    0    0  0.33784875220E+03  0.16320614295E+03  0.66891294554E+01  0.38646381059E+03  0.92366162557E+02 0.  0.
         13    1    3    3    0    0  0.17445192660E+03  0.33163249689E+02  0.33849754894E+01  0.17760837222E+03  0.00000000000E+00 0. -1.
        -13    1    3    3    0    0  0.16339682560E+03  0.13004289326E+03  0.33041539660E+01  0.20885543837E+03  0.00000000000E+00 0.  1.
         22    1    1    2    0    0 -0.33784875220E+03 -0.16320614295E+03 -0.12341635376E+04  0.12899370768E+04  0.00000000000E+00 0.  1.
<mgrwt>
<rscale>  0 0.11417646E+04</rscale>
<asrwt>0</asrwt>
<pdfrwt beam="1">  1        1 0.34532808E-01 0.11417646E+04</pdfrwt>
<pdfrwt beam="2">  1       -1 0.22337501E+00 0.11417646E+04</pdfrwt>
<totfact> 0.13307259E+01</totfact>
</mgrwt>
</event>
<event>
 6    1  0.1218576E-006  0.6452568E+04  0.7818608E-02  0.7636688E-01
         -2   -1    0    0    0  501 -0.00000000000E+00  0.00000000000E+00  0.42248092693E+04  0.42248092693E+04  0.00000000000E+00 0.  1.
          2   -1    0    0  501    0  0.00000000000E+00 -0.00000000000E+00 -0.24637581496E+04  0.24637581496E+04  0.00000000000E+00 0. -1.
         23    2    1    2    0    0 -0.31986479954E+04 -0.18478278257E+03  0.49355346964E+03  0.32429841637E+04  0.88643009716E+02 0.  0.
         11    1    3    3    0    0 -0.22359349742E+04 -0.15210516729E+03  0.37911209259E+03  0.22729424035E+04  0.00000000000E+00 0. -1.
        -11    1    3    3    0    0 -0.96271302125E+03 -0.32677615276E+02  0.11444137705E+03  0.97004176024E+03  0.00000000000E+00 0.  1.
         22    1    1    2    0    0  0.31986479954E+04  0.18478278257E+03  0.12674976500E+04  0.34455832552E+04  0.00000000000E+00 0. -1.
<mgrwt>
<rscale>  0 0.64525679E+04</rscale>
<asrwt>0</asrwt>
<pdfrwt beam="1">  1        2 0.37903972E+00 0.64525679E+04</pdfrwt>
<pdfrwt beam="2">  1       -2 0.64997066E+00 0.64525679E+04</pdfrwt>
<totfact> 0.81854732E-04</totfact>
</mgrwt>
</event>
<event>
 6    1  0.1188514E-006  0.1945009E+04  0.7818608E-02  0.8632771E-01
          1   -1    0    0  501    0  0.00000000000E+00  0.00000000000E+00  0.15426836580E+04  0.15426836580E+04  0.00000000000E+00 0. -1.
         -1   -1    0    0    0  501 -0.00000000000E+00 -0.00000000000E+00 -0.61306448279E+03  0.61306448279E+03  0.00000000000E+00 0.  1.
         23    2    1    2    0    0  0.93579921819E+03  0.67409823477E+02  0.74058408976E+03  0.11986700224E+04  0.89893089735E+02 0.  0.
         11    1    3    3    0    0  0.30863818075E+03  0.31869024462E+02  0.19353785455E+03  0.36569121192E+03  0.00000000000E+00 0.  1.
        -11    1    3    3    0    0  0.62716103744E+03  0.35540799015E+02  0.54704623521E+03  0.83297881050E+03  0.00000000000E+00 0. -1.
         22    1    1    2    0    0 -0.93579921819E+03 -0.67409823477E+02  0.18903508540E+03  0.95707811832E+03  0.00000000000E+00 0. -1.
<mgrwt>
<rscale>  0 0.19450085E+04</rscale>
<asrwt>0</asrwt>
<pdfrwt beam="1">  1        1 0.23733595E+00 0.19450085E+04</pdfrwt>
<pdfrwt beam="2">  1       -1 0.94317613E-01 0.19450085E+04</pdfrwt>
<totfact> 0.61982395E+00</totfact>
</mgrwt>
</event>
<event>
 6    1  0.9562506E-007  0.4948390E+03  0.7818608E-02  0.1015135E+00
          1   -1    0    0  501    0  0.00000000000E+00  0.00000000000E+00  0.46899399675E+03  0.46899399675E+03  0.00000000000E+00 0. -1.
         -1   -1    0    0    0  501 -0.00000000000E+00 -0.00000000000E+00 -0.13052706578E+03  0.13052706578E+03  0.00000000000E+00 0.  1.
         23    2    1    2    0    0 -0.19369027750E+02  0.10919401088E+03  0.43153252814E+03  0.45474642172E+03  0.90969742080E+02 0.  0.
         13    1    3    3    0    0 -0.16560401848E+02 -0.63455783847E+00  0.17361780322E+03  0.17440696995E+03  0.00000000000E+00 0.  1.
        -13    1    3    3    0    0 -0.28086259024E+01  0.10982856871E+03  0.25791472493E+03  0.28033945177E+03  0.00000000000E+00 0. -1.
         22    1    1    2    0    0  0.19369027750E+02 -0.10919401088E+03 -0.93065597166E+02  0.14477464081E+03  0.00000000000E+00 0.  1.
<mgrwt>
<rscale>  0 0.49483901E+03</rscale>
<asrwt>0</asrwt>
<pdfrwt beam="1">  1        1 0.72152922E-01 0.49483901E+03</pdfrwt>
<pdfrwt beam="2">  1       -1 0.20081087E-01 0.49483901E+03</pdfrwt>
<totfact> 0.98673496E+02</totfact>
</mgrwt>
</event>
<event>
 6    1  0.9562506E-007  0.1019610E+04  0.7818608E-02  0.9287295E-01
          2   -1    0    0  501    0  0.00000000000E+00  0.00000000000E+00  0.17907484086E+04  0.17907484086E+04  0.00000000000E+00 0. -1.
         -2   -1    0    0    0  501 -0.00000000000E+00 -0.00000000000E+00 -0.14513549574E+03  0.14513549574E+03  0.00000000000E+00 0.  1.
         23    2    1    2    0    0 -0.32032033282E+03  0.24185405459E+01  0.86411333185E+02  0.34411742302E+03  0.91317672822E+02 0.  0.
         11    1    3    3    0    0 -0.11582118489E+03  0.25815646255E+02  0.69670750081E+02  0.13760453436E+03  0.00000000000E+00 0. -1.
        -11    1    3    3    0    0 -0.20449914793E+03 -0.23397105709E+02  0.16740583104E+02  0.20651288866E+03  0.00000000000E+00 0.  1.
         22    1    1    2    0    0  0.32032033282E+03 -0.24185405459E+01  0.15592015797E+04  0.15917664813E+04  0.00000000000E+00 0. -1.
<mgrwt>
<rscale>  0 0.10196100E+04</rscale>
<asrwt>0</asrwt>
<pdfrwt beam="1">  1        2 0.27549974E+00 0.10196100E+04</pdfrwt>
<pdfrwt beam="2">  1       -2 0.22328539E-01 0.10196100E+04</pdfrwt>
<totfact> 0.15329157E+02</totfact>
</mgrwt>
</event>
<event>
 6    1  0.9562506E-007  0.2459449E+04  0.7818608E-02  0.8417576E-01
         -2   -1    0    0    0  501 -0.00000000000E+00  0.00000000000E+00  0.43984432133E+03  0.43984432133E+03  0.00000000000E+00 0.  1.
          2   -1    0    0  501    0  0.00000000000E+00 -0.00000000000E+00 -0.34380858033E+04  0.34380858033E+04  0.00000000000E+00 0. -1.
         23    2    1    2    0    0  0.49313839064E+03  0.11233735163E+04 -0.14197555927E+04  0.18787374796E+04  0.93781900365E+02 0.  0.
         11    1    3    3    0    0  0.19033438682E+03  0.32694817066E+03 -0.42770871739E+03  0.57101403839E+03  0.00000000000E+00 0. -1.
        -11    1    3    3    0    0  0.30280400381E+03  0.79642534562E+03 -0.99204687526E+03  0.13077234412E+04  0.00000000000E+00 0.  1.
         22    1    1    2    0    0 -0.49313839064E+03 -0.11233735163E+04 -0.15784858893E+04  0.19991926451E+04  0.00000000000E+00 0. -1.
<mgrwt>
<rscale>  0 0.24594491E+04</rscale>
<asrwt>0</asrwt>
<pdfrwt beam="1">  1        2 0.52893630E+00 0.24594491E+04</pdfrwt>
<pdfrwt beam="2">  1       -2 0.67668355E-01 0.24594491E+04</pdfrwt>
<totfact> 0.16098203E+00</totfact>
</mgrwt>
</event>
<event>
 6    1  0.9562506E-007  0.9576162E+03  0.7818608E-02  0.9356292E-01
         -1   -1    0    0    0  501 -0.00000000000E+00  0.00000000000E+00  0.14424880481E+03  0.14424880481E+03  0.00000000000E+00 0.  1.
          1   -1    0    0  501    0  0.00000000000E+00 -0.00000000000E+00 -0.15893177393E+04  0.15893177393E+04  0.00000000000E+00 0. -1.
         23    2    1    2    0    0  0.35294913311E+03 -0.31537015388E+03 -0.66836680557E+03  0.82400751821E+03  0.90789750317E+02 0.  0.
         11    1    3    3    0    0  0.19408525855E+03 -0.23208933295E+03 -0.42418262181E+03  0.52102345696E+03  0.00000000000E+00 0. -1.
        -11    1    3    3    0    0  0.15886387456E+03 -0.83280820923E+02 -0.24418418376E+03  0.30298406125E+03  0.00000000000E+00 0.  1.
         22    1    1    2    0    0 -0.35294913311E+03  0.31537015388E+03 -0.77670212895E+03  0.90955902592E+03  0.00000000000E+00 0.  1.
<mgrwt>
<rscale>  0 0.95761617E+03</rscale>
<asrwt>0</asrwt>
<pdfrwt beam="1">  1        1 0.24451041E+00 0.95761617E+03</pdfrwt>
<pdfrwt beam="2">  1       -1 0.22192124E-01 0.95761617E+03</pdfrwt>
<totfact> 0.97999650E+01</totfact>
</mgrwt>
</event>
<event>
 6    1  0.9562506E-007  0.2313643E+04  0.7818608E-02  0.8472561E-01
         -1   -1    0    0    0  501 -0.00000000000E+00  0.00000000000E+00  0.15795203121E+04  0.15795203121E+04  0.00000000000E+00 0.  1.
          1   -1    0    0  501    0  0.00000000000E+00 -0.00000000000E+00 -0.84724209173E+03  0.84724209173E+03  0.00000000000E+00 0. -1.
         23    2    1    2    0    0 -0.30618438941E+03 -0.63492746623E+03  0.13263651178E+04  0.15049050345E+04  0.92806084087E+02 0.  0.
         11    1    3    3    0    0 -0.21059596402E+03 -0.45994680926E+03  0.86075440952E+03  0.99839865831E+03  0.00000000000E+00 0. -1.
        -11    1    3    3    0    0 -0.95588425384E+02 -0.17498065697E+03  0.46561070832E+03  0.50650637615E+03  0.00000000000E+00 0.  1.
         22    1    1    2    0    0  0.30618438941E+03  0.63492746623E+03 -0.59408689748E+03  0.92185736936E+03  0.00000000000E+00 0. -1.
<mgrwt>
<rscale>  0 0.23136431E+04</rscale>
<asrwt>0</asrwt>
<pdfrwt beam="1">  1        1 0.13034494E+00 0.23136431E+04</pdfrwt>
<pdfrwt beam="2">  1       -1 0.24300313E+00 0.23136431E+04</pdfrwt>
<totfact> 0.14083201E+00</totfact>
</mgrwt>
</event>
<event>
 6    1  0.9562506E-007  0.1449508E+04  0.7818608E-02  0.8918741E-01
          2   -1    0    0  501    0  0.00000000000E+00  0.00000000000E+00  0.10542044423E+04  0.10542044423E+04  0.00000000000E+00 0. -1.
         -2   -1    0    0    0  501 -0.00000000000E+00 -0.00000000000E+00 -0.49826063550E+03  0.49826063550E+03  0.00000000000E+00 0.  1.
         23    2    1    2    0    0 -0.64520727364E+03  0.96779547004E+02  0.60981620083E+03  0.89781941677E+03  0.92440249198E+02 0.  0.
         13    1    3    3    0    0 -0.20378401445E+03  0.65044596165E+02  0.23589288755E+03  0.31844022741E+03  0.00000000000E+00 0. -1.
        -13    1    3    3    0    0 -0.44142325919E+03  0.31734950839E+02  0.37392331328E+03  0.57937918937E+03  0.00000000000E+00 0.  1.
         22    1    1    2    0    0  0.64520727364E+03 -0.96779547004E+02 -0.53872394030E+02  0.65464566103E+03  0.00000000000E+00 0.  1.
<mgrwt>
<rscale>  0 0.14495083E+04</rscale>
<asrwt>0</asrwt>
<pdfrwt beam="1">  1        2 0.16218530E+00 0.14495083E+04</pdfrwt>
<pdfrwt beam="2">  1       -2 0.76655483E-01 0.14495083E+04</pdfrwt>
<totfact> 0.34329227E+01</totfact>
</mgrwt>
</event>
<event>
 6    1  0.9562506E-007  0.3051186E+04  0.7818608E-02  0.8229264E-01
         -2   -1    0    0    0  501 -0.00000000000E+00  0.00000000000E+00  0.72708161587E+03  0.72708161587E+03  0.00000000000E+00 0.  1.
          2   -1    0    0  501    0  0.00000000000E+00 -0.00000000000E+00 -0.32010625750E+04  0.32010625750E+04  0.00000000000E+00 0. -1.
         23    2    1    2    0    0  0.10258547170E+04  0.11273119695E+04 -0.12301957587E+04  0.19608588018E+04  0.91517533280E+02 0.  0.
         13    1    3    3    0    0  0.18281757889E+03  0.19138038522E+03 -0.17118740874E+03  0.31520445414E+03  0.00000000000E+00 0.  1.
        -13    1    3    3    0    0  0.84303713813E+03  0.93593158433E+03 -0.10590083500E+04  0.16456543477E+04  0.00000000000E+00 0. -1.
         22    1    1    2    0    0 -0.10258547170E+04 -0.11273119695E+04 -0.12437852005E+04  0.19672853891E+04  0.00000000000E+00 0.  1.
<mgrwt>
<rscale>  0 0.30511858E+04</rscale>
<asrwt>0</asrwt>
<pdfrwt beam="1">  1        2 0.49247116E+00 0.30511858E+04</pdfrwt>
<pdfrwt beam="2">  1       -2 0.11185871E+00 0.30511858E+04</pdfrwt>
<totfact> 0.69565418E-01</totfact>
</mgrwt>
</event>
<event>
 6    1  0.9562506E-007  0.9029955E+03  0.7818608E-02  0.9421845E-01
         -1   -1    0    0    0  501 -0.00000000000E+00  0.00000000000E+00  0.11623157908E+03  0.11623157908E+03  0.00000000000E+00 0.  1.
          1   -1    0    0  501    0  0.00000000000E+00 -0.00000000000E+00 -0.17538282622E+04  0.17538282622E+04  0.00000000000E+00 0. -1.
         23    2    1    2    0    0  0.40296697397E+03 -0.52826891267E+02 -0.12129161925E+04  0.12822447499E+04  0.88390305373E+02 0.  0.
         11    1    3    3    0    0  0.17938950248E+03  0.20083127734E+02 -0.50521354117E+03  0.53649291496E+03  0.00000000000E+00 0.  1.
        -11    1    3    3    0    0  0.22357747148E+03 -0.72910019001E+02 -0.70770265136E+03  0.74575183497E+03  0.00000000000E+00 0. -1.
         22    1    1    2    0    0 -0.40296697397E+03  0.52826891267E+02 -0.42468049063E+03  0.58781509139E+03  0.00000000000E+00 0.  1.
<mgrwt>
<rscale>  0 0.90299552E+03</rscale>
<asrwt>0</asrwt>
<pdfrwt beam="1">  1        1 0.26981973E+00 0.90299552E+03</pdfrwt>
<pdfrwt beam="2">  1       -1 0.17881781E-01 0.90299552E+03</pdfrwt>
<totfact> 0.10922444E+02</totfact>
</mgrwt>
</event>
<event>
 6    1  0.9562506E-007  0.1801262E+04  0.7818608E-02  0.8705629E-01
          1   -1    0    0  501    0  0.00000000000E+00  0.00000000000E+00  0.11448588579E+04  0.11448588579E+04  0.00000000000E+00 0. -1.
         -1   -1    0    0    0  501 -0.00000000000E+00 -0.00000000000E+00 -0.70850340593E+03  0.70850340593E+03  0.00000000000E+00 0.  1.
         23    2    1    2    0    0  0.69440888077E+03  0.56235183480E+03  0.12349626398E+03  0.90661829032E+03  0.90896189881E+02 0.  0.
         13    1    3    3    0    0  0.49990962532E+03  0.43162158819E+03  0.56462440563E+02  0.66286864165E+03  0.00000000000E+00 0. -1.
        -13    1    3    3    0    0  0.19449925545E+03  0.13073024660E+03  0.67033823415E+02  0.24374964868E+03  0.00000000000E+00 0.  1.
         22    1    1    2    0    0 -0.69440888077E+03 -0.56235183480E+03  0.31285918795E+03  0.94674397346E+03  0.00000000000E+00 0. -1.
<mgrwt>
<rscale>  0 0.18012622E+04</rscale>
<asrwt>0</asrwt>
<pdfrwt beam="1">  1        1 0.17613213E+00 0.18012622E+04</pdfrwt>
<pdfrwt beam="2">  1       -1 0.10900052E+00 0.18012622E+04</pdfrwt>
<totfact> 0.86355601E+00</totfact>
</mgrwt>
</event>
<event>
 6    1  0.9562506E-007  0.1153704E+04  0.7818608E-02  0.9154373E-01
          3   -1    0    0  501    0  0.00000000000E+00  0.00000000000E+00  0.69287112065E+03  0.69287112065E+03  0.00000000000E+00 0. -1.
         -3   -1    0    0    0  501 -0.00000000000E+00 -0.00000000000E+00 -0.48026016667E+03  0.48026016667E+03  0.00000000000E+00 0.  1.
         23    2    1    2    0    0 -0.72964826177E+02  0.39957949634E+03  0.51817202421E+03  0.66484474667E+03  0.92350694371E+02 0.  0.
         13    1    3    3    0    0 -0.41657222534E+02  0.36599438814E+03  0.43654529506E+03  0.57119087089E+03  0.00000000000E+00 0.  1.
        -13    1    3    3    0    0 -0.31307603643E+02  0.33585108192E+02  0.81626729152E+02  0.93653875788E+02  0.00000000000E+00 0. -1.
         22    1    1    2    0    0  0.72964826177E+02 -0.39957949634E+03 -0.30556107024E+03  0.50828654064E+03  0.00000000000E+00 0.  1.
<mgrwt>
<rscale>  0 0.11537043E+04</rscale>
<asrwt>0</asrwt>
<pdfrwt beam="1">  1        3 0.10659556E+00 0.11537043E+04</pdfrwt>
<pdfrwt beam="2">  1       -3 0.73886179E-01 0.11537043E+04</pdfrwt>
<totfact> 0.33854572E+00</totfact>
</mgrwt>
</event>
<event>
 6    1  0.9562506E-007  0.1178608E+04  0.7818608E-02  0.9131790E-01
         -1   -1    0    0    0  501 -0.00000000000E+00  0.00000000000E+00  0.39244589983E+03  0.39244589983E+03  0.00000000000E+00 0.  1.
          1   -1    0    0  501    0  0.00000000000E+00 -0.00000000000E+00 -0.88490913197E+03  0.88490913197E+03  0.00000000000E+00 0. -1.
         23    2    1    2    0    0  0.37823298030E+03  0.14522317807E+03 -0.70623728880E+03  0.81926191229E+03  0.90934118992E+02 0.  0.
         13    1    3    3    0    0  0.25712394691E+03  0.79839291194E+02 -0.54038326991E+03  0.60373927725E+03  0.00000000000E+00 0. -1.
        -13    1    3    3    0    0  0.12110903340E+03  0.65383886879E+02 -0.16585401889E+03  0.21552263504E+03  0.00000000000E+00 0.  1.
         22    1    1    2    0    0 -0.37823298030E+03 -0.14522317807E+03  0.21377405666E+03  0.45809311951E+03  0.00000000000E+00 0.  1.
<mgrwt>
<rscale>  0 0.11786076E+04</rscale>
<asrwt>0</asrwt>
<pdfrwt beam="1">  1        1 0.13613986E+00 0.11786076E+04</pdfrwt>
<pdfrwt beam="2">  1       -1 0.60376293E-01 0.11786076E+04</pdfrwt>
<totfact> 0.51636109E+01</totfact>
</mgrwt>
</event>
<event>
 6    1  0.9562506E-007  0.2398993E+04  0.7818608E-02  0.8439881E-01
         -1   -1    0    0    0  501 -0.00000000000E+00  0.00000000000E+00  0.11423210570E+04  0.11423210570E+04  0.00000000000E+00 0.  1.
          1   -1    0    0  501    0  0.00000000000E+00 -0.00000000000E+00 -0.12595336850E+04  0.12595336850E+04  0.00000000000E+00 0. -1.
         23    2    1    2    0    0 -0.10867095219E+04  0.36900815064E+03  0.28464743072E+03  0.11858793693E+04  0.90449536243E+02 0.  0.
         11    1    3    3    0    0 -0.19194394914E+03  0.68399086767E+02  0.86643156230E+02  0.22142256255E+03  0.00000000000E+00 0. -1.
        -11    1    3    3    0    0 -0.89476557271E+03  0.30060906388E+03  0.19800427449E+03  0.96445680677E+03  0.00000000000E+00 0.  1.
         22    1    1    2    0    0  0.10867095219E+04 -0.36900815064E+03 -0.40186005872E+03  0.12159753727E+04  0.00000000000E+00 0. -1.
<mgrwt>
<rscale>  0 0.23989930E+04</rscale>
<asrwt>0</asrwt>
<pdfrwt beam="1">  1        1 0.19377441E+00 0.23989930E+04</pdfrwt>
<pdfrwt beam="2">  1       -1 0.17574170E+00 0.23989930E+04</pdfrwt>
<totfact> 0.19365495E+00</totfact>
</mgrwt>
</event>
<event>
 6    1  0.9562506E-007  0.1638587E+04  0.7818608E-02  0.8797187E-01
          2   -1    0    0  501    0  0.00000000000E+00  0.00000000000E+00  0.90324023170E+03  0.90324023170E+03  0.00000000000E+00 0. -1.
         -2   -1    0    0    0  501 -0.00000000000E+00 -0.00000000000E+00 -0.74314870050E+03  0.74314870050E+03  0.00000000000E+00 0.  1.
         23    2    1    2    0    0 -0.10967189945E+02  0.18604352852E+03 -0.71869067446E+03  0.74806235531E+03  0.91370280260E+02 0.  0.
         13    1    3    3    0    0  0.33860654487E+01  0.10606230565E+03 -0.23846131326E+03  0.26100665900E+03  0.00000000000E+00 0.  1.
        -13    1    3    3    0    0 -0.14353255393E+02  0.79981222876E+02 -0.48022936120E+03  0.48705569631E+03  0.00000000000E+00 0. -1.
         22    1    1    2    0    0  0.10967189945E+02 -0.18604352852E+03  0.87878220566E+03  0.89832657689E+03  0.00000000000E+00 0. -1.
<mgrwt>
<rscale>  0 0.16385870E+04</rscale>
<asrwt>0</asrwt>
<pdfrwt beam="1">  1        2 0.13896004E+00 0.16385870E+04</pdfrwt>
<pdfrwt beam="2">  1       -2 0.11433057E+00 0.16385870E+04</pdfrwt>
<totfact> 0.16684382E+01</totfact>
</mgrwt>
</event>
<event>
 6    1  0.9562506E-007  0.2596217E+04  0.7818608E-02  0.8369487E-01
          2   -1    0    0  501    0  0.00000000000E+00  0.00000000000E+00  0.10762949415E+04  0.10762949415E+04  0.00000000000E+00 0. -1.
         -2   -1    0    0    0  501 -0.00000000000E+00 -0.00000000000E+00 -0.15656354357E+04  0.15656354357E+04  0.00000000000E+00 0.  1.
         23    2    1    2    0    0  0.51199215238E+03  0.27956652600E+03  0.93320531345E+03  0.11044226596E+04  0.92649055112E+02 0.  0.
         11    1    3    3    0    0  0.27829331179E+03  0.10149890369E+03  0.49391180142E+03  0.57593234187E+03  0.00000000000E+00 0. -1.
        -11    1    3    3    0    0  0.23369884059E+03  0.17806762231E+03  0.43929351203E+03  0.52849031772E+03  0.00000000000E+00 0.  1.
         22    1    1    2    0    0 -0.51199215238E+03 -0.27956652600E+03 -0.14225458077E+04  0.15375077176E+04  0.00000000000E+00 0.  1.
<mgrwt>
<rscale>  0 0.25962169E+04</rscale>
<asrwt>0</asrwt>
<pdfrwt beam="1">  1        2 0.16558384E+00 0.25962169E+04</pdfrwt>
<pdfrwt beam="2">  1       -2 0.24086699E+00 0.25962169E+04</pdfrwt>
<totfact> 0.14588948E+00</totfact>
</mgrwt>
</event>
<event>
 6    1  0.9562506E-007  0.2134525E+04  0.7818608E-02  0.8546186E-01
          1   -1    0    0  501    0  0.00000000000E+00  0.00000000000E+00  0.61513903075E+03  0.61513903075E+03  0.00000000000E+00 0. -1.
         -1   -1    0    0    0  501 -0.00000000000E+00 -0.00000000000E+00 -0.18516931266E+04  0.18516931266E+04  0.00000000000E+00 0.  1.
         23    2    1    2    0    0 -0.31109838991E+03  0.85240643865E+03  0.25880138944E+02  0.91212345730E+03  0.88997049965E+02 0.  0.
         11    1    3    3    0    0 -0.19038476982E+03  0.58194336886E+03  0.53677717306E+02  0.61464277631E+03  0.00000000000E+00 0.  1.
        -11    1    3    3    0    0 -0.12071362009E+03  0.27046306980E+03 -0.27797578362E+02  0.29748068099E+03  0.00000000000E+00 0. -1.
         22    1    1    2    0    0  0.31109838991E+03 -0.85240643865E+03 -0.12624342348E+04  0.15547087001E+04  0.00000000000E+00 0.  1.
<mgrwt>
<rscale>  0 0.21345245E+04</rscale>
<asrwt>0</asrwt>
<pdfrwt beam="1">  1        1 0.94636775E-01 0.21345245E+04</pdfrwt>
<pdfrwt beam="2">  1       -1 0.28487586E+00 0.21345245E+04</pdfrwt>
<totfact> 0.12537748E+00</totfact>
</mgrwt>
</event>
<event>
 6    1  0.9562506E-007  0.8905182E+03  0.7818608E-02  0.9437512E-01
         -1   -1    0    0    0  501 -0.00000000000E+00  0.00000000000E+00  0.18734737912E+03  0.18734737912E+03  0.00000000000E+00 0.  1.
          1   -1    0    0  501    0  0.00000000000E+00 -0.00000000000E+00 -0.10582248302E+04  0.10582248302E+04  0.00000000000E+00 0. -1.
         23    2    1    2    0    0 -0.13509654941E+03  0.31475737696E+03 -0.53826373944E+02  0.35962878749E+03  0.95458379654E+02 0.  0.
         11    1    3    3    0    0 -0.19173613711E+02  0.12417128497E+03  0.14130634787E+02  0.12643500430E+03  0.00000000000E+00 0. -1.
        -11    1    3    3    0    0 -0.11592293570E+03  0.19058609200E+03 -0.67957008731E+02  0.23319378319E+03  0.00000000000E+00 0.  1.
         22    1    1    2    0    0  0.13509654941E+03 -0.31475737696E+03 -0.81705107713E+03  0.88594342181E+03  0.00000000000E+00 0. -1.
<mgrwt>
<rscale>  0 0.89051816E+03</rscale>
<asrwt>0</asrwt>
<pdfrwt beam="1">  1        1 0.16280383E+00 0.89051816E+03</pdfrwt>
<pdfrwt beam="2">  1       -1 0.28822673E-01 0.89051816E+03</pdfrwt>
<totfact> 0.15029249E+02</totfact>
</mgrwt>
</event>
<event>
 6    1  0.9562506E-007  0.3978272E+04  0.7818608E-02  0.8008944E-01
         -2   -1    0    0    0  501 -0.00000000000E+00  0.00000000000E+00  0.99512264005E+03  0.99512264005E+03  0.00000000000E+00 0.  1.
          2   -1    0    0  501    0  0.00000000000E+00 -0.00000000000E+00 -0.39760547563E+04  0.39760547563E+04  0.00000000000E+00 0. -1.
         23    2    1    2    0    0  0.16489669223E+04 -0.11069301863E+04 -0.13784240285E+04  0.24192333297E+04  0.90833654610E+02 0.  0.
         11    1    3    3    0    0  0.19760064841E+03 -0.16934933519E+03 -0.18382132346E+03  0.31861495969E+03  0.00000000000E+00 0.  1.
        -11    1    3    3    0    0  0.14513662739E+04 -0.93758085108E+03 -0.11946027051E+04  0.21006183700E+04  0.00000000000E+00 0. -1.
         22    1    1    2    0    0 -0.16489669223E+04  0.11069301863E+04 -0.16025080877E+04  0.25519440666E+04  0.00000000000E+00 0. -1.
<mgrwt>
<rscale>  0 0.39782720E+04</rscale>
<asrwt>0</asrwt>
<pdfrwt beam="1">  1        2 0.61170074E+00 0.39782720E+04</pdfrwt>
<pdfrwt beam="2">  1       -2 0.15309579E+00 0.39782720E+04</pdfrwt>
<totfact> 0.79926658E-02</totfact>
</mgrwt>
</event>
<event>
 6    1  0.9562506E-007  0.1623569E+04  0.7818608E-02  0.8806198E-01
          1   -1    0    0  501    0  0.00000000000E+00  0.00000000000E+00  0.86669538558E+03  0.86669538558E+03  0.00000000000E+00 0. -1.
         -1   -1    0    0    0  501 -0.00000000000E+00 -0.00000000000E+00 -0.76035222496E+03  0.76035222496E+03  0.00000000000E+00 0.  1.
         23    2    1    2    0    0 -0.77548879240E+03  0.15873364686E+03 -0.11503794030E+03  0.80510550209E+03  0.91552738919E+02 0.  0.
         13    1    3    3    0    0 -0.58865384491E+03  0.83573118561E+02 -0.10251751192E+03  0.60333046958E+03  0.00000000000E+00 0.  1.
        -13    1    3    3    0    0 -0.18683494749E+03  0.75160528294E+02 -0.12520428376E+02  0.20177503251E+03  0.00000000000E+00 0. -1.
         22    1    1    2    0    0  0.77548879240E+03 -0.15873364686E+03  0.22138110092E+03  0.82194210844E+03  0.00000000000E+00 0. -1.
<mgrwt>
<rscale>  0 0.16235686E+04</rscale>
<asrwt>0</asrwt>
<pdfrwt beam="1">  1        1 0.13333775E+00 0.16235686E+04</pdfrwt>
<pdfrwt beam="2">  1       -1 0.11697727E+00 0.16235686E+04</pdfrwt>
<totfact> 0.12236608E+01</totfact>
</mgrwt>
</event>
<event>
 6    1  0.9562506E-007  0.9457413E+03  0.7818608E-02  0.9370142E-01
          1   -1    0    0  501    0  0.00000000000E+00  0.00000000000E+00  0.12532669326E+04  0.12532669326E+04  0.00000000000E+00 0. -1.
         -1   -1    0    0    0  501 -0.00000000000E+00 -0.00000000000E+00 -0.17841902953E+03  0.17841902953E+03  0.00000000000E+00 0.  1.
         23    2    1    2    0    0 -0.54135541718E+01  0.34577210257E+03  0.62723262755E+02  0.36211411274E+03  0.87205329364E+02 0.  0.
         13    1    3    3    0    0 -0.10122777595E+02  0.11684536649E+03  0.63012853544E+02  0.13313876223E+03  0.00000000000E+00 0. -1.
        -13    1    3    3    0    0  0.47092234230E+01  0.22892673608E+03 -0.28959078962E+00  0.22897535051E+03  0.00000000000E+00 0.  1.
         22    1    1    2    0    0  0.54135541718E+01 -0.34577210257E+03  0.10121246403E+04  0.10695718494E+04  0.00000000000E+00 0. -1.
<mgrwt>
<rscale>  0 0.94574134E+03</rscale>
<asrwt>0</asrwt>
<pdfrwt beam="1">  1        1 0.19281029E+00 0.94574134E+03</pdfrwt>
<pdfrwt beam="2">  1       -1 0.27449082E-01 0.94574134E+03</pdfrwt>
<totfact> 0.11701581E+02</totfact>
</mgrwt>
</event>
<event>
 6    1  0.9562506E-007  0.3325720E+04  0.7818608E-02  0.8156382E-01
          1   -1    0    0  501    0  0.00000000000E+00  0.00000000000E+00  0.20481072812E+04  0.20481072812E+04  0.00000000000E+00 0. -1.
         -1   -1    0    0    0  501 -0.00000000000E+00 -0.00000000000E+00 -0.13500775683E+04  0.13500775683E+04  0.00000000000E+00 0.  1.
         23    2    1    2    0    0 -0.11132923929E+04 -0.11452086006E+04  0.81750478363E+03  0.17965616155E+04  0.91634469126E+02 0.  0.
         13    1    3    3    0    0 -0.16272552631E+03 -0.20842268333E+03  0.15614591263E+03  0.30708493592E+03  0.00000000000E+00 0.  1.
        -13    1    3    3    0    0 -0.95056686662E+03 -0.93678591729E+03  0.66135887100E+03  0.14894766796E+04  0.00000000000E+00 0. -1.
         22    1    1    2    0    0  0.11132923929E+04  0.11452086006E+04 -0.11947507068E+03  0.16016232340E+04  0.00000000000E+00 0. -1.
<mgrwt>
<rscale>  0 0.33257202E+04</rscale>
<asrwt>0</asrwt>
<pdfrwt beam="1">  1        1 0.31509343E+00 0.33257202E+04</pdfrwt>
<pdfrwt beam="2">  1       -1 0.20770424E+00 0.33257202E+04</pdfrwt>
<totfact> 0.30495015E-01</totfact>
</mgrwt>
</event>
<event>
 6    1  0.9562506E-007  0.7590000E+03  0.7818608E-02  0.9621336E-01
         -1   -1    0    0    0  501 -0.00000000000E+00  0.00000000000E+00  0.12693855591E+03  0.12693855591E+03  0.00000000000E+00 0.  1.
          1   -1    0    0  501    0  0.00000000000E+00 -0.00000000000E+00 -0.11345665082E+04  0.11345665082E+04  0.00000000000E+00 0. -1.
         23    2    1    2    0    0  0.85241172492E+02  0.13330543480E+03 -0.10743205071E+04  0.10897951537E+04  0.91937635460E+02 0.  0.
         11    1    3    3    0    0  0.44991801861E+02  0.78570592117E+02 -0.32424021127E+03  0.33664419612E+03  0.00000000000E+00 0. -1.
        -11    1    3    3    0    0  0.40249370631E+02  0.54734842682E+02 -0.75008029579E+03  0.75315095763E+03  0.00000000000E+00 0.  1.
         22    1    1    2    0    0 -0.85241172492E+02 -0.13330543480E+03  0.66692554808E+02  0.17170991032E+03  0.00000000000E+00 0.  1.
<mgrwt>
<rscale>  0 0.75899996E+03</rscale>
<asrwt>0</asrwt>
<pdfrwt beam="1">  1        1 0.17454869E+00 0.75899996E+03</pdfrwt>
<pdfrwt beam="2">  1       -1 0.19529009E-01 0.75899996E+03</pdfrwt>
<totfact> 0.25732582E+02</totfact>
</mgrwt>
</event>
<event>
 6    1  0.9562506E-007  0.1778194E+04  0.7818608E-02  0.8717982E-01
          2   -1    0    0  501    0  0.00000000000E+00  0.00000000000E+00  0.97365504247E+03  0.97365504247E+03  0.00000000000E+00 0. -1.
         -2   -1    0    0    0  501 -0.00000000000E+00 -0.00000000000E+00 -0.81188261308E+03  0.81188261308E+03  0.00000000000E+00 0.  1.
         23    2    1    2    0    0  0.82111190133E+03  0.31482506957E+03 -0.31605617470E+02  0.88512961031E+03  0.95477395580E+02 0.  0.
         11    1    3    3    0    0  0.70354344752E+03  0.24345093496E+03 -0.51059079654E+02  0.74622300279E+03  0.00000000000E+00 0. -1.
        -11    1    3    3    0    0  0.11756845380E+03  0.71374134610E+02  0.19453462184E+02  0.13890660752E+03  0.00000000000E+00 0.  1.
         22    1    1    2    0    0 -0.82111190133E+03 -0.31482506957E+03  0.19337804686E+03  0.90040804524E+03  0.00000000000E+00 0.  1.
<mgrwt>
<rscale>  0 0.17781941E+04</rscale>
<asrwt>0</asrwt>
<pdfrwt beam="1">  1        2 0.14979308E+00 0.17781941E+04</pdfrwt>
<pdfrwt beam="2">  1       -2 0.12490502E+00 0.17781941E+04</pdfrwt>
<totfact> 0.11902197E+01</totfact>
</mgrwt>
</event>
<event>
 6    1  0.9562506E-007  0.2253802E+04  0.7818608E-02  0.8496363E-01
          2   -1    0    0  501    0  0.00000000000E+00  0.00000000000E+00  0.76227699100E+03  0.76227699100E+03  0.00000000000E+00 0. -1.
         -2   -1    0    0    0  501 -0.00000000000E+00 -0.00000000000E+00 -0.16659369840E+04  0.16659369840E+04  0.00000000000E+00 0.  1.
         23    2    1    2    0    0  0.75796239000E+03 -0.14366651177E+03  0.42971791103E+03  0.88774531702E+03  0.91034134111E+02 0.  0.
         13    1    3    3    0    0  0.43682322012E+03 -0.58053863914E+02  0.28804234844E+03  0.52645338943E+03  0.00000000000E+00 0. -1.
        -13    1    3    3    0    0  0.32113916988E+03 -0.85612647857E+02  0.14167556259E+03  0.36129192759E+03  0.00000000000E+00 0.  1.
         22    1    1    2    0    0 -0.75796239000E+03  0.14366651177E+03 -0.13333779040E+04  0.15404686580E+04  0.00000000000E+00 0.  1.
<mgrwt>
<rscale>  0 0.22538016E+04</rscale>
<asrwt>0</asrwt>
<pdfrwt beam="1">  1        2 0.11727338E+00 0.22538016E+04</pdfrwt>
<pdfrwt beam="2">  1       -2 0.25629800E+00 0.22538016E+04</pdfrwt>
<totfact> 0.19637952E+00</totfact>
</mgrwt>
</event>
<event>
 6    1  0.9562506E-007  0.1654162E+04  0.7818608E-02  0.8787948E-01
          1   -1    0    0  501    0  0.00000000000E+00  0.00000000000E+00  0.15201585222E+04  0.15201585222E+04  0.00000000000E+00 0. -1.
         -1   -1    0    0    0  501 -0.00000000000E+00 -0.00000000000E+00 -0.44999471644E+03  0.44999471644E+03  0.00000000000E+00 0.  1.
         23    2    1    2    0    0 -0.51436620776E+03 -0.50408324777E+03  0.58372620379E+02  0.72822171107E+03  0.90702708276E+02 0.  0.
         13    1    3    3    0    0 -0.38745321090E+03 -0.41044299666E+03  0.75978293558E+02  0.56952273461E+03  0.00000000000E+00 0. -1.
        -13    1    3    3    0    0 -0.12691299686E+03 -0.93640251108E+02 -0.17605673179E+02  0.15869897646E+03  0.00000000000E+00 0.  1.
         22    1    1    2    0    0  0.51436620776E+03  0.50408324777E+03  0.10117911854E+04  0.12419315276E+04  0.00000000000E+00 0. -1.
<mgrwt>
<rscale>  0 0.16541624E+04</rscale>
<asrwt>0</asrwt>
<pdfrwt beam="1">  1        1 0.23387054E+00 0.16541624E+04</pdfrwt>
<pdfrwt beam="2">  1       -1 0.69229957E-01 0.16541624E+04</pdfrwt>
<totfact> 0.12771230E+01</totfact>
</mgrwt>
</event>
<event>
 6    1  0.9562506E-007  0.2971642E+04  0.7818608E-02  0.8251875E-01
         -2   -1    0    0    0  501 -0.00000000000E+00  0.00000000000E+00  0.99564822775E+03  0.99564822775E+03  0.00000000000E+00 0.  1.
          2   -1    0    0  501    0  0.00000000000E+00 -0.00000000000E+00 -0.22173136275E+04  0.22173136275E+04  0.00000000000E+00 0. -1.
         23    2    1    2    0    0  0.12613836077E+04  0.61407000984E+03 -0.11358629442E+04  0.18074254295E+04  0.91823047968E+02 0.  0.
         11    1    3    3    0    0  0.18805704112E+03  0.61610836024E+02 -0.18250825657E+03  0.26920365812E+03  0.00000000000E+00 0. -1.
        -11    1    3    3    0    0  0.10733265666E+04  0.55245917382E+03 -0.95335468767E+03  0.15382217713E+04  0.00000000000E+00 0.  1.
         22    1    1    2    0    0 -0.12613836077E+04 -0.61407000984E+03 -0.85802455500E+02  0.14055364258E+04  0.00000000000E+00 0. -1.
<mgrwt>
<rscale>  0 0.29716422E+04</rscale>
<asrwt>0</asrwt>
<pdfrwt beam="1">  1        2 0.34112517E+00 0.29716422E+04</pdfrwt>
<pdfrwt beam="2">  1       -2 0.15317665E+00 0.29716422E+04</pdfrwt>
<totfact> 0.12275305E+00</totfact>
</mgrwt>
</event>
<event>
 6    1  0.9562506E-007  0.1907946E+04  0.7818608E-02  0.8650911E-01
         -2   -1    0    0    0  501 -0.00000000000E+00  0.00000000000E+00  0.25870977221E+03  0.25870977221E+03  0.00000000000E+00 0.  1.
          2   -1    0    0  501    0  0.00000000000E+00 -0.00000000000E+00 -0.35177040945E+04  0.35177040945E+04  0.00000000000E+00 0. -1.
         23    2    1    2    0    0 -0.80110122491E+03 -0.50000275070E+03 -0.13889998835E+04  0.16815045311E+04  0.79817846118E+02 0.  0.
         13    1    3    3    0    0 -0.35920908645E+03 -0.17806319160E+03 -0.57914219725E+03  0.70437444063E+03  0.00000000000E+00 0.  1.
        -13    1    3    3    0    0 -0.44189213846E+03 -0.32193955910E+03 -0.80985768629E+03  0.97713009051E+03  0.00000000000E+00 0. -1.
         22    1    1    2    0    0  0.80110122491E+03  0.50000275070E+03 -0.18699944387E+04  0.20949093355E+04  0.00000000000E+00 0.  1.
<mgrwt>
<rscale>  0 0.19079459E+04</rscale>
<asrwt>0</asrwt>
<pdfrwt beam="1">  1        2 0.54118526E+00 0.19079459E+04</pdfrwt>
<pdfrwt beam="2">  1       -2 0.39801502E-01 0.19079459E+04</pdfrwt>
<totfact> 0.44467444E+00</totfact>
</mgrwt>
</event>
<event>
 6    1  0.9562506E-007  0.1989916E+04  0.7818608E-02  0.8611350E-01
         -2   -1    0    0    0  501 -0.00000000000E+00  0.00000000000E+00  0.94601742947E+03  0.94601742947E+03  0.00000000000E+00 0.  1.
          2   -1    0    0  501    0  0.00000000000E+00 -0.00000000000E+00 -0.10464302003E+04  0.10464302003E+04  0.00000000000E+00 0. -1.
         23    2    1    2    0    0  0.55264279078E+03  0.18987551348E+03 -0.85405543479E+03  0.10387998804E+04  0.90706896030E+02 0.  0.
         13    1    3    3    0    0  0.29995978398E+03  0.67710595504E+02 -0.50002239987E+03  0.58701192247E+03  0.00000000000E+00 0.  1.
        -13    1    3    3    0    0  0.25268300679E+03  0.12216491798E+03 -0.35403303492E+03  0.45178795792E+03  0.00000000000E+00 0. -1.
         22    1    1    2    0    0 -0.55264279078E+03 -0.18987551348E+03  0.75364266400E+03  0.95364774934E+03  0.00000000000E+00 0.  1.
<mgrwt>
<rscale>  0 0.19899158E+04</rscale>
<asrwt>0</asrwt>
<pdfrwt beam="1">  1        2 0.16098926E+00 0.19899158E+04</pdfrwt>
<pdfrwt beam="2">  1       -2 0.14554114E+00 0.19899158E+04</pdfrwt>
<totfact> 0.70990107E+00</totfact>
</mgrwt>
</event>
<event>
 6    1  0.1020005E-006  0.3221907E+04  0.7818608E-02  0.8183055E-01
         -2   -1    0    0    0  501 -0.00000000000E+00  0.00000000000E+00  0.14392048550E+04  0.14392048550E+04  0.00000000000E+00 0.  1.
          2   -1    0    0  501    0  0.00000000000E+00 -0.00000000000E+00 -0.18031980782E+04  0.18031980782E+04  0.00000000000E+00 0. -1.
         23    2    1    2    0    0  0.86157429250E+03 -0.13212843643E+04 -0.50498731400E+03  0.16587419952E+04  0.91160223424E+02 0.  0.
         13    1    3    3    0    0  0.39812181792E+03 -0.69397550083E+03 -0.25657024899E+03  0.84019716158E+03  0.00000000000E+00 0. -1.
        -13    1    3    3    0    0  0.46345247458E+03 -0.62730886351E+03 -0.24841706501E+03  0.81854483360E+03  0.00000000000E+00 0.  1.
         22    1    1    2    0    0 -0.86157429250E+03  0.13212843643E+04  0.14099409082E+03  0.15836609380E+04  0.00000000000E+00 0. -1.
<mgrwt>
<rscale>  0 0.32219072E+04</rscale>
<asrwt>0</asrwt>
<pdfrwt beam="1">  1        2 0.27741509E+00 0.32219072E+04</pdfrwt>
<pdfrwt beam="2">  1       -2 0.22141613E+00 0.32219072E+04</pdfrwt>
<totfact> 0.69938237E-01</totfact>
</mgrwt>
</event>
<event>
 6    1  0.9562506E-007  0.2315311E+04  0.7818608E-02  0.8471909E-01
         -2   -1    0    0    0  501 -0.00000000000E+00  0.00000000000E+00  0.68162883815E+03  0.68162883815E+03  0.00000000000E+00 0.  1.
          2   -1    0    0  501    0  0.00000000000E+00 -0.00000000000E+00 -0.19661224793E+04  0.19661224793E+04  0.00000000000E+00 0. -1.
         23    2    1    2    0    0 -0.10117549348E+04 -0.10605068828E+03 -0.12702194406E+04  0.16303533868E+04  0.98488283611E+02 0.  0.
         11    1    3    3    0    0 -0.72501560634E+03 -0.86353387269E+02 -0.84014742043E+03  0.11130823083E+04  0.00000000000E+00 0. -1.
        -11    1    3    3    0    0 -0.28673932844E+03 -0.19697301015E+02 -0.43007202017E+03  0.51727107852E+03  0.00000000000E+00 0.  1.
         22    1    1    2    0    0  0.10117549348E+04  0.10605068828E+03 -0.14274200557E+02  0.10173979307E+04  0.00000000000E+00 0.  1.
<mgrwt>
<rscale>  0 0.23153106E+04</rscale>
<asrwt>0</asrwt>
<pdfrwt beam="1">  1        2 0.30248038E+00 0.23153106E+04</pdfrwt>
<pdfrwt beam="2">  1       -2 0.10486598E+00 0.23153106E+04</pdfrwt>
<totfact> 0.46583633E+00</totfact>
</mgrwt>
</event>
<event>
 6    1  0.9562506E-007  0.1392393E+04  0.7818608E-02  0.8959343E-01
         -2   -1    0    0    0  501 -0.00000000000E+00  0.00000000000E+00  0.52829374684E+03  0.52829374684E+03  0.00000000000E+00 0.  1.
          2   -1    0    0  501    0  0.00000000000E+00 -0.00000000000E+00 -0.91746270581E+03  0.91746270581E+03  0.00000000000E+00 0. -1.
         23    2    1    2    0    0 -0.31043681287E+03  0.42684666096E+03  0.27081028698E+03  0.60068740703E+03  0.94435494766E+02 0.  0.
         13    1    3    3    0    0 -0.88928436395E+02  0.85366451736E+02  0.10215411910E+03  0.16009735142E+03  0.00000000000E+00 0.  1.
        -13    1    3    3    0    0 -0.22150837647E+03  0.34148020923E+03  0.16865616788E+03  0.44059005561E+03  0.00000000000E+00 0. -1.
         22    1    1    2    0    0  0.31043681287E+03 -0.42684666096E+03 -0.65997924596E+03  0.84506904561E+03  0.00000000000E+00 0. -1.
<mgrwt>
<rscale>  0 0.13923934E+04</rscale>
<asrwt>0</asrwt>
<pdfrwt beam="1">  1        2 0.14114811E+00 0.13923934E+04</pdfrwt>
<pdfrwt beam="2">  1       -2 0.81275961E-01 0.13923934E+04</pdfrwt>
<totfact> 0.37079960E+01</totfact>
</mgrwt>
</event>
<event>
 6    1  0.9562506E-007  0.2394893E+04  0.7818608E-02  0.8441418E-01
          2   -1    0    0  501    0  0.00000000000E+00  0.00000000000E+00  0.16183160258E+04  0.16183160258E+04  0.00000000000E+00 0. -1.
         -2   -1    0    0    0  501 -0.00000000000E+00 -0.00000000000E+00 -0.88603119248E+03  0.88603119248E+03  0.00000000000E+00 0.  1.
         23    2    1    2    0    0  0.54592547746E+03 -0.66911265279E+03 -0.49816948352E+03  0.10010960101E+04  0.90961629690E+02 0.  0.
         11    1    3    3    0    0  0.16204678270E+03 -0.14761024220E+03 -0.10009899523E+03  0.24097251344E+03  0.00000000000E+00 0. -1.
        -11    1    3    3    0    0  0.38387869476E+03 -0.52150241059E+03 -0.39807048829E+03  0.76012349667E+03  0.00000000000E+00 0.  1.
         22    1    1    2    0    0 -0.54592547746E+03  0.66911265279E+03  0.12304543168E+04  0.15032512082E+04  0.00000000000E+00 0. -1.
<mgrwt>
<rscale>  0 0.23948933E+04</rscale>
<asrwt>0</asrwt>
<pdfrwt beam="1">  1        2 0.24897170E+00 0.23948933E+04</pdfrwt>
<pdfrwt beam="2">  1       -2 0.13631249E+00 0.23948933E+04</pdfrwt>
<totfact> 0.37715963E+00</totfact>
</mgrwt>
</event>
<event>
 6    1  0.9562506E-007  0.1244140E+04  0.7818608E-02  0.9075075E-01
          1   -1    0    0  501    0  0.00000000000E+00  0.00000000000E+00  0.21555079823E+04  0.21555079823E+04  0.00000000000E+00 0. -1.
         -1   -1    0    0    0  501 -0.00000000000E+00 -0.00000000000E+00 -0.17952654471E+03  0.17952654471E+03  0.00000000000E+00 0.  1.
         23    2    1    2    0    0 -0.52045496716E+03  0.25068069737E+03  0.57728753031E+03  0.82174049374E+03  0.91007480584E+02 0.  0.
         13    1    3    3    0    0 -0.25091581267E+03  0.70799614430E+02  0.26224141692E+03  0.36978627774E+03  0.00000000000E+00 0. -1.
        -13    1    3    3    0    0 -0.26953915448E+03  0.17988108294E+03  0.31504611339E+03  0.45195421600E+03  0.00000000000E+00 0.  1.
         22    1    1    2    0    0  0.52045496716E+03 -0.25068069737E+03  0.13986939072E+04  0.15132940332E+04  0.00000000000E+00 0. -1.
<mgrwt>
<rscale>  0 0.12441397E+04</rscale>
<asrwt>0</asrwt>
<pdfrwt beam="1">  1        1 0.33161659E+00 0.12441397E+04</pdfrwt>
<pdfrwt beam="2">  1       -1 0.27619470E-01 0.12441397E+04</pdfrwt>
<totfact> 0.27245818E+01</totfact>
</mgrwt>
</event>
<event>
 6    1  0.9562506E-007  0.1303484E+04  0.7818608E-02  0.9026807E-01
         -3   -1    0    0    0  501 -0.00000000000E+00  0.00000000000E+00  0.74655953824E+03  0.74655953824E+03  0.00000000000E+00 0.  1.
          3   -1    0    0  501    0  0.00000000000E+00 -0.00000000000E+00 -0.56896704327E+03  0.56896704327E+03  0.00000000000E+00 0. -1.
         23    2    1    2    0    0  0.70683565688E+02  0.64039117946E+03  0.12960113599E+02  0.65054473951E+03  0.89126114926E+02 0.  0.
         11    1    3    3    0    0 -0.20242596488E+00  0.13148777143E+03  0.35624845673E+02  0.13622850158E+03  0.00000000000E+00 0.  1.
        -11    1    3    3    0    0  0.70885991653E+02  0.50890340803E+03 -0.22664732074E+02  0.51431623793E+03  0.00000000000E+00 0. -1.
         22    1    1    2    0    0 -0.70683565688E+02 -0.64039117946E+03  0.16463238137E+03  0.66498184200E+03  0.00000000000E+00 0. -1.
<mgrwt>
<rscale>  0 0.13034842E+04</rscale>
<asrwt>0</asrwt>
<pdfrwt beam="1">  1        3 0.87533391E-01 0.13034842E+04</pdfrwt>
<pdfrwt beam="2">  1       -3 0.11485531E+00 0.13034842E+04</pdfrwt>
<totfact> 0.19190965E+00</totfact>
</mgrwt>
</event>
<event>
 6    1  0.9562506E-007  0.1564280E+04  0.7818608E-02  0.8842798E-01
         -2   -1    0    0    0  501 -0.00000000000E+00  0.00000000000E+00  0.22518134621E+03  0.22518134621E+03  0.00000000000E+00 0.  1.
          2   -1    0    0  501    0  0.00000000000E+00 -0.00000000000E+00 -0.27166666352E+04  0.27166666352E+04  0.00000000000E+00 0. -1.
         23    2    1    2    0    0  0.58922118084E+03  0.50736599300E+03 -0.13503731604E+04  0.15610008715E+04  0.92812703026E+02 0.  0.
         11    1    3    3    0    0  0.25255715254E+03  0.18144610313E+03 -0.61235297584E+03  0.68679252373E+03  0.00000000000E+00 0.  1.
        -11    1    3    3    0    0  0.33666402830E+03  0.32591988987E+03 -0.73802018452E+03  0.87420834778E+03  0.00000000000E+00 0. -1.
         22    1    1    2    0    0 -0.58922118084E+03 -0.50736599300E+03 -0.11411121286E+04  0.13808471099E+04  0.00000000000E+00 0.  1.
<mgrwt>
<rscale>  0 0.15642796E+04</rscale>
<asrwt>0</asrwt>
<pdfrwt beam="1">  1        2 0.41794871E+00 0.15642796E+04</pdfrwt>
<pdfrwt beam="2">  1       -2 0.34643284E-01 0.15642796E+04</pdfrwt>
<totfact> 0.19572048E+01</totfact>
</mgrwt>
</event>
<event>
 6    1  0.9562506E-007  0.1472391E+04  0.7818608E-02  0.8903023E-01
          2   -1    0    0  501    0  0.00000000000E+00  0.00000000000E+00  0.65945863509E+03  0.65945863509E+03  0.00000000000E+00 0. -1.
         -2   -1    0    0    0  501 -0.00000000000E+00 -0.00000000000E+00 -0.82186146539E+03  0.82186146539E+03  0.00000000000E+00 0.  1.
         23    2    1    2    0    0 -0.13337379603E+03 -0.29486842909E+03 -0.74366385206E+03  0.81603795330E+03  0.90255506314E+02 0.  0.
         13    1    3    3    0    0 -0.88079153933E+02 -0.15761278228E+03 -0.51284281052E+03  0.54369796284E+03  0.00000000000E+00 0. -1.
        -13    1    3    3    0    0 -0.45294642099E+02 -0.13725564681E+03 -0.23082104154E+03  0.27233999045E+03  0.00000000000E+00 0.  1.
         22    1    1    2    0    0  0.13337379603E+03  0.29486842909E+03  0.58126102176E+03  0.66528214718E+03  0.00000000000E+00 0. -1.
<mgrwt>
<rscale>  0 0.14723908E+04</rscale>
<asrwt>0</asrwt>
<pdfrwt beam="1">  1        2 0.10145518E+00 0.14723908E+04</pdfrwt>
<pdfrwt beam="2">  1       -2 0.12644022E+00 0.14723908E+04</pdfrwt>
<totfact> 0.19913557E+01</totfact>
</mgrwt>
</event>
<event>
 6    1  0.9562506E-007  0.2354125E+04  0.7818608E-02  0.8456881E-01
         -1   -1    0    0    0  501 -0.00000000000E+00  0.00000000000E+00  0.15446814993E+04  0.15446814993E+04  0.00000000000E+00 0.  1.
          1   -1    0    0  501    0  0.00000000000E+00 -0.00000000000E+00 -0.89693343503E+03  0.89693343503E+03  0.00000000000E+00 0. -1.
         23    2    1    2    0    0 -0.18752765492E+03 -0.11377344432E+04  0.87592751616E+02  0.11596709969E+04  0.86937024739E+02 0.  0.
         11    1    3    3    0    0 -0.88867306788E+02 -0.65053222032E+03  0.88991751257E+02  0.66257761786E+03  0.00000000000E+00 0. -1.
        -11    1    3    3    0    0 -0.98660348136E+02 -0.48720222285E+03 -0.13989996407E+01  0.49709337900E+03  0.00000000000E+00 0.  1.
         22    1    1    2    0    0  0.18752765492E+03  0.11377344432E+04  0.56015531265E+03  0.12819439375E+04  0.00000000000E+00 0.  1.
<mgrwt>
<rscale>  0 0.23541253E+04</rscale>
<asrwt>0</asrwt>
<pdfrwt beam="1">  1        1 0.13798976E+00 0.23541253E+04</pdfrwt>
<pdfrwt beam="2">  1       -1 0.23764331E+00 0.23541253E+04</pdfrwt>
<totfact> 0.13834529E+00</totfact>
</mgrwt>
</event>
<event>
 6    1  0.9562506E-007  0.1103281E+04  0.7818608E-02  0.9202000E-01
          2   -1    0    0  501    0  0.00000000000E+00  0.00000000000E+00  0.11290103172E+04  0.11290103172E+04  0.00000000000E+00 0. -1.
         -2   -1    0    0    0  501 -0.00000000000E+00 -0.00000000000E+00 -0.26953443679E+03  0.26953443679E+03  0.00000000000E+00 0.  1.
         23    2    1    2    0    0 -0.44830634500E+03  0.31493412511E+03  0.39500339453E+03  0.68028521017E+03  0.81229325692E+02 0.  0.
         13    1    3    3    0    0 -0.12126898282E+03  0.11283343825E+03  0.83606553976E+02  0.18554677807E+03  0.00000000000E+00 0.  1.
        -13    1    3    3    0    0 -0.32703736218E+03  0.20210068685E+03  0.31139684056E+03  0.49473843210E+03  0.00000000000E+00 0. -1.
         22    1    1    2    0    0  0.44830634500E+03 -0.31493412511E+03  0.46447248583E+03  0.71825954377E+03  0.00000000000E+00 0.  1.
<mgrwt>
<rscale>  0 0.11032809E+04</rscale>
<asrwt>0</asrwt>
<pdfrwt beam="1">  1        2 0.17369389E+00 0.11032809E+04</pdfrwt>
<pdfrwt beam="2">  1       -2 0.41466837E-01 0.11032809E+04</pdfrwt>
<totfact> 0.11428272E+02</totfact>
</mgrwt>
</event>
<event>
 6    1  0.9562506E-007  0.1348305E+04  0.7818608E-02  0.8992112E-01
          2   -1    0    0  501    0  0.00000000000E+00  0.00000000000E+00  0.15262717714E+04  0.15262717714E+04  0.00000000000E+00 0. -1.
         -2   -1    0    0    0  501 -0.00000000000E+00 -0.00000000000E+00 -0.29777221120E+03  0.29777221120E+03  0.00000000000E+00 0.  1.
         23    2    1    2    0    0  0.54920102735E+03 -0.13497714890E+03  0.12824805263E+03  0.58695304857E+03  0.90695749898E+02 0.  0.
         11    1    3    3    0    0  0.43987167327E+03 -0.83789297586E+02  0.12983314647E+03  0.46622353143E+03  0.00000000000E+00 0.  1.
        -11    1    3    3    0    0  0.10932935408E+03 -0.51187851318E+02 -0.15850938373E+01  0.12072951714E+03  0.00000000000E+00 0. -1.
         22    1    1    2    0    0 -0.54920102735E+03  0.13497714890E+03  0.11002515075E+04  0.12370909340E+04  0.00000000000E+00 0. -1.
<mgrwt>
<rscale>  0 0.13483046E+04</rscale>
<asrwt>0</asrwt>
<pdfrwt beam="1">  1        2 0.23481104E+00 0.13483046E+04</pdfrwt>
<pdfrwt beam="2">  1       -2 0.45811110E-01 0.13483046E+04</pdfrwt>
<totfact> 0.54132731E+01</totfact>
</mgrwt>
</event>
<event>
 6    1  0.9562506E-007  0.4290637E+04  0.7818608E-02  0.7948352E-01
          1   -1    0    0  501    0  0.00000000000E+00  0.00000000000E+00  0.35860592497E+04  0.35860592497E+04  0.00000000000E+00 0. -1.
         -1   -1    0    0    0  501 -0.00000000000E+00 -0.00000000000E+00 -0.12834117368E+04  0.12834117368E+04  0.00000000000E+00 0.  1.
         23    2    1    2    0    0  0.14360184620E+04 -0.35083897216E+03 -0.61111531297E+03  0.16021707535E+04  0.90841564757E+02 0.  0.
         13    1    3    3    0    0  0.11113697001E+03 -0.29274180050E+02 -0.74815516178E+02  0.13713411385E+03  0.00000000000E+00 0.  1.
        -13    1    3    3    0    0  0.13248814920E+04 -0.32156479211E+03 -0.53629979679E+03  0.14650366396E+04  0.00000000000E+00 0. -1.
         22    1    1    2    0    0 -0.14360184620E+04  0.35083897216E+03  0.29137628259E+04  0.32673002331E+04  0.00000000000E+00 0. -1.
<mgrwt>
<rscale>  0 0.42906366E+04</rscale>
<asrwt>0</asrwt>
<pdfrwt beam="1">  1        1 0.55170142E+00 0.42906366E+04</pdfrwt>
<pdfrwt beam="2">  1       -1 0.19744796E+00 0.42906366E+04</pdfrwt>
<totfact> 0.25529372E-02</totfact>
</mgrwt>
</event>
<event>
 6    1  0.9562506E-007  0.1715190E+04  0.7818608E-02  0.8752748E-01
          2   -1    0    0  501    0  0.00000000000E+00  0.00000000000E+00  0.14434252732E+04  0.14434252732E+04  0.00000000000E+00 0. -1.
         -2   -1    0    0    0  501 -0.00000000000E+00 -0.00000000000E+00 -0.50953020971E+03  0.50953020971E+03  0.00000000000E+00 0.  1.
         23    2    1    2    0    0 -0.37898771874E+03 -0.70821626094E+03  0.80249994346E+03  0.11390349457E+04  0.90512348177E+02 0.  0.
         13    1    3    3    0    0 -0.21244777144E+03 -0.30241248925E+03  0.35792362031E+03  0.51448681929E+03  0.00000000000E+00 0. -1.
        -13    1    3    3    0    0 -0.16653994730E+03 -0.40580377169E+03  0.44457632314E+03  0.62454812646E+03  0.00000000000E+00 0.  1.
         22    1    1    2    0    0  0.37898771874E+03  0.70821626094E+03  0.13139511999E+03  0.81392053713E+03  0.00000000000E+00 0.  1.
<mgrwt>
<rscale>  0 0.17151895E+04</rscale>
<asrwt>0</asrwt>
<pdfrwt beam="1">  1        2 0.22206543E+00 0.17151895E+04</pdfrwt>
<pdfrwt beam="2">  1       -2 0.78389264E-01 0.17151895E+04</pdfrwt>
<totfact> 0.18795034E+01</totfact>
</mgrwt>
</event>
<event>
 6    1  0.9562506E-007  0.1951353E+04  0.7818608E-02  0.8629709E-01
         -2   -1    0    0    0  501 -0.00000000000E+00  0.00000000000E+00  0.62157552414E+03  0.62157552414E+03  0.00000000000E+00 0.  1.
          2   -1    0    0  501    0  0.00000000000E+00 -0.00000000000E+00 -0.15315022065E+04  0.15315022065E+04  0.00000000000E+00 0. -1.
         23    2    1    2    0    0  0.89225676469E+03 -0.38673679527E+03 -0.50343621946E+03  0.10990748941E+04  0.93968680318E+02 0.  0.
         13    1    3    3    0    0  0.25325995389E+03 -0.14786852765E+03 -0.12335331983E+03  0.31815365349E+03  0.00000000000E+00 0.  1.
        -13    1    3    3    0    0  0.63899681080E+03 -0.23886826762E+03 -0.38008289963E+03  0.78092124064E+03  0.00000000000E+00 0. -1.
         22    1    1    2    0    0 -0.89225676469E+03  0.38673679527E+03 -0.40649046289E+03  0.10540028365E+04  0.00000000000E+00 0.  1.
<mgrwt>
<rscale>  0 0.19513526E+04</rscale>
<asrwt>0</asrwt>
<pdfrwt beam="1">  1        2 0.23561572E+00 0.19513526E+04</pdfrwt>
<pdfrwt beam="2">  1       -2 0.95627004E-01 0.19513526E+04</pdfrwt>
<totfact> 0.10431060E+01</totfact>
</mgrwt>
</event>
<event>
 6    1  0.9562506E-007  0.3290668E+04  0.7818608E-02  0.8165274E-01
          1   -1    0    0  501    0  0.00000000000E+00  0.00000000000E+00  0.21509944682E+04  0.21509944682E+04  0.00000000000E+00 0. -1.
         -1   -1    0    0    0  501 -0.00000000000E+00 -0.00000000000E+00 -0.12585456140E+04  0.12585456140E+04  0.00000000000E+00 0.  1.
         23    2    1    2    0    0  0.13906611847E+04  0.60600583866E+03  0.11031288545E+04  0.18780154596E+04  0.94165755504E+02 0.  0.
         13    1    3    3    0    0  0.69936217418E+03  0.25739521528E+03  0.51857632135E+03  0.90789930531E+03  0.00000000000E+00 0.  1.
        -13    1    3    3    0    0  0.69129901057E+03  0.34861062338E+03  0.58455253312E+03  0.97011615425E+03  0.00000000000E+00 0. -1.
         22    1    1    2    0    0 -0.13906611847E+04 -0.60600583866E+03 -0.21068000027E+03  0.15315246226E+04  0.00000000000E+00 0.  1.
<mgrwt>
<rscale>  0 0.32906684E+04</rscale>
<asrwt>0</asrwt>
<pdfrwt beam="1">  1        1 0.33092223E+00 0.32906684E+04</pdfrwt>
<pdfrwt beam="2">  1       -1 0.19362240E+00 0.32906684E+04</pdfrwt>
<totfact> 0.32556724E-01</totfact>
</mgrwt>
</event>
<event>
 6    1  0.9562506E-007  0.1075911E+04  0.7818608E-02  0.9228994E-01
         -1   -1    0    0    0  501 -0.00000000000E+00  0.00000000000E+00  0.10598010053E+04  0.10598010053E+04  0.00000000000E+00 0.  1.
          1   -1    0    0  501    0  0.00000000000E+00 -0.00000000000E+00 -0.27306652708E+03  0.27306652708E+03  0.00000000000E+00 0. -1.
         23    2    1    2    0    0  0.27924140745E+03 -0.23622357846E+03  0.87841800335E+03  0.95579564082E+03  0.90276108384E+02 0.  0.
         13    1    3    3    0    0  0.18726004228E+03 -0.18964865290E+03  0.70940149891E+03  0.75781489933E+03  0.00000000000E+00 0. -1.
        -13    1    3    3    0    0  0.91981365175E+02 -0.46574925564E+02  0.16901650443E+03  0.19798074149E+03  0.00000000000E+00 0.  1.
         22    1    1    2    0    0 -0.27924140745E+03  0.23622357846E+03 -0.91683525096E+02  0.37707189159E+03  0.00000000000E+00 0. -1.
<mgrwt>
<rscale>  0 0.10759111E+04</rscale>
<asrwt>0</asrwt>
<pdfrwt beam="1">  1        1 0.42010236E-01 0.10759111E+04</pdfrwt>
<pdfrwt beam="2">  1       -1 0.16304631E+00 0.10759111E+04</pdfrwt>
<totfact> 0.27425787E+01</totfact>
</mgrwt>
</event>
<event>
 6    1  0.9562506E-007  0.8664698E+03  0.7818608E-02  0.9468495E-01
          2   -1    0    0  501    0  0.00000000000E+00  0.00000000000E+00  0.44078089827E+03  0.44078089827E+03  0.00000000000E+00 0. -1.
         -2   -1    0    0    0  501 -0.00000000000E+00 -0.00000000000E+00 -0.42581807125E+03  0.42581807125E+03  0.00000000000E+00 0.  1.
         23    2    1    2    0    0  0.20494513224E+03 -0.23800662269E+03  0.29959108761E+03  0.44273235561E+03  0.87220750139E+02 0.  0.
         13    1    3    3    0    0  0.90224297213E+02 -0.16791953424E+03  0.15925078086E+03  0.24839123372E+03  0.00000000000E+00 0. -1.
        -13    1    3    3    0    0  0.11472083502E+03 -0.70087088448E+02  0.14034030675E+03  0.19434112188E+03  0.00000000000E+00 0.  1.
         22    1    1    2    0    0 -0.20494513224E+03  0.23800662269E+03 -0.28462826059E+03  0.42386661392E+03  0.00000000000E+00 0.  1.
<mgrwt>
<rscale>  0 0.86646978E+03</rscale>
<asrwt>0</asrwt>
<pdfrwt beam="1">  1        2 0.67812447E-01 0.86646978E+03</pdfrwt>
<pdfrwt beam="2">  1       -2 0.65510472E-01 0.86646978E+03</pdfrwt>
<totfact> 0.15370359E+02</totfact>
</mgrwt>
</event>
<event>
 6    1  0.9562506E-007  0.2644549E+04  0.7818608E-02  0.8353224E-01
         -1   -1    0    0    0  501 -0.00000000000E+00  0.00000000000E+00  0.71692054955E+03  0.71692054955E+03  0.00000000000E+00 0.  1.
          1   -1    0    0  501    0  0.00000000000E+00 -0.00000000000E+00 -0.24387783019E+04  0.24387783019E+04  0.00000000000E+00 0. -1.
         23    2    1    2    0    0 -0.59704640115E+03 -0.45361505131E+03 -0.21594842140E+04  0.22875122703E+04  0.84316643341E+02 0.  0.
         13    1    3    3    0    0 -0.34735623978E+03 -0.30240365919E+03 -0.14033315207E+04  0.14769711194E+04  0.00000000000E+00 0. -1.
        -13    1    3    3    0    0 -0.24969016137E+03 -0.15121139212E+03 -0.75615269323E+03  0.81054115088E+03  0.00000000000E+00 0.  1.
         22    1    1    2    0    0  0.59704640115E+03  0.45361505131E+03  0.43762646159E+03  0.86818658120E+03  0.00000000000E+00 0.  1.
<mgrwt>
<rscale>  0 0.26445493E+04</rscale>
<asrwt>0</asrwt>
<pdfrwt beam="1">  1        1 0.37519666E+00 0.26445493E+04</pdfrwt>
<pdfrwt beam="2">  1       -1 0.11029547E+00 0.26445493E+04</pdfrwt>
<totfact> 0.99342221E-01</totfact>
</mgrwt>
</event>
<event>
 6    1  0.9562506E-007  0.1445986E+04  0.7818608E-02  0.8921188E-01
         -2   -1    0    0    0  501 -0.00000000000E+00  0.00000000000E+00  0.26985105873E+03  0.26985105873E+03  0.00000000000E+00 0.  1.
          2   -1    0    0  501    0  0.00000000000E+00 -0.00000000000E+00 -0.19370644784E+04  0.19370644784E+04  0.00000000000E+00 0. -1.
         23    2    1    2    0    0 -0.17411635125E+03 -0.21423840010E+03 -0.18520108766E+04  0.18747037132E+04  0.91406397330E+02 0.  0.
         13    1    3    3    0    0 -0.37849432317E+01 -0.37626187660E+02 -0.43182289736E+03  0.43347557080E+03  0.00000000000E+00 0. -1.
        -13    1    3    3    0    0 -0.17033140802E+03 -0.17661221244E+03 -0.14201879792E+04  0.14412281424E+04  0.00000000000E+00 0.  1.
         22    1    1    2    0    0  0.17411635125E+03  0.21423840010E+03  0.18479745694E+03  0.33221182390E+03  0.00000000000E+00 0.  1.
<mgrwt>
<rscale>  0 0.14459860E+04</rscale>
<asrwt>0</asrwt>
<pdfrwt beam="1">  1        2 0.29800993E+00 0.14459860E+04</pdfrwt>
<pdfrwt beam="2">  1       -2 0.41515546E-01 0.14459860E+04</pdfrwt>
<totfact> 0.38629398E+01</totfact>
</mgrwt>
</event>
<event>
 6    1  0.9562506E-007  0.5481970E+04  0.7818608E-02  0.7758175E-01
         -1   -1    0    0    0  501 -0.00000000000E+00  0.00000000000E+00  0.21057085522E+04  0.21057085522E+04  0.00000000000E+00 0.  1.
          1   -1    0    0  501    0  0.00000000000E+00 -0.00000000000E+00 -0.35679194904E+04  0.35679194904E+04  0.00000000000E+00 0. -1.
         23    2    1    2    0    0 -0.13793195327E+03  0.13830756247E+04  0.17127286487E+04  0.22077710363E+04  0.94287417650E+02 0.  0.
         13    1    3    3    0    0 -0.97847620916E+02  0.11014150949E+04  0.13028492015E+04  0.17088315920E+04  0.00000000000E+00 0. -1.
        -13    1    3    3    0    0 -0.40084332350E+02  0.28166052987E+03  0.40987944720E+03  0.49893944424E+03  0.00000000000E+00 0.  1.
         22    1    1    2    0    0  0.13793195327E+03 -0.13830756247E+04 -0.31749395870E+04  0.34658570063E+04  0.00000000000E+00 0. -1.
<mgrwt>
<rscale>  0 0.54819699E+04</rscale>
<asrwt>0</asrwt>
<pdfrwt beam="1">  1        1 0.54891068E+00 0.54819699E+04</pdfrwt>
<pdfrwt beam="2">  1       -1 0.32395517E+00 0.54819699E+04</pdfrwt>
<totfact> 0.35334518E-03</totfact>
</mgrwt>
</event>
<event>
 6    1  0.9562506E-007  0.2866639E+04  0.7818608E-02  0.8282873E-01
          2   -1    0    0  501    0  0.00000000000E+00  0.00000000000E+00  0.10980311227E+04  0.10980311227E+04  0.00000000000E+00 0. -1.
         -2   -1    0    0    0  501 -0.00000000000E+00 -0.00000000000E+00 -0.18709897105E+04  0.18709897105E+04  0.00000000000E+00 0.  1.
         23    2    1    2    0    0 -0.18094122980E+03  0.67519955815E+03 -0.16811462932E+04  0.18229671346E+04  0.91225780560E+02 0.  0.
         11    1    3    3    0    0 -0.12618919776E+03  0.30511348909E+03 -0.82754057660E+03  0.89097775549E+03  0.00000000000E+00 0. -1.
        -11    1    3    3    0    0 -0.54752032038E+02  0.37008606906E+03 -0.85360571656E+03  0.93198937916E+03  0.00000000000E+00 0.  1.
         22    1    1    2    0    0  0.18094122980E+03 -0.67519955815E+03  0.90818770529E+03  0.11460536986E+04  0.00000000000E+00 0. -1.
<mgrwt>
<rscale>  0 0.28666391E+04</rscale>
<asrwt>0</asrwt>
<pdfrwt beam="1">  1        2 0.16892787E+00 0.28666391E+04</pdfrwt>
<pdfrwt beam="2">  1       -2 0.28784457E+00 0.28666391E+04</pdfrwt>
<totfact> 0.71308467E-01</totfact>
</mgrwt>
</event>
<event>
 6    1  0.9562506E-007  0.3011261E+04  0.7818608E-02  0.8240523E-01
         -3   -1    0    0    0  501 -0.00000000000E+00  0.00000000000E+00  0.95936786193E+03  0.95936786193E+03  0.00000000000E+00 0.  1.
          3   -1    0    0  501    0  0.00000000000E+00 -0.00000000000E+00 -0.23629335295E+04  0.23629335295E+04  0.00000000000E+00 0. -1.
         23    2    1    2    0    0  0.40955146685E+03 -0.13180141236E+04 -0.13625104120E+04  0.19415120636E+04  0.90226582776E+02 0.  0.
         11    1    3    3    0    0  0.29068500610E+03 -0.93149227291E+03 -0.90445676096E+03  0.13304952686E+04  0.00000000000E+00 0.  1.
        -11    1    3    3    0    0  0.11886646074E+03 -0.38652185067E+03 -0.45805365103E+03  0.61101679499E+03  0.00000000000E+00 0. -1.
         22    1    1    2    0    0 -0.40955146685E+03  0.13180141236E+04 -0.41055255599E+02  0.13807893279E+04  0.00000000000E+00 0. -1.
<mgrwt>
<rscale>  0 0.30112605E+04</rscale>
<asrwt>0</asrwt>
<pdfrwt beam="1">  1        3 0.36352823E+00 0.30112605E+04</pdfrwt>
<pdfrwt beam="2">  1       -3 0.14759506E+00 0.30112605E+04</pdfrwt>
<totfact> 0.13011760E-02</totfact>
</mgrwt>
</event>
<event>
 6    1  0.9562506E-007  0.9048867E+03  0.7818608E-02  0.9419493E-01
         -1   -1    0    0    0  501 -0.00000000000E+00  0.00000000000E+00  0.20466682373E+03  0.20466682373E+03  0.00000000000E+00 0.  1.
          1   -1    0    0  501    0  0.00000000000E+00 -0.00000000000E+00 -0.10001863455E+04  0.10001863455E+04  0.00000000000E+00 0. -1.
         23    2    1    2    0    0  0.28128515515E+03 -0.22400897524E+03 -0.75717640684E+03  0.84322967175E+03  0.91754066668E+02 0.  0.
         11    1    3    3    0    0  0.32825479906E+02 -0.54232029058E+01 -0.32220801994E+02  0.46315260358E+02  0.00000000000E+00 0. -1.
        -11    1    3    3    0    0  0.24845967525E+03 -0.21858577234E+03 -0.72495560485E+03  0.79691441140E+03  0.00000000000E+00 0.  1.
         22    1    1    2    0    0 -0.28128515515E+03  0.22400897524E+03 -0.38343114973E+02  0.36162349753E+03  0.00000000000E+00 0.  1.
<mgrwt>
<rscale>  0 0.90488665E+03</rscale>
<asrwt>0</asrwt>
<pdfrwt beam="1">  1        1 0.15387482E+00 0.90488665E+03</pdfrwt>
<pdfrwt beam="2">  1       -1 0.31487204E-01 0.90488665E+03</pdfrwt>
<totfact> 0.14257378E+02</totfact>
</mgrwt>
</event>
<event>
 6    1  0.9562506E-007  0.4516360E+04  0.7818608E-02  0.7907779E-01
          2   -1    0    0  501    0  0.00000000000E+00  0.00000000000E+00  0.27736797250E+04  0.27736797250E+04  0.00000000000E+00 0. -1.
         -2   -1    0    0    0  501 -0.00000000000E+00 -0.00000000000E+00 -0.18384876784E+04  0.18384876784E+04  0.00000000000E+00 0.  1.
         23    2    1    2    0    0  0.74879235984E+02 -0.21572783468E+04  0.11415423883E+04  0.24437492637E+04  0.96616114873E+02 0.  0.
         13    1    3    3    0    0  0.20557228363E+02 -0.13178244864E+04  0.74167168775E+03  0.15123362288E+04  0.00000000000E+00 0. -1.
        -13    1    3    3    0    0  0.54322007621E+02 -0.83945386046E+03  0.39987070057E+03  0.93141303487E+03  0.00000000000E+00 0.  1.
         22    1    1    2    0    0 -0.74879235984E+02  0.21572783468E+04 -0.20635034173E+03  0.21684181398E+04  0.00000000000E+00 0.  1.
<mgrwt>
<rscale>  0 0.45163596E+04</rscale>
<asrwt>0</asrwt>
<pdfrwt beam="1">  1        2 0.42671996E+00 0.45163596E+04</pdfrwt>
<pdfrwt beam="2">  1       -2 0.28284426E+00 0.45163596E+04</pdfrwt>
<totfact> 0.73431152E-02</totfact>
</mgrwt>
</event>
<event>
 6    1  0.9562506E-007  0.1370398E+04  0.7818608E-02  0.8975529E-01
         -1   -1    0    0    0  501 -0.00000000000E+00  0.00000000000E+00  0.11972332176E+03  0.11972332176E+03  0.00000000000E+00 0.  1.
          1   -1    0    0  501    0  0.00000000000E+00 -0.00000000000E+00 -0.39215196279E+04  0.39215196279E+04  0.00000000000E+00 0. -1.
         23    2    1    2    0    0  0.54462688213E+03  0.12571858229E+03 -0.30625119131E+04  0.31144392938E+04  0.91264968215E+02 0.  0.
         13    1    3    3    0    0  0.70944767145E+02 -0.13349911860E+02 -0.34958057617E+03  0.35695652308E+03  0.00000000000E+00 0. -1.
        -13    1    3    3    0    0  0.47368211498E+03  0.13906849415E+03 -0.27129313369E+04  0.27574827707E+04  0.00000000000E+00 0.  1.
         22    1    1    2    0    0 -0.54462688213E+03 -0.12571858229E+03 -0.73928439307E+03  0.92680365585E+03  0.00000000000E+00 0.  1.
<mgrwt>
<rscale>  0 0.13703975E+04</rscale>
<asrwt>0</asrwt>
<pdfrwt beam="1">  1        1 0.60331077E+00 0.13703975E+04</pdfrwt>
<pdfrwt beam="2">  1       -1 0.18418971E-01 0.13703975E+04</pdfrwt>
<totfact> 0.26367617E+00</totfact>
</mgrwt>
</event>
<event>
 6    1  0.9562506E-007  0.2491960E+04  0.7818608E-02  0.8405856E-01
          1   -1    0    0  501    0  0.00000000000E+00  0.00000000000E+00  0.21973917042E+04  0.21973917042E+04  0.00000000000E+00 0. -1.
         -1   -1    0    0    0  501 -0.00000000000E+00 -0.00000000000E+00 -0.70650391390E+03  0.70650391390E+03  0.00000000000E+00 0.  1.
         23    2    1    2    0    0  0.69346510673E+03 -0.61904142051E+03 -0.21726817741E+03  0.95918408561E+03  0.93394403597E+02 0.  0.
         13    1    3    3    0    0  0.26974350459E+03 -0.24541346938E+03 -0.13216087310E+03  0.38788635655E+03  0.00000000000E+00 0.  1.
        -13    1    3    3    0    0  0.42372160214E+03 -0.37362795112E+03 -0.85107304318E+02  0.57129772906E+03  0.00000000000E+00 0. -1.
         22    1    1    2    0    0 -0.69346510673E+03  0.61904142051E+03  0.17081559677E+04  0.19447115325E+04  0.00000000000E+00 0. -1.
<mgrwt>
<rscale>  0 0.24919597E+04</rscale>
<asrwt>0</asrwt>
<pdfrwt beam="1">  1        1 0.33806026E+00 0.24919597E+04</pdfrwt>
<pdfrwt beam="2">  1       -1 0.10869291E+00 0.24919597E+04</pdfrwt>
<totfact> 0.15262912E+00</totfact>
</mgrwt>
</event>
<event>
 6    1  0.1125835E-006  0.2285920E+04  0.7818608E-02  0.8483493E-01
         -1   -1    0    0    0  501 -0.00000000000E+00  0.00000000000E+00  0.97479833362E+03  0.97479833362E+03  0.00000000000E+00 0.  1.
          1   -1    0    0  501    0  0.00000000000E+00 -0.00000000000E+00 -0.13401311813E+04  0.13401311813E+04  0.00000000000E+00 0. -1.
         23    2    1    2    0    0 -0.19498517299E+03 -0.28113170352E+03 -0.12854133393E+04  0.13332970156E+04  0.91319365424E+02 0.  0.
         11    1    3    3    0    0 -0.14814758830E+03 -0.15375685651E+03 -0.67436604435E+03  0.70736019157E+03  0.00000000000E+00 0.  1.
        -11    1    3    3    0    0 -0.46837584681E+02 -0.12737484701E+03 -0.61104729498E+03  0.62593682404E+03  0.00000000000E+00 0. -1.
         22    1    1    2    0    0  0.19498517299E+03  0.28113170352E+03  0.92008049170E+03  0.98163249927E+03  0.00000000000E+00 0.  1.
<mgrwt>
<rscale>  0 0.22859201E+04</rscale>
<asrwt>0</asrwt>
<pdfrwt beam="1">  1        1 0.20617403E+00 0.22859201E+04</pdfrwt>
<pdfrwt beam="2">  1       -1 0.14996898E+00 0.22859201E+04</pdfrwt>
<totfact> 0.26757313E+00</totfact>
</mgrwt>
</event>
<event>
 6    1  0.9562506E-007  0.3127524E+04  0.7818608E-02  0.8208225E-01
         -2   -1    0    0    0  501 -0.00000000000E+00  0.00000000000E+00  0.11078695341E+04  0.11078695341E+04  0.00000000000E+00 0.  1.
          2   -1    0    0  501    0  0.00000000000E+00 -0.00000000000E+00 -0.22072553801E+04  0.22072553801E+04  0.00000000000E+00 0. -1.
         23    2    1    2    0    0  0.11892094239E+02  0.15067741502E+04 -0.11199900573E+03  0.15136137335E+04  0.89291630308E+02 0.  0.
         11    1    3    3    0    0 -0.26460842468E+02  0.10833901292E+04 -0.60694404805E+02  0.10854115160E+04  0.00000000000E+00 0. -1.
        -11    1    3    3    0    0  0.38352936707E+02  0.42338402103E+03 -0.51304600922E+02  0.42820221753E+03  0.00000000000E+00 0.  1.
         22    1    1    2    0    0 -0.11892094239E+02 -0.15067741502E+04 -0.98738684034E+03  0.18015111807E+04  0.00000000000E+00 0. -1.
<mgrwt>
<rscale>  0 0.31275236E+04</rscale>
<asrwt>0</asrwt>
<pdfrwt beam="1">  1        2 0.33957775E+00 0.31275236E+04</pdfrwt>
<pdfrwt beam="2">  1       -2 0.17044147E+00 0.31275236E+04</pdfrwt>
<totfact> 0.91690739E-01</totfact>
</mgrwt>
</event>
<event>
 6    1  0.9562506E-007  0.4510982E+04  0.7818608E-02  0.7908717E-01
         -2   -1    0    0    0  501 -0.00000000000E+00  0.00000000000E+00  0.22482519824E+04  0.22482519824E+04  0.00000000000E+00 0.  1.
          2   -1    0    0  501    0  0.00000000000E+00 -0.00000000000E+00 -0.22627530513E+04  0.22627530513E+04  0.00000000000E+00 0. -1.
         23    2    1    2    0    0  0.10721288588E+04 -0.16089687318E+04 -0.11671523475E+04  0.22600395430E+04  0.85401779498E+02 0.  0.
         13    1    3    3    0    0  0.32648862957E+03 -0.53153487630E+03 -0.41477551203E+03  0.74910805318E+03  0.00000000000E+00 0.  1.
        -13    1    3    3    0    0  0.74564022926E+03 -0.10774338555E+04 -0.75237683550E+03  0.15109314899E+04  0.00000000000E+00 0. -1.
         22    1    1    2    0    0 -0.10721288588E+04  0.16089687318E+04  0.11526512786E+04  0.22509654906E+04  0.00000000000E+00 0.  1.
<mgrwt>
<rscale>  0 0.45109817E+04</rscale>
<asrwt>0</asrwt>
<pdfrwt beam="1">  1        2 0.34811585E+00 0.45109817E+04</pdfrwt>
<pdfrwt beam="2">  1       -2 0.34588492E+00 0.45109817E+04</pdfrwt>
<totfact> 0.59503790E-02</totfact>
</mgrwt>
</event>
<event>
 6    1  0.9562506E-007  0.1610764E+04  0.7818608E-02  0.8813962E-01
         -2   -1    0    0    0  501 -0.00000000000E+00  0.00000000000E+00  0.61833521991E+03  0.61833521991E+03  0.00000000000E+00 0.  1.
          2   -1    0    0  501    0  0.00000000000E+00 -0.00000000000E+00 -0.10490109251E+04  0.10490109251E+04  0.00000000000E+00 0. -1.
         23    2    1    2    0    0 -0.33791747924E+03 -0.55443893060E+03  0.27183459192E+03  0.71073155799E+03  0.98257577908E+02 0.  0.
         13    1    3    3    0    0 -0.30405712328E+03 -0.53107427877E+03  0.23504913272E+03  0.65554459694E+03  0.00000000000E+00 0. -1.
        -13    1    3    3    0    0 -0.33860355962E+02 -0.23364651827E+02  0.36785459199E+02  0.55186961045E+02  0.00000000000E+00 0.  1.
         22    1    1    2    0    0  0.33791747924E+03  0.55443893060E+03 -0.70251029707E+03  0.95661458699E+03  0.00000000000E+00 0. -1.
<mgrwt>
<rscale>  0 0.16107643E+04</rscale>
<asrwt>0</asrwt>
<pdfrwt beam="1">  1        2 0.16138629E+00 0.16107643E+04</pdfrwt>
<pdfrwt beam="2">  1       -2 0.95128497E-01 0.16107643E+04</pdfrwt>
<totfact> 0.20871753E+01</totfact>
</mgrwt>
</event>
<event>
 6    1  0.9562506E-007  0.2638398E+04  0.7818608E-02  0.8355274E-01
         -1   -1    0    0    0  501 -0.00000000000E+00  0.00000000000E+00  0.13304364492E+04  0.13304364492E+04  0.00000000000E+00 0.  1.
          1   -1    0    0  501    0  0.00000000000E+00 -0.00000000000E+00 -0.13080565956E+04  0.13080565956E+04  0.00000000000E+00 0. -1.
         23    2    1    2    0    0 -0.54335241700E+03  0.10113374725E+04  0.65784456405E+03  0.13262999453E+04  0.90976601653E+02 0.  0.
         11    1    3    3    0    0 -0.23313772991E+03  0.42632509958E+03  0.33033853176E+03  0.58756262407E+03  0.00000000000E+00 0. -1.
        -11    1    3    3    0    0 -0.31021468709E+03  0.58501237292E+03  0.32750603229E+03  0.73873732121E+03  0.00000000000E+00 0.  1.
         22    1    1    2    0    0  0.54335241700E+03 -0.10113374725E+04 -0.63546471043E+03  0.13121930996E+04  0.00000000000E+00 0. -1.
<mgrwt>
<rscale>  0 0.26383981E+04</rscale>
<asrwt>0</asrwt>
<pdfrwt beam="1">  1        1 0.20123948E+00 0.26383981E+04</pdfrwt>
<pdfrwt beam="2">  1       -1 0.20468253E+00 0.26383981E+04</pdfrwt>
<totfact> 0.10950846E+00</totfact>
</mgrwt>
</event>
<event>
 6    1  0.1072325E-006  0.3035460E+04  0.7818608E-02  0.8233677E-01
          2   -1    0    0  501    0  0.00000000000E+00  0.00000000000E+00  0.17305340256E+04  0.17305340256E+04  0.00000000000E+00 0. -1.
         -2   -1    0    0    0  501 -0.00000000000E+00 -0.00000000000E+00 -0.13310944000E+04  0.13310944000E+04  0.00000000000E+00 0.  1.
         23    2    1    2    0    0 -0.12976134974E+04  0.53343051937E+01 -0.59233617115E+03  0.14283959024E+04  0.74989805498E+02 0.  0.
         11    1    3    3    0    0 -0.22781682863E+03 -0.27620889544E+02 -0.10490054553E+03  0.25232428618E+03  0.00000000000E+00 0.  1.
        -11    1    3    3    0    0 -0.10697966688E+04  0.32955194738E+02 -0.48743562562E+03  0.11760716163E+04  0.00000000000E+00 0. -1.
         22    1    1    2    0    0  0.12976134974E+04 -0.53343051937E+01  0.99177579672E+03  0.16332325231E+04  0.00000000000E+00 0.  1.
<mgrwt>
<rscale>  0 0.30354599E+04</rscale>
<asrwt>0</asrwt>
<pdfrwt beam="1">  1        2 0.26623600E+00 0.30354599E+04</pdfrwt>
<pdfrwt beam="2">  1       -2 0.20478375E+00 0.30354599E+04</pdfrwt>
<totfact> 0.99629610E-01</totfact>
</mgrwt>
</event>
<event>
 6    1  0.9562506E-007  0.2152472E+04  0.7818608E-02  0.8538475E-01
          1   -1    0    0  501    0  0.00000000000E+00  0.00000000000E+00  0.57215732705E+03  0.57215732705E+03  0.00000000000E+00 0. -1.
         -1   -1    0    0    0  501 -0.00000000000E+00 -0.00000000000E+00 -0.20244149632E+04  0.20244149632E+04  0.00000000000E+00 0.  1.
         23    2    1    2    0    0  0.74352998187E+03  0.19614368521E+03  0.17769666605E+03  0.79433473475E+03  0.89902094111E+02 0.  0.
         13    1    3    3    0    0  0.41848427146E+03  0.11111054756E+03  0.54153798599E+02  0.43635681860E+03  0.00000000000E+00 0. -1.
        -13    1    3    3    0    0  0.32504571041E+03  0.85033137649E+02  0.12354286745E+03  0.35797791615E+03  0.00000000000E+00 0.  1.
         22    1    1    2    0    0 -0.74352998187E+03 -0.19614368521E+03 -0.16299543022E+04  0.18022375555E+04  0.00000000000E+00 0.  1.
<mgrwt>
<rscale>  0 0.21524719E+04</rscale>
<asrwt>0</asrwt>
<pdfrwt beam="1">  1        1 0.88024203E-01 0.21524719E+04</pdfrwt>
<pdfrwt beam="2">  1       -1 0.31144846E+00 0.21524719E+04</pdfrwt>
<totfact> 0.93475832E-01</totfact>
</mgrwt>
</event>
<event>
 6    1  0.9562506E-007  0.2496943E+04  0.7818608E-02  0.8404075E-01
          2   -1    0    0  501    0  0.00000000000E+00  0.00000000000E+00  0.40216837963E+04  0.40216837963E+04  0.00000000000E+00 0. -1.
         -2   -1    0    0    0  501 -0.00000000000E+00 -0.00000000000E+00 -0.38756922001E+03  0.38756922001E+03  0.00000000000E+00 0.  1.
         23    2    1    2    0    0  0.52594352516E+03  0.56135720117E+03  0.87659641228E+02  0.78033015885E+03  0.97429180100E+02 0.  0.
         11    1    3    3    0    0  0.43605629922E+03  0.46448909665E+03  0.34947708035E+02  0.63805686212E+03  0.00000000000E+00 0. -1.
        -11    1    3    3    0    0  0.89887225941E+02  0.96868104525E+02  0.52711933192E+02  0.14227329673E+03  0.00000000000E+00 0.  1.
         22    1    1    2    0    0 -0.52594352516E+03 -0.56135720117E+03  0.35464549351E+04  0.36289228575E+04  0.00000000000E+00 0. -1.
<mgrwt>
<rscale>  0 0.24969428E+04</rscale>
<asrwt>0</asrwt>
<pdfrwt beam="1">  1        2 0.61872055E+00 0.24969428E+04</pdfrwt>
<pdfrwt beam="2">  1       -2 0.59626037E-01 0.24969428E+04</pdfrwt>
<totfact> 0.77189589E-01</totfact>
</mgrwt>
</event>
<event>
 6    1  0.9562506E-007  0.4268600E+04  0.7818608E-02  0.7952450E-01
         -2   -1    0    0    0  501 -0.00000000000E+00  0.00000000000E+00  0.20228119792E+04  0.20228119792E+04  0.00000000000E+00 0.  1.
          2   -1    0    0  501    0  0.00000000000E+00 -0.00000000000E+00 -0.22519323429E+04  0.22519323429E+04  0.00000000000E+00 0. -1.
         23    2    1    2    0    0 -0.11957655563E+04  0.17499901912E+04  0.12794107935E+03  0.21253691085E+04  0.92217096116E+02 0.  0.
         11    1    3    3    0    0 -0.89909729743E+03  0.13031002250E+04  0.55976250732E+02  0.15841652336E+04  0.00000000000E+00 0.  1.
        -11    1    3    3    0    0 -0.29666825885E+03  0.44688996616E+03  0.71964828615E+02  0.54120387491E+03  0.00000000000E+00 0. -1.
         22    1    1    2    0    0  0.11957655563E+04 -0.17499901912E+04 -0.35706144303E+03  0.21493752136E+04  0.00000000000E+00 0. -1.
<mgrwt>
<rscale>  0 0.42685996E+04</rscale>
<asrwt>0</asrwt>
<pdfrwt beam="1">  1        2 0.34645113E+00 0.42685996E+04</pdfrwt>
<pdfrwt beam="2">  1       -2 0.31120184E+00 0.42685996E+04</pdfrwt>
<totfact> 0.10109536E-01</totfact>
</mgrwt>
</event>
<event>
 6    1  0.9562506E-007  0.3176601E+04  0.7818608E-02  0.8195024E-01
         -2   -1    0    0    0  501 -0.00000000000E+00  0.00000000000E+00  0.10979562110E+04  0.10979562110E+04  0.00000000000E+00 0.  1.
          2   -1    0    0  501    0  0.00000000000E+00 -0.00000000000E+00 -0.22976308218E+04  0.22976308218E+04  0.00000000000E+00 0. -1.
         23    2    1    2    0    0  0.50567501845E+03 -0.14229093913E+04 -0.11220470026E+04  0.18835009223E+04  0.90597395190E+02 0.  0.
         13    1    3    3    0    0  0.46529896692E+03 -0.13555801692E+04 -0.10471725205E+04  0.17750129609E+04  0.00000000000E+00 0. -1.
        -13    1    3    3    0    0  0.40376051536E+02 -0.67329222065E+02 -0.74874482157E+02  0.10848796136E+03  0.00000000000E+00 0.  1.
         22    1    1    2    0    0 -0.50567501845E+03  0.14229093913E+04 -0.77627608164E+02  0.15120861105E+04  0.00000000000E+00 0.  1.
<mgrwt>
<rscale>  0 0.31766007E+04</rscale>
<asrwt>0</asrwt>
<pdfrwt beam="1">  1        2 0.35348166E+00 0.31766007E+04</pdfrwt>
<pdfrwt beam="2">  1       -2 0.16891634E+00 0.31766007E+04</pdfrwt>
<totfact> 0.83239325E-01</totfact>
</mgrwt>
</event>
<event>
 6    1  0.9562506E-007  0.1419072E+04  0.7818608E-02  0.8940127E-01
         -2   -1    0    0    0  501 -0.00000000000E+00  0.00000000000E+00  0.33902510265E+03  0.33902510265E+03  0.00000000000E+00 0.  1.
          2   -1    0    0  501    0  0.00000000000E+00 -0.00000000000E+00 -0.14849686853E+04  0.14849686853E+04  0.00000000000E+00 0. -1.
         23    2    1    2    0    0 -0.13929704123E+03  0.68425231731E+03 -0.43677646784E+03  0.82874362032E+03  0.91855353250E+02 0.  0.
         13    1    3    3    0    0 -0.89432288007E+02  0.22764542560E+03 -0.13856412307E+03  0.28110601228E+03  0.00000000000E+00 0. -1.
        -13    1    3    3    0    0 -0.49864753221E+02  0.45660689170E+03 -0.29821234477E+03  0.54763760804E+03  0.00000000000E+00 0.  1.
         22    1    1    2    0    0  0.13929704123E+03 -0.68425231731E+03 -0.70916711479E+03  0.99525016762E+03  0.00000000000E+00 0. -1.
<mgrwt>
<rscale>  0 0.14190725E+04</rscale>
<asrwt>0</asrwt>
<pdfrwt beam="1">  1        2 0.22845672E+00 0.14190725E+04</pdfrwt>
<pdfrwt beam="2">  1       -2 0.52157708E-01 0.14190725E+04</pdfrwt>
<totfact> 0.43651235E+01</totfact>
</mgrwt>
</event>
<event>
 6    1  0.9562506E-007  0.1113277E+04  0.7818608E-02  0.9192347E-01
          1   -1    0    0  501    0  0.00000000000E+00  0.00000000000E+00  0.14000663865E+04  0.14000663865E+04  0.00000000000E+00 0. -1.
         -1   -1    0    0    0  501 -0.00000000000E+00 -0.00000000000E+00 -0.22130822903E+03  0.22130822903E+03  0.00000000000E+00 0.  1.
         23    2    1    2    0    0  0.12535573822E+02  0.55261816908E+03  0.60890334328E+03  0.82747380897E+03  0.91682286553E+02 0.  0.
         13    1    3    3    0    0 -0.92231350531E+01  0.14533268508E+03  0.10681899455E+03  0.18060164222E+03  0.00000000000E+00 0.  1.
        -13    1    3    3    0    0  0.21758708875E+02  0.40728548399E+03  0.50208434873E+03  0.64687216676E+03  0.00000000000E+00 0. -1.
         22    1    1    2    0    0 -0.12535573822E+02 -0.55261816908E+03  0.56985481419E+03  0.79390080656E+03  0.00000000000E+00 0.  1.
<mgrwt>
<rscale>  0 0.11132766E+04</rscale>
<asrwt>0</asrwt>
<pdfrwt beam="1">  1        1 0.21539482E+00 0.11132766E+04</pdfrwt>
<pdfrwt beam="2">  1       -1 0.34047421E-01 0.11132766E+04</pdfrwt>
<totfact> 0.62326418E+01</totfact>
</mgrwt>
</event>
<event>
 6    1  0.9562506E-007  0.1943995E+04  0.7818608E-02  0.8633262E-01
          1   -1    0    0  501    0  0.00000000000E+00  0.00000000000E+00  0.19121661098E+04  0.19121661098E+04  0.00000000000E+00 0. -1.
         -1   -1    0    0    0  501 -0.00000000000E+00 -0.00000000000E+00 -0.49408837423E+03  0.49408837423E+03  0.00000000000E+00 0.  1.
         23    2    1    2    0    0 -0.54178046036E+03  0.63294324349E+03  0.97790102352E+02  0.84506818793E+03  0.10214754733E+03 0.  0.
         11    1    3    3    0    0 -0.94659688324E+02  0.17420347202E+03  0.10295941996E+02  0.19852786373E+03  0.00000000000E+00 0. -1.
        -11    1    3    3    0    0 -0.44712077204E+03  0.45873977147E+03  0.87494160356E+02  0.64654032420E+03  0.00000000000E+00 0.  1.
         22    1    1    2    0    0  0.54178046036E+03 -0.63294324349E+03  0.13202876332E+04  0.15611862961E+04  0.00000000000E+00 0. -1.
<mgrwt>
<rscale>  0 0.19439949E+04</rscale>
<asrwt>0</asrwt>
<pdfrwt beam="1">  1        1 0.29417940E+00 0.19439949E+04</pdfrwt>
<pdfrwt beam="2">  1       -1 0.76013597E-01 0.19439949E+04</pdfrwt>
<totfact> 0.55383156E+00</totfact>
</mgrwt>
</event>
<event>
 6    1  0.9562506E-007  0.1270939E+04  0.7818608E-02  0.9052934E-01
          1   -1    0    0  501    0  0.00000000000E+00  0.00000000000E+00  0.16057100485E+04  0.16057100485E+04  0.00000000000E+00 0. -1.
         -1   -1    0    0    0  501 -0.00000000000E+00 -0.00000000000E+00 -0.25149073950E+03  0.25149073950E+03  0.00000000000E+00 0.  1.
         23    2    1    2    0    0  0.49623882382E+03 -0.12768625154E+02  0.10892092384E+03  0.51660984512E+03  0.92768293973E+02 0.  0.
         13    1    3    3    0    0  0.21685559472E+03  0.40391119497E+02  0.45531508273E+02  0.22523523201E+03  0.00000000000E+00 0. -1.
        -13    1    3    3    0    0  0.27938322910E+03 -0.53159744651E+02  0.63389415566E+02  0.29137461311E+03  0.00000000000E+00 0.  1.
         22    1    1    2    0    0 -0.49623882382E+03  0.12768625154E+02  0.12452983851E+04  0.13405909429E+04  0.00000000000E+00 0. -1.
<mgrwt>
<rscale>  0 0.12709386E+04</rscale>
<asrwt>0</asrwt>
<pdfrwt beam="1">  1        1 0.24703231E+00 0.12709386E+04</pdfrwt>
<pdfrwt beam="2">  1       -1 0.38690884E-01 0.12709386E+04</pdfrwt>
<totfact> 0.35244565E+01</totfact>
</mgrwt>
</event>
<event>
 6    1  0.9562506E-007  0.2248587E+04  0.7818608E-02  0.8498473E-01
         -3   -1    0    0    0  501 -0.00000000000E+00  0.00000000000E+00  0.83321862106E+03  0.83321862106E+03  0.00000000000E+00 0.  1.
          3   -1    0    0  501    0  0.00000000000E+00 -0.00000000000E+00 -0.15170514467E+04  0.15170514467E+04  0.00000000000E+00 0. -1.
         23    2    1    2    0    0  0.67396135459E+03  0.88599260463E+03 -0.49303311688E+03  0.12208404188E+04  0.90348608247E+02 0.  0.
         11    1    3    3    0    0  0.24588010259E+03  0.39670587416E+03 -0.20319928330E+03  0.50904078833E+03  0.00000000000E+00 0.  1.
        -11    1    3    3    0    0  0.42808125200E+03  0.48928673047E+03 -0.28983383358E+03  0.71179963052E+03  0.00000000000E+00 0. -1.
         22    1    1    2    0    0 -0.67396135459E+03 -0.88599260463E+03 -0.19079970872E+03  0.11294296489E+04  0.00000000000E+00 0. -1.
<mgrwt>
<rscale>  0 0.22485867E+04</rscale>
<asrwt>0</asrwt>
<pdfrwt beam="1">  1        3 0.23339253E+00 0.22485867E+04</pdfrwt>
<pdfrwt beam="2">  1       -3 0.12818748E+00 0.22485867E+04</pdfrwt>
<totfact> 0.10534939E-01</totfact>
</mgrwt>
</event>
<event>
 6    1  0.9562506E-007  0.6006554E+03  0.7818608E-02  0.9904047E-01
         -1   -1    0    0    0  501 -0.00000000000E+00  0.00000000000E+00  0.14835671977E+03  0.14835671977E+03  0.00000000000E+00 0.  1.
          1   -1    0    0  501    0  0.00000000000E+00 -0.00000000000E+00 -0.60797193498E+03  0.60797193498E+03  0.00000000000E+00 0. -1.
         23    2    1    2    0    0 -0.82501455405E+02  0.96147307685E+02  0.10061574679E+03  0.18195114326E+03  0.83258003299E+02 0.  0.
         11    1    3    3    0    0 -0.41237910562E+01  0.68088708618E+02  0.41457502475E+02  0.79823570488E+02  0.00000000000E+00 0. -1.
        -11    1    3    3    0    0 -0.78377664349E+02  0.28058599067E+02  0.59158244313E+02  0.10212757277E+03  0.00000000000E+00 0.  1.
         22    1    1    2    0    0  0.82501455405E+02 -0.96147307685E+02 -0.56023096199E+03  0.57437751148E+03  0.00000000000E+00 0. -1.
<mgrwt>
<rscale>  0 0.60065538E+03</rscale>
<asrwt>0</asrwt>
<pdfrwt beam="1">  1        1 0.93534146E-01 0.60065538E+03</pdfrwt>
<pdfrwt beam="2">  1       -1 0.22824110E-01 0.60065538E+03</pdfrwt>
<totfact> 0.55520315E+02</totfact>
</mgrwt>
</event>
<event>
 6    1  0.9562506E-007  0.1087342E+04  0.7818608E-02  0.9217617E-01
         -1   -1    0    0    0  501 -0.00000000000E+00  0.00000000000E+00  0.61498850538E+03  0.61498850538E+03  0.00000000000E+00 0.  1.
          1   -1    0    0  501    0  0.00000000000E+00 -0.00000000000E+00 -0.48062412840E+03  0.48062412840E+03  0.00000000000E+00 0. -1.
         23    2    1    2    0    0 -0.17505496654E+03  0.17472289961E+03 -0.41593627075E+03  0.49228590982E+03  0.90388620544E+02 0.  0.
         13    1    3    3    0    0 -0.15064450807E+03  0.90720755822E+02 -0.27746881003E+03  0.32850108659E+03  0.00000000000E+00 0. -1.
        -13    1    3    3    0    0 -0.24410458466E+02  0.84002143784E+02 -0.13846746071E+03  0.16378482323E+03  0.00000000000E+00 0.  1.
         22    1    1    2    0    0  0.17505496654E+03 -0.17472289961E+03  0.55030064772E+03  0.60332672396E+03  0.00000000000E+00 0.  1.
<mgrwt>
<rscale>  0 0.10873423E+04</rscale>
<asrwt>0</asrwt>
<pdfrwt beam="1">  1        1 0.73942173E-01 0.10873423E+04</pdfrwt>
<pdfrwt beam="2">  1       -1 0.94613617E-01 0.10873423E+04</pdfrwt>
<totfact> 0.50470155E+01</totfact>
</mgrwt>
</event>
<event>
 6    1  0.9562506E-007  0.2496422E+04  0.7818608E-02  0.8404261E-01
         -2   -1    0    0    0  501 -0.00000000000E+00  0.00000000000E+00  0.15911792137E+04  0.15911792137E+04  0.00000000000E+00 0.  1.
          2   -1    0    0  501    0  0.00000000000E+00 -0.00000000000E+00 -0.97916756661E+03  0.97916756661E+03  0.00000000000E+00 0. -1.
         23    2    1    2    0    0  0.75865613164E+03 -0.96863328680E+03  0.51260887244E+03  0.13359681990E+04  0.90739198545E+02 0.  0.
         13    1    3    3    0    0  0.87300450245E+02 -0.96894666305E+02  0.84051749977E+02  0.15516005171E+03  0.00000000000E+00 0.  1.
        -13    1    3    3    0    0  0.67135568140E+03 -0.87173862049E+03  0.42855712247E+03  0.11808081473E+04  0.00000000000E+00 0. -1.
         22    1    1    2    0    0 -0.75865613164E+03  0.96863328680E+03  0.99402774601E+02  0.12343785813E+04  0.00000000000E+00 0. -1.
<mgrwt>
<rscale>  0 0.24964223E+04</rscale>
<asrwt>0</asrwt>
<pdfrwt beam="1">  1        2 0.15064116E+00 0.24964223E+04</pdfrwt>
<pdfrwt beam="2">  1       -2 0.24479680E+00 0.24964223E+04</pdfrwt>
<totfact> 0.16035016E+00</totfact>
</mgrwt>
</event>
<event>
 6    1  0.9562506E-007  0.8462391E+03  0.7818608E-02  0.9495399E-01
         -1   -1    0    0    0  501 -0.00000000000E+00  0.00000000000E+00  0.86380895054E+02  0.86380895054E+02  0.00000000000E+00 0.  1.
          1   -1    0    0  501    0  0.00000000000E+00 -0.00000000000E+00 -0.20725665951E+04  0.20725665951E+04  0.00000000000E+00 0. -1.
         23    2    1    2    0    0 -0.13213256484E+03  0.59740957623E+02 -0.20054795063E+04  0.20126592553E+04  0.88437723597E+02 0.  0.
         13    1    3    3    0    0 -0.41007303143E+02 -0.20041486965E+02 -0.73651860759E+03  0.73793151406E+03  0.00000000000E+00 0. -1.
        -13    1    3    3    0    0 -0.91125261698E+02  0.79782444588E+02 -0.12689608987E+04  0.12747277412E+04  0.00000000000E+00 0.  1.
         22    1    1    2    0    0  0.13213256484E+03 -0.59740957623E+02  0.19293806237E+02  0.14628823489E+03  0.00000000000E+00 0.  1.
<mgrwt>
<rscale>  0 0.84623911E+03</rscale>
<asrwt>0</asrwt>
<pdfrwt beam="1">  1        1 0.31885636E+00 0.84623911E+03</pdfrwt>
<pdfrwt beam="2">  1       -1 0.13289370E-01 0.84623911E+03</pdfrwt>
<totfact> 0.10890308E+02</totfact>
</mgrwt>
</event>
<event>
 6    1  0.9562506E-007  0.5187822E+04  0.7818608E-02  0.7800169E-01
         -1   -1    0    0    0  501 -0.00000000000E+00  0.00000000000E+00  0.21818038597E+04  0.21818038597E+04  0.00000000000E+00 0.  1.
          1   -1    0    0  501    0  0.00000000000E+00 -0.00000000000E+00 -0.30838584117E+04  0.30838584117E+04  0.00000000000E+00 0. -1.
         23    2    1    2    0    0 -0.25324740995E+03  0.25621144876E+04 -0.76505585249E+03  0.26874199357E+04  0.91381372979E+02 0.  0.
         11    1    3    3    0    0 -0.38676241235E+02  0.64348985282E+03 -0.22384334704E+03  0.68240815231E+03  0.00000000000E+00 0.  1.
        -11    1    3    3    0    0 -0.21457116871E+03  0.19186246348E+04 -0.54121250545E+03  0.20050117834E+04  0.00000000000E+00 0. -1.
         22    1    1    2    0    0  0.25324740995E+03 -0.25621144876E+04 -0.13699869953E+03  0.25782423357E+04  0.00000000000E+00 0.  1.
<mgrwt>
<rscale>  0 0.51878220E+04</rscale>
<asrwt>0</asrwt>
<pdfrwt beam="1">  1        1 0.47443975E+00 0.51878220E+04</pdfrwt>
<pdfrwt beam="2">  1       -1 0.33566213E+00 0.51878220E+04</pdfrwt>
<totfact> 0.71292695E-03</totfact>
</mgrwt>
</event>
<event>
 6    1  0.9562506E-007  0.1524968E+04  0.7818608E-02  0.8868017E-01
         -1   -1    0    0    0  501 -0.00000000000E+00  0.00000000000E+00  0.22935270753E+03  0.22935270753E+03  0.00000000000E+00 0.  1.
          1   -1    0    0  501    0  0.00000000000E+00 -0.00000000000E+00 -0.25348811579E+04  0.25348811579E+04  0.00000000000E+00 0. -1.
         23    2    1    2    0    0  0.32301507382E+03  0.11443861617E+03 -0.23860049794E+04  0.24122233450E+04  0.91470046691E+02 0.  0.
         13    1    3    3    0    0  0.18620662139E+03  0.54326491504E+02 -0.10386316280E+04  0.10565888189E+04  0.00000000000E+00 0.  1.
        -13    1    3    3    0    0  0.13680845242E+03  0.60112124661E+02 -0.13473733514E+04  0.13556345261E+04  0.00000000000E+00 0. -1.
         22    1    1    2    0    0 -0.32301507382E+03 -0.11443861617E+03  0.80476529051E+02  0.35201052046E+03  0.00000000000E+00 0.  1.
<mgrwt>
<rscale>  0 0.15249680E+04</rscale>
<asrwt>0</asrwt>
<pdfrwt beam="1">  1        1 0.38998172E+00 0.15249680E+04</pdfrwt>
<pdfrwt beam="2">  1       -1 0.35285032E-01 0.15249680E+04</pdfrwt>
<totfact> 0.94837228E+00</totfact>
</mgrwt>
</event>
<event>
 6    1  0.9562506E-007  0.1612616E+04  0.7818608E-02  0.8812835E-01
         -1   -1    0    0    0  501 -0.00000000000E+00  0.00000000000E+00  0.12869956360E+04  0.12869956360E+04  0.00000000000E+00 0.  1.
          1   -1    0    0  501    0  0.00000000000E+00 -0.00000000000E+00 -0.50515498745E+03  0.50515498745E+03  0.00000000000E+00 0. -1.
         23    2    1    2    0    0  0.71113778562E+03 -0.33644960849E+03  0.57382136539E+03  0.97840169942E+03  0.95308115403E+02 0.  0.
         13    1    3    3    0    0  0.51703810807E+03 -0.19839596751E+03  0.41673038768E+03  0.69307545126E+03  0.00000000000E+00 0.  1.
        -13    1    3    3    0    0  0.19409967755E+03 -0.13805364098E+03  0.15709097771E+03  0.28532624816E+03  0.00000000000E+00 0. -1.
         22    1    1    2    0    0 -0.71113778562E+03  0.33644960849E+03  0.20801928317E+03  0.81374892403E+03  0.00000000000E+00 0. -1.
<mgrwt>
<rscale>  0 0.16126156E+04</rscale>
<asrwt>0</asrwt>
<pdfrwt beam="1">  1        1 0.77716153E-01 0.16126156E+04</pdfrwt>
<pdfrwt beam="2">  1       -1 0.19799933E+00 0.16126156E+04</pdfrwt>
<totfact> 0.65068261E+00</totfact>
</mgrwt>
</event>
<event>
 6    1  0.9562506E-007  0.4071918E+04  0.7818608E-02  0.7990193E-01
         -2   -1    0    0    0  501 -0.00000000000E+00  0.00000000000E+00  0.21527251866E+04  0.21527251866E+04  0.00000000000E+00 0.  1.
          2   -1    0    0  501    0  0.00000000000E+00 -0.00000000000E+00 -0.19255265626E+04  0.19255265626E+04  0.00000000000E+00 0. -1.
         23    2    1    2    0    0  0.10081088819E+04 -0.34605591776E+02  0.18836556820E+04  0.21388366183E+04  0.94774927154E+02 0.  0.
         11    1    3    3    0    0  0.67781785996E+03 -0.67491214702E+02  0.12765931840E+04  0.14469562097E+04  0.00000000000E+00 0. -1.
        -11    1    3    3    0    0  0.33029102190E+03  0.32885622926E+02  0.60706249801E+03  0.69188040862E+03  0.00000000000E+00 0.  1.
         22    1    1    2    0    0 -0.10081088819E+04  0.34605591776E+02 -0.16564570580E+04  0.19394151309E+04  0.00000000000E+00 0. -1.
<mgrwt>
<rscale>  0 0.40719182E+04</rscale>
<asrwt>0</asrwt>
<pdfrwt beam="1">  1        2 0.29623486E+00 0.40719182E+04</pdfrwt>
<pdfrwt beam="2">  1       -2 0.33118849E+00 0.40719182E+04</pdfrwt>
<totfact> 0.11762960E-01</totfact>
</mgrwt>
</event>
<event>
 6    1  0.9562506E-007  0.3819826E+04  0.7818608E-02  0.8041914E-01
         -2   -1    0    0    0  501 -0.00000000000E+00  0.00000000000E+00  0.15884918334E+04  0.15884918334E+04  0.00000000000E+00 0.  1.
          2   -1    0    0  501    0  0.00000000000E+00 -0.00000000000E+00 -0.22963717148E+04  0.22963717148E+04  0.00000000000E+00 0. -1.
         23    2    1    2    0    0 -0.24282305356E+03  0.78958110882E+03 -0.21042601055E+04  0.22624335519E+04  0.91069327358E+02 0.  0.
         11    1    3    3    0    0 -0.20311483511E+03  0.61225594149E+03 -0.17310487548E+04  0.18473339616E+04  0.00000000000E+00 0. -1.
        -11    1    3    3    0    0 -0.39708218455E+02  0.17732516733E+03 -0.37321135067E+03  0.41509959028E+03  0.00000000000E+00 0.  1.
         22    1    1    2    0    0  0.24282305356E+03 -0.78958110882E+03  0.13963802240E+04  0.16224299963E+04  0.00000000000E+00 0.  1.
<mgrwt>
<rscale>  0 0.38198260E+04</rscale>
<asrwt>0</asrwt>
<pdfrwt beam="1">  1        2 0.35328796E+00 0.38198260E+04</pdfrwt>
<pdfrwt beam="2">  1       -2 0.24438336E+00 0.38198260E+04</pdfrwt>
<totfact> 0.25378525E-01</totfact>
</mgrwt>
</event>
<event>
 6    1  0.9562506E-007  0.2832636E+04  0.7818608E-02  0.8293207E-01
          1   -1    0    0  501    0  0.00000000000E+00  0.00000000000E+00  0.20604877817E+04  0.20604877817E+04  0.00000000000E+00 0. -1.
         -1   -1    0    0    0  501 -0.00000000000E+00 -0.00000000000E+00 -0.97353499541E+03  0.97353499541E+03  0.00000000000E+00 0.  1.
         23    2    1    2    0    0 -0.90312276388E+03  0.29404179092E+03 -0.57925199361E+03  0.11161255770E+04  0.90067364589E+02 0.  0.
         11    1    3    3    0    0 -0.53984125197E+03  0.12956912455E+03 -0.32936756897E+03  0.64552283527E+03  0.00000000000E+00 0.  1.
        -11    1    3    3    0    0 -0.36328151191E+03  0.16447266638E+03 -0.24988442465E+03  0.47060274177E+03  0.00000000000E+00 0. -1.
         22    1    1    2    0    0  0.90312276388E+03 -0.29404179092E+03  0.16662047799E+04  0.19178972001E+04  0.00000000000E+00 0. -1.
<mgrwt>
<rscale>  0 0.28326362E+04</rscale>
<asrwt>0</asrwt>
<pdfrwt beam="1">  1        1 0.31699812E+00 0.28326362E+04</pdfrwt>
<pdfrwt beam="2">  1       -1 0.14977461E+00 0.28326362E+04</pdfrwt>
<totfact> 0.81981639E-01</totfact>
</mgrwt>
</event>
<event>
 6    1  0.9562506E-007  0.8334718E+03  0.7818608E-02  0.9512793E-01
          2   -1    0    0  501    0  0.00000000000E+00  0.00000000000E+00  0.23067042685E+04  0.23067042685E+04  0.00000000000E+00 0. -1.
         -2   -1    0    0    0  501 -0.00000000000E+00 -0.00000000000E+00 -0.75288725656E+02  0.75288725656E+02  0.00000000000E+00 0.  1.
         23    2    1    2    0    0 -0.16461345951E+03  0.37639635030E+03  0.10741100637E+04  0.11539344550E+04  0.95291625501E+02 0.  0.
         11    1    3    3    0    0 -0.79920929662E+02  0.23082339716E+03  0.74846492300E+03  0.78731603352E+03  0.00000000000E+00 0. -1.
        -11    1    3    3    0    0 -0.84692529844E+02  0.14557295314E+03  0.32564514071E+03  0.36661842148E+03  0.00000000000E+00 0.  1.
         22    1    1    2    0    0  0.16461345951E+03 -0.37639635030E+03  0.11573054791E+04  0.12280585392E+04  0.00000000000E+00 0. -1.
<mgrwt>
<rscale>  0 0.83347183E+03</rscale>
<asrwt>0</asrwt>
<pdfrwt beam="1">  1        2 0.35487753E+00 0.83347183E+03</pdfrwt>
<pdfrwt beam="2">  1       -2 0.11582883E-01 0.83347183E+03</pdfrwt>
<totfact> 0.24841164E+02</totfact>
</mgrwt>
</event>
<event>
 6    1  0.9562506E-007  0.2699816E+04  0.7818608E-02  0.8335065E-01
         -1   -1    0    0    0  501 -0.00000000000E+00  0.00000000000E+00  0.26190168260E+04  0.26190168260E+04  0.00000000000E+00 0.  1.
          1   -1    0    0  501    0  0.00000000000E+00 -0.00000000000E+00 -0.69577676121E+03  0.69577676121E+03  0.00000000000E+00 0. -1.
         23    2    1    2    0    0  0.14425531574E+02 -0.98657736706E+03  0.20908437614E+04  0.23139769226E+04  0.96532722790E+02 0.  0.
         13    1    3    3    0    0  0.15798436795E+02 -0.26045881131E+03  0.65249153030E+03  0.70273293655E+03  0.00000000000E+00 0. -1.
        -13    1    3    3    0    0 -0.13729052214E+01 -0.72611855575E+03  0.14383522311E+04  0.16112439860E+04  0.00000000000E+00 0.  1.
         22    1    1    2    0    0 -0.14425531574E+02  0.98657736706E+03 -0.16760369657E+03  0.10008166647E+04  0.00000000000E+00 0. -1.
<mgrwt>
<rscale>  0 0.26998156E+04</rscale>
<asrwt>0</asrwt>
<pdfrwt beam="1">  1        1 0.10704258E+00 0.26998156E+04</pdfrwt>
<pdfrwt beam="2">  1       -1 0.40292566E+00 0.26998156E+04</pdfrwt>
<totfact> 0.16394897E-01</totfact>
</mgrwt>
</event>
<event>
 6    1  0.9562506E-007  0.1484448E+04  0.7818608E-02  0.8894861E-01
          2   -1    0    0  501    0  0.00000000000E+00  0.00000000000E+00  0.96721225507E+03  0.96721225507E+03  0.00000000000E+00 0. -1.
         -2   -1    0    0    0  501 -0.00000000000E+00 -0.00000000000E+00 -0.56957122258E+03  0.56957122258E+03  0.00000000000E+00 0.  1.
         23    2    1    2    0    0  0.35785215178E+03 -0.51849033520E+03 -0.20142888735E+03  0.66743017831E+03  0.89437442006E+02 0.  0.
         13    1    3    3    0    0  0.23019724068E+03 -0.33080341910E+03 -0.17334606952E+03  0.43871463564E+03  0.00000000000E+00 0.  1.
        -13    1    3    3    0    0  0.12765491110E+03 -0.18768691610E+03 -0.28082817827E+02  0.22871554267E+03  0.00000000000E+00 0. -1.
         22    1    1    2    0    0 -0.35785215178E+03  0.51849033520E+03  0.59906991984E+03  0.86935329934E+03  0.00000000000E+00 0. -1.
<mgrwt>
<rscale>  0 0.14844477E+04</rscale>
<asrwt>0</asrwt>
<pdfrwt beam="1">  1        2 0.14880189E+00 0.14844477E+04</pdfrwt>
<pdfrwt beam="2">  1       -2 0.87626342E-01 0.14844477E+04</pdfrwt>
<totfact> 0.28765492E+01</totfact>
</mgrwt>
</event>
<event>
 6    1  0.9562506E-007  0.1383200E+04  0.7818608E-02  0.8966070E-01
         -1   -1    0    0    0  501 -0.00000000000E+00  0.00000000000E+00  0.12074239957E+04  0.12074239957E+04  0.00000000000E+00 0.  1.
          1   -1    0    0  501    0  0.00000000000E+00 -0.00000000000E+00 -0.39614107046E+03  0.39614107046E+03  0.00000000000E+00 0. -1.
         23    2    1    2    0    0 -0.71345700318E+02  0.65862299578E+03  0.18963928003E+03  0.69509641995E+03  0.91222349065E+02 0.  0.
         11    1    3    3    0    0 -0.43934907070E+02  0.10824878478E+03  0.46616417209E+02  0.12578221583E+03  0.00000000000E+00 0.  1.
        -11    1    3    3    0    0 -0.27410793248E+02  0.55037421100E+03  0.14302286283E+03  0.56931420412E+03  0.00000000000E+00 0. -1.
         22    1    1    2    0    0  0.71345700318E+02 -0.65862299578E+03  0.62164364518E+03  0.90846864620E+03  0.00000000000E+00 0. -1.
<mgrwt>
<rscale>  0 0.13831995E+04</rscale>
<asrwt>0</asrwt>
<pdfrwt beam="1">  1        1 0.60944781E-01 0.13831995E+04</pdfrwt>
<pdfrwt beam="2">  1       -1 0.18575754E+00 0.13831995E+04</pdfrwt>
<totfact> 0.11232375E+01</totfact>
</mgrwt>
</event>
<event>
 6    1  0.9562506E-007  0.3268227E+04  0.7818608E-02  0.8171027E-01
          2   -1    0    0  501    0  0.00000000000E+00  0.00000000000E+00  0.16952126464E+04  0.16952126464E+04  0.00000000000E+00 0. -1.
         -2   -1    0    0    0  501 -0.00000000000E+00 -0.00000000000E+00 -0.15752166343E+04  0.15752166343E+04  0.00000000000E+00 0.  1.
         23    2    1    2    0    0 -0.53077678526E+03 -0.15428312311E+04  0.12421032606E+03  0.16388441729E+04  0.91267817197E+02 0.  0.
         13    1    3    3    0    0 -0.22750716212E+03 -0.55189476888E+03  0.71273970047E+02  0.60118825965E+03  0.00000000000E+00 0.  1.
        -13    1    3    3    0    0 -0.30326962314E+03 -0.99093646224E+03  0.52936356014E+02  0.10376559132E+04  0.00000000000E+00 0. -1.
         22    1    1    2    0    0  0.53077678526E+03  0.15428312311E+04 -0.42143139600E+01  0.16315851078E+04  0.00000000000E+00 0.  1.
<mgrwt>
<rscale>  0 0.32682271E+04</rscale>
<asrwt>0</asrwt>
<pdfrwt beam="1">  1        2 0.26080195E+00 0.32682271E+04</pdfrwt>
<pdfrwt beam="2">  1       -2 0.24234102E+00 0.32682271E+04</pdfrwt>
<totfact> 0.59200277E-01</totfact>
</mgrwt>
</event>
<event>
 6    1  0.9562506E-007  0.2186894E+04  0.7818608E-02  0.8523903E-01
         -1   -1    0    0    0  501 -0.00000000000E+00  0.00000000000E+00  0.13431838851E+04  0.13431838851E+04  0.00000000000E+00 0.  1.
          1   -1    0    0  501    0  0.00000000000E+00 -0.00000000000E+00 -0.89014361887E+03  0.89014361887E+03  0.00000000000E+00 0. -1.
         23    2    1    2    0    0  0.42669176570E+03 -0.89601817727E+03  0.69102942369E+03  0.12127623292E+04  0.91413159640E+02 0.  0.
         13    1    3    3    0    0  0.31625979608E+03 -0.74351965556E+03  0.57302470795E+03  0.99055492162E+03  0.00000000000E+00 0. -1.
        -13    1    3    3    0    0  0.11043196962E+03 -0.15249852171E+03  0.11800471574E+03  0.22220740756E+03  0.00000000000E+00 0.  1.
         22    1    1    2    0    0 -0.42669176570E+03  0.89601817727E+03 -0.23798915747E+03  0.10205651748E+04  0.00000000000E+00 0. -1.
<mgrwt>
<rscale>  0 0.21868942E+04</rscale>
<asrwt>0</asrwt>
<pdfrwt beam="1">  1        1 0.13694517E+00 0.21868942E+04</pdfrwt>
<pdfrwt beam="2">  1       -1 0.20664368E+00 0.21868942E+04</pdfrwt>
<totfact> 0.22928972E+00</totfact>
</mgrwt>
</event>
<event>
 6    1  0.9562506E-007  0.5138684E+04  0.7818608E-02  0.7807463E-01
          1   -1    0    0  501    0  0.00000000000E+00  0.00000000000E+00  0.22882436619E+04  0.22882436619E+04  0.00000000000E+00 0. -1.
         -1   -1    0    0    0  501 -0.00000000000E+00 -0.00000000000E+00 -0.28849719067E+04  0.28849719067E+04  0.00000000000E+00 0.  1.
         23    2    1    2    0    0  0.13563393903E+04  0.21695963893E+04 -0.71631618591E+02  0.25612179611E+04  0.88889377516E+02 0.  0.
         11    1    3    3    0    0  0.10706333051E+04  0.17781812043E+04 -0.59603056862E+02  0.20764721509E+04  0.00000000000E+00 0. -1.
        -11    1    3    3    0    0  0.28570608525E+03  0.39141518501E+03 -0.12028561729E+02  0.48474581019E+03  0.00000000000E+00 0.  1.
         22    1    1    2    0    0 -0.13563393903E+04 -0.21695963893E+04 -0.52509662619E+03  0.26119976074E+04  0.00000000000E+00 0. -1.
<mgrwt>
<rscale>  0 0.51386841E+04</rscale>
<asrwt>0</asrwt>
<pdfrwt beam="1">  1        1 0.35203749E+00 0.51386841E+04</pdfrwt>
<pdfrwt beam="2">  1       -1 0.44384183E+00 0.51386841E+04</pdfrwt>
<totfact> 0.48421853E-03</totfact>
</mgrwt>
</event>
<event>
 6    1  0.9562506E-007  0.2251136E+04  0.7818608E-02  0.8497440E-01
          2   -1    0    0  501    0  0.00000000000E+00  0.00000000000E+00  0.14819530999E+04  0.14819530999E+04  0.00000000000E+00 0. -1.
         -2   -1    0    0    0  501 -0.00000000000E+00 -0.00000000000E+00 -0.85488795307E+03  0.85488795307E+03  0.00000000000E+00 0.  1.
         23    2    1    2    0    0  0.96731063256E+03 -0.37463241408E+03  0.76185609789E+03  0.12907971218E+04  0.98454000419E+02 0.  0.
         13    1    3    3    0    0  0.36880517462E+03 -0.10184097481E+03  0.31536522590E+03  0.49582664984E+03  0.00000000000E+00 0. -1.
        -13    1    3    3    0    0  0.59850545794E+03 -0.27279143927E+03  0.44649087199E+03  0.79497047196E+03  0.00000000000E+00 0.  1.
         22    1    1    2    0    0 -0.96731063256E+03  0.37463241408E+03 -0.13479095101E+03  0.10460439312E+04  0.00000000000E+00 0.  1.
<mgrwt>
<rscale>  0 0.22511365E+04</rscale>
<asrwt>0</asrwt>
<pdfrwt beam="1">  1        2 0.22799278E+00 0.22511365E+04</pdfrwt>
<pdfrwt beam="2">  1       -2 0.13152122E+00 0.22511365E+04</pdfrwt>
<totfact> 0.49888615E+00</totfact>
</mgrwt>
</event>
<event>
 6    1  0.9562506E-007  0.3047930E+04  0.7818608E-02  0.8230175E-01
         -2   -1    0    0    0  501 -0.00000000000E+00  0.00000000000E+00  0.16853392425E+04  0.16853392425E+04  0.00000000000E+00 0.  1.
          2   -1    0    0  501    0  0.00000000000E+00 -0.00000000000E+00 -0.13780427837E+04  0.13780427837E+04  0.00000000000E+00 0. -1.
         23    2    1    2    0    0 -0.94180560079E+03 -0.92967020939E+03  0.91038421822E+03  0.16090782982E+04  0.95126531564E+02 0.  0.
         11    1    3    3    0    0 -0.32504313800E+03 -0.34851600501E+03  0.27825112644E+03  0.55185155311E+03  0.00000000000E+00 0. -1.
        -11    1    3    3    0    0 -0.61676246280E+03 -0.58115420438E+03  0.63213309179E+03  0.10572267451E+04  0.00000000000E+00 0.  1.
         22    1    1    2    0    0  0.94180560079E+03  0.92967020939E+03 -0.60308775937E+03  0.14543037280E+04  0.00000000000E+00 0. -1.
<mgrwt>
<rscale>  0 0.30479302E+04</rscale>
<asrwt>0</asrwt>
<pdfrwt beam="1">  1        2 0.21200658E+00 0.30479302E+04</pdfrwt>
<pdfrwt beam="2">  1       -2 0.25928296E+00 0.30479302E+04</pdfrwt>
<totfact> 0.71587267E-01</totfact>
</mgrwt>
</event>
<event>
 6    1  0.9562506E-007  0.1536987E+04  0.7818608E-02  0.8860223E-01
         -1   -1    0    0    0  501 -0.00000000000E+00  0.00000000000E+00  0.39774480121E+03  0.39774480121E+03  0.00000000000E+00 0.  1.
          1   -1    0    0  501    0  0.00000000000E+00 -0.00000000000E+00 -0.14848261614E+04  0.14848261614E+04  0.00000000000E+00 0. -1.
         23    2    1    2    0    0 -0.44051687622E+03 -0.53071040037E+03 -0.95293383622E+03  0.11799300832E+04  0.91888288916E+02 0.  0.
         11    1    3    3    0    0 -0.95757920688E+02 -0.12093058348E+03 -0.28254860712E+03  0.32191225634E+03  0.00000000000E+00 0. -1.
        -11    1    3    3    0    0 -0.34475895553E+03 -0.40977981689E+03 -0.67038522910E+03  0.85801782682E+03  0.00000000000E+00 0.  1.
         22    1    1    2    0    0  0.44051687622E+03  0.53071040037E+03 -0.13414752398E+03  0.70264087946E+03  0.00000000000E+00 0.  1.
<mgrwt>
<rscale>  0 0.15369865E+04</rscale>
<asrwt>0</asrwt>
<pdfrwt beam="1">  1        1 0.22843480E+00 0.15369865E+04</pdfrwt>
<pdfrwt beam="2">  1       -1 0.61191507E-01 0.15369865E+04</pdfrwt>
<totfact> 0.17507802E+01</totfact>
</mgrwt>
</event>
<event>
 6    1  0.9562506E-007  0.2321504E+04  0.7818608E-02  0.8469490E-01
          1   -1    0    0  501    0  0.00000000000E+00  0.00000000000E+00  0.21542774666E+04  0.21542774666E+04  0.00000000000E+00 0. -1.
         -1   -1    0    0    0  501 -0.00000000000E+00 -0.00000000000E+00 -0.62542815565E+03  0.62542815565E+03  0.00000000000E+00 0.  1.
         23    2    1    2    0    0  0.55275830400E+03  0.18473550011E+03  0.19646152347E+04  0.20519962792E+04  0.10633325680E+03 0.  0.
         13    1    3    3    0    0  0.38030199335E+03  0.85805263433E+02  0.14062124842E+04  0.14592551868E+04  0.00000000000E+00 0.  1.
        -13    1    3    3    0    0  0.17245631065E+03  0.98930236675E+02  0.55840275053E+03  0.59274109239E+03  0.00000000000E+00 0. -1.
         22    1    1    2    0    0 -0.55275830400E+03 -0.18473550011E+03 -0.43576592380E+03  0.72770934306E+03  0.00000000000E+00 0.  1.
<mgrwt>
<rscale>  0 0.23215045E+04</rscale>
<asrwt>0</asrwt>
<pdfrwt beam="1">  1        1 0.33142730E+00 0.23215045E+04</pdfrwt>
<pdfrwt beam="2">  1       -1 0.96219717E-01 0.23215045E+04</pdfrwt>
<totfact> 0.21966149E+00</totfact>
</mgrwt>
</event>
<event>
 6    1  0.9562506E-007  0.1757208E+04  0.7818608E-02  0.8729393E-01
          1   -1    0    0  501    0  0.00000000000E+00  0.00000000000E+00  0.10170500244E+04  0.10170500244E+04  0.00000000000E+00 0. -1.
         -1   -1    0    0    0  501 -0.00000000000E+00 -0.00000000000E+00 -0.75900374884E+03  0.75900374884E+03  0.00000000000E+00 0.  1.
         23    2    1    2    0    0  0.66391956364E+03 -0.56032775500E+03  0.14116323614E+02  0.87369120671E+03  0.91546021687E+02 0.  0.
         13    1    3    3    0    0  0.43698970204E+03 -0.33491585310E+03  0.44665223518E+02  0.55237995125E+03  0.00000000000E+00 0. -1.
        -13    1    3    3    0    0  0.22692986160E+03 -0.22541190189E+03 -0.30548899904E+02  0.32131125546E+03  0.00000000000E+00 0.  1.
         22    1    1    2    0    0 -0.66391956364E+03  0.56032775500E+03  0.24392995194E+03  0.90236256652E+03  0.00000000000E+00 0. -1.
<mgrwt>
<rscale>  0 0.17572078E+04</rscale>
<asrwt>0</asrwt>
<pdfrwt beam="1">  1        1 0.15646923E+00 0.17572078E+04</pdfrwt>
<pdfrwt beam="2">  1       -1 0.11676981E+00 0.17572078E+04</pdfrwt>
<totfact> 0.91963113E+00</totfact>
</mgrwt>
</event>
<event>
 6    1  0.9562506E-007  0.7301625E+03  0.7818608E-02  0.9666997E-01
          1   -1    0    0  501    0  0.00000000000E+00  0.00000000000E+00  0.19413566969E+04  0.19413566969E+04  0.00000000000E+00 0. -1.
         -1   -1    0    0    0  501 -0.00000000000E+00 -0.00000000000E+00 -0.68655246386E+02  0.68655246386E+02  0.00000000000E+00 0.  1.
         23    2    1    2    0    0  0.27167105373E+03  0.99131972382E+02  0.36050997772E+03  0.47041610028E+03  0.87701505078E+02 0.  0.
         13    1    3    3    0    0  0.18153720260E+03  0.21522112154E+02  0.20579356617E+03  0.27526341769E+03  0.00000000000E+00 0. -1.
        -13    1    3    3    0    0  0.90133851127E+02  0.77609860229E+02  0.15471641155E+03  0.19515268260E+03  0.00000000000E+00 0.  1.
         22    1    1    2    0    0 -0.27167105373E+03 -0.99131972382E+02  0.15121914728E+04  0.15395958430E+04  0.00000000000E+00 0. -1.
<mgrwt>
<rscale>  0 0.73016251E+03</rscale>
<asrwt>0</asrwt>
<pdfrwt beam="1">  1        1 0.29867022E+00 0.73016251E+03</pdfrwt>
<pdfrwt beam="2">  1       -1 0.10562347E-01 0.73016251E+03</pdfrwt>
<totfact> 0.19453234E+02</totfact>
</mgrwt>
</event>
<event>
 6    1  0.9562506E-007  0.3122920E+04  0.7818608E-02  0.8209476E-01
         -2   -1    0    0    0  501 -0.00000000000E+00  0.00000000000E+00  0.72294663760E+03  0.72294663760E+03  0.00000000000E+00 0.  1.
          2   -1    0    0  501    0  0.00000000000E+00 -0.00000000000E+00 -0.33725267259E+04  0.33725267259E+04  0.00000000000E+00 0. -1.
         23    2    1    2    0    0 -0.14989351087E+04 -0.10717657999E+03 -0.18755790312E+04  0.24050973947E+04  0.91670586437E+02 0.  0.
         11    1    3    3    0    0 -0.81109143759E+03 -0.34932107169E+02 -0.94950573193E+03  0.12492600639E+04  0.00000000000E+00 0.  1.
        -11    1    3    3    0    0 -0.68784367113E+03 -0.72244472817E+02 -0.92607329924E+03  0.11558373308E+04  0.00000000000E+00 0. -1.
         22    1    1    2    0    0  0.14989351087E+04  0.10717657999E+03 -0.77400105713E+03  0.16903759688E+04  0.00000000000E+00 0.  1.
<mgrwt>
<rscale>  0 0.31229197E+04</rscale>
<asrwt>0</asrwt>
<pdfrwt beam="1">  1        2 0.51885027E+00 0.31229197E+04</pdfrwt>
<pdfrwt beam="2">  1       -2 0.11122256E+00 0.31229197E+04</pdfrwt>
<totfact> 0.53898671E-01</totfact>
</mgrwt>
</event>
<event>
 6    1  0.9562506E-007  0.1924499E+04  0.7818608E-02  0.8642757E-01
         -2   -1    0    0    0  501 -0.00000000000E+00  0.00000000000E+00  0.77875997946E+03  0.77875997946E+03  0.00000000000E+00 0.  1.
          2   -1    0    0  501    0  0.00000000000E+00 -0.00000000000E+00 -0.11889726253E+04  0.11889726253E+04  0.00000000000E+00 0. -1.
         23    2    1    2    0    0  0.41765273606E+03  0.86010503582E+03 -0.29474740752E+03  0.10046403445E+04  0.90618469135E+02 0.  0.
         13    1    3    3    0    0  0.11405876123E+03  0.18086626156E+03 -0.35418674003E+02  0.21674060083E+03  0.00000000000E+00 0.  1.
        -13    1    3    3    0    0  0.30359397483E+03  0.67923877426E+03 -0.25932873352E+03  0.78789974365E+03  0.00000000000E+00 0. -1.
         22    1    1    2    0    0 -0.41765273606E+03 -0.86010503582E+03 -0.11546523833E+03  0.96309226030E+03  0.00000000000E+00 0. -1.
<mgrwt>
<rscale>  0 0.19244992E+04</rscale>
<asrwt>0</asrwt>
<pdfrwt beam="1">  1        2 0.18291886E+00 0.19244992E+04</pdfrwt>
<pdfrwt beam="2">  1       -2 0.11980923E+00 0.19244992E+04</pdfrwt>
<totfact> 0.95846882E+00</totfact>
</mgrwt>
</event>
<event>
 6    1  0.9562506E-007  0.2470972E+04  0.7818608E-02  0.8413401E-01
         -1   -1    0    0    0  501 -0.00000000000E+00  0.00000000000E+00  0.47263311648E+03  0.47263311648E+03  0.00000000000E+00 0.  1.
          1   -1    0    0  501    0  0.00000000000E+00 -0.00000000000E+00 -0.32296194998E+04  0.32296194998E+04  0.00000000000E+00 0. -1.
         23    2    1    2    0    0 -0.47998003722E+03 -0.66338394313E+03 -0.27622654184E+04  0.28834199348E+04  0.11636660348E+03 0.  0.
         11    1    3    3    0    0 -0.32611443645E+03 -0.42093765459E+03 -0.19710494217E+04  0.20417088327E+04  0.00000000000E+00 0. -1.
        -11    1    3    3    0    0 -0.15386560077E+03 -0.24244628854E+03 -0.79121599676E+03  0.84171110214E+03  0.00000000000E+00 0.  1.
         22    1    1    2    0    0  0.47998003722E+03  0.66338394313E+03  0.52790350585E+01  0.81883268153E+03  0.00000000000E+00 0.  1.
<mgrwt>
<rscale>  0 0.24709716E+04</rscale>
<asrwt>0</asrwt>
<pdfrwt beam="1">  1        1 0.49686453E+00 0.24709716E+04</pdfrwt>
<pdfrwt beam="2">  1       -1 0.72712789E-01 0.24709716E+04</pdfrwt>
<totfact> 0.68624364E-01</totfact>
</mgrwt>
</event>
<event>
 6    1  0.9562506E-007  0.2653823E+04  0.7818608E-02  0.8350145E-01
          2   -1    0    0  501    0  0.00000000000E+00  0.00000000000E+00  0.10777134153E+04  0.10777134153E+04  0.00000000000E+00 0. -1.
         -2   -1    0    0    0  501 -0.00000000000E+00 -0.00000000000E+00 -0.16337314009E+04  0.16337314009E+04  0.00000000000E+00 0.  1.
         23    2    1    2    0    0 -0.53322940759E+03  0.87648822725E+03  0.57896562006E+03  0.11814928566E+04  0.90327002418E+02 0.  0.
         11    1    3    3    0    0 -0.26601650090E+03  0.38420992239E+03  0.30422538772E+03  0.55761557523E+03  0.00000000000E+00 0. -1.
        -11    1    3    3    0    0 -0.26721290669E+03  0.49227830486E+03  0.27474023233E+03  0.62387728136E+03  0.00000000000E+00 0.  1.
         22    1    1    2    0    0  0.53322940759E+03 -0.87648822725E+03 -0.11349836057E+04  0.15299519596E+04  0.00000000000E+00 0.  1.
<mgrwt>
<rscale>  0 0.26538231E+04</rscale>
<asrwt>0</asrwt>
<pdfrwt beam="1">  1        2 0.16580207E+00 0.26538231E+04</pdfrwt>
<pdfrwt beam="2">  1       -2 0.25134329E+00 0.26538231E+04</pdfrwt>
<totfact> 0.12487225E+00</totfact>
</mgrwt>
</event>
<event>
 6    1  0.9562506E-007  0.4656094E+03  0.7818608E-02  0.1023167E+00
         -1   -1    0    0    0  501 -0.00000000000E+00  0.00000000000E+00  0.54400017029E+02  0.54400017029E+02  0.00000000000E+00 0.  1.
          1   -1    0    0  501    0  0.00000000000E+00 -0.00000000000E+00 -0.99628710203E+03  0.99628710203E+03  0.00000000000E+00 0. -1.
         23    2    1    2    0    0  0.12251009545E+03  0.17944451330E+03 -0.36917709586E+03  0.43814668079E+03  0.92041995547E+02 0.  0.
         11    1    3    3    0    0  0.10378592212E+03  0.71019434667E+02 -0.18837093275E+03  0.22649257391E+03  0.00000000000E+00 0. -1.
        -11    1    3    3    0    0  0.18724173331E+02  0.10842507863E+03 -0.18080616311E+03  0.21165410688E+03  0.00000000000E+00 0.  1.
         22    1    1    2    0    0 -0.12251009545E+03 -0.17944451330E+03 -0.57270998914E+03  0.61254043826E+03  0.00000000000E+00 0.  1.
<mgrwt>
<rscale>  0 0.46560943E+03</rscale>
<asrwt>0</asrwt>
<pdfrwt beam="1">  1        1 0.15327495E+00 0.46560943E+03</pdfrwt>
<pdfrwt beam="2">  1       -1 0.83692330E-02 0.46560943E+03</pdfrwt>
<totfact> 0.12891653E+03</totfact>
</mgrwt>
</event>
<event>
 6    1  0.9562506E-007  0.2785808E+04  0.7818608E-02  0.8307688E-01
         -2   -1    0    0    0  501 -0.00000000000E+00  0.00000000000E+00  0.91034684097E+03  0.91034684097E+03  0.00000000000E+00 0.  1.
          2   -1    0    0  501    0  0.00000000000E+00 -0.00000000000E+00 -0.21312560846E+04  0.21312560846E+04  0.00000000000E+00 0. -1.
         23    2    1    2    0    0 -0.57634192891E+01 -0.86208186142E+03 -0.18036734692E+04  0.20010105485E+04  0.87102691085E+02 0.  0.
         11    1    3    3    0    0 -0.43043055951E+01 -0.70041421488E+02 -0.20913210374E+03  0.22059139735E+03  0.00000000000E+00 0. -1.
        -11    1    3    3    0    0 -0.14591136939E+01 -0.79204043994E+03 -0.15945413654E+04  0.17804191511E+04  0.00000000000E+00 0.  1.
         22    1    1    2    0    0  0.57634192891E+01  0.86208186142E+03  0.58276422553E+03  0.10405923771E+04  0.00000000000E+00 0.  1.
<mgrwt>
<rscale>  0 0.27858085E+04</rscale>
<asrwt>0</asrwt>
<pdfrwt beam="1">  1        2 0.32788555E+00 0.27858085E+04</pdfrwt>
<pdfrwt beam="2">  1       -2 0.14005336E+00 0.27858085E+04</pdfrwt>
<totfact> 0.17641413E+00</totfact>
</mgrwt>
</event>
<event>
 6    1  0.9562506E-007  0.1883852E+04  0.7818608E-02  0.8662936E-01
          1   -1    0    0  501    0  0.00000000000E+00  0.00000000000E+00  0.14990036931E+04  0.14990036931E+04  0.00000000000E+00 0. -1.
         -1   -1    0    0    0  501 -0.00000000000E+00 -0.00000000000E+00 -0.59187591930E+03  0.59187591930E+03  0.00000000000E+00 0.  1.
         23    2    1    2    0    0 -0.22647442309E+02  0.93601473587E+03  0.36569165357E+03  0.10093115079E+04  0.91339159291E+02 0.  0.
         13    1    3    3    0    0  0.25640473816E+01  0.22202604449E+03  0.12844579681E+03  0.25651600630E+03  0.00000000000E+00 0. -1.
        -13    1    3    3    0    0 -0.25211489691E+02  0.71398869138E+03  0.23724585676E+03  0.75279550157E+03  0.00000000000E+00 0.  1.
         22    1    1    2    0    0  0.22647442309E+02 -0.93601473587E+03  0.54143612021E+03  0.10815681045E+04  0.00000000000E+00 0. -1.
<mgrwt>
<rscale>  0 0.18838516E+04</rscale>
<asrwt>0</asrwt>
<pdfrwt beam="1">  1        1 0.23061595E+00 0.18838516E+04</pdfrwt>
<pdfrwt beam="2">  1       -1 0.91057834E-01 0.18838516E+04</pdfrwt>
<totfact> 0.72254272E+00</totfact>
</mgrwt>
</event>
<event>
 6    1  0.9562506E-007  0.2967569E+04  0.7818608E-02  0.8253053E-01
          2   -1    0    0  501    0  0.00000000000E+00  0.00000000000E+00  0.10789874869E+04  0.10789874869E+04  0.00000000000E+00 0. -1.
         -2   -1    0    0    0  501 -0.00000000000E+00 -0.00000000000E+00 -0.20404470510E+04  0.20404470510E+04  0.00000000000E+00 0.  1.
         23    2    1    2    0    0  0.46008306147E+03  0.43399972984E+03  0.92810750938E+03  0.11268242111E+04  0.91197943577E+02 0.  0.
         13    1    3    3    0    0  0.36508518506E+03  0.33835776461E+03  0.79069511155E+03  0.93432966808E+03  0.00000000000E+00 0. -1.
        -13    1    3    3    0    0  0.94997876404E+02  0.95641965224E+02  0.13741239783E+03  0.19249454307E+03  0.00000000000E+00 0.  1.
         22    1    1    2    0    0 -0.46008306147E+03 -0.43399972984E+03 -0.18895670735E+04  0.19926103267E+04  0.00000000000E+00 0.  1.
<mgrwt>
<rscale>  0 0.29675693E+04</rscale>
<asrwt>0</asrwt>
<pdfrwt beam="1">  1        2 0.16599807E+00 0.29675693E+04</pdfrwt>
<pdfrwt beam="2">  1       -2 0.31391493E+00 0.29675693E+04</pdfrwt>
<totfact> 0.50298113E-01</totfact>
</mgrwt>
</event>
<event>
 6    1  0.9562506E-007  0.2629987E+04  0.7818608E-02  0.8358086E-01
         -3   -1    0    0    0  501 -0.00000000000E+00  0.00000000000E+00  0.14932579863E+04  0.14932579863E+04  0.00000000000E+00 0.  1.
          3   -1    0    0  501    0  0.00000000000E+00 -0.00000000000E+00 -0.11580101527E+04  0.11580101527E+04  0.00000000000E+00 0. -1.
         23    2    1    2    0    0 -0.49664771233E+03 -0.85035222226E+03  0.10437642402E+04  0.14381097197E+04  0.94646313844E+02 0.  0.
         13    1    3    3    0    0 -0.25567089374E+03 -0.46936131415E+03  0.63035372363E+03  0.82644628744E+03  0.00000000000E+00 0.  1.
        -13    1    3    3    0    0 -0.24097681860E+03 -0.38099090810E+03  0.41341051655E+03  0.61166343225E+03  0.00000000000E+00 0. -1.
         22    1    1    2    0    0  0.49664771233E+03  0.85035222226E+03 -0.70851640651E+03  0.12131584193E+04  0.00000000000E+00 0. -1.
<mgrwt>
<rscale>  0 0.26299870E+04</rscale>
<asrwt>0</asrwt>
<pdfrwt beam="1">  1        3 0.17815541E+00 0.26299870E+04</pdfrwt>
<pdfrwt beam="2">  1       -3 0.22973200E+00 0.26299870E+04</pdfrwt>
<totfact> 0.45124679E-02</totfact>
</mgrwt>
</event>
<event>
 6    1  0.9562506E-007  0.2847847E+04  0.7818608E-02  0.8288566E-01
          2   -1    0    0  501    0  0.00000000000E+00  0.00000000000E+00  0.21270393282E+04  0.21270393282E+04  0.00000000000E+00 0. -1.
         -2   -1    0    0    0  501 -0.00000000000E+00 -0.00000000000E+00 -0.95323005825E+03  0.95323005825E+03  0.00000000000E+00 0.  1.
         23    2    1    2    0    0 -0.66013951366E+03 -0.63030203663E+03 -0.59259866514E+03  0.10919882625E+04  0.90555797937E+02 0.  0.
         11    1    3    3    0    0 -0.27392967950E+03 -0.22338252503E+03 -0.18850466287E+03  0.40058860409E+03  0.00000000000E+00 0.  1.
        -11    1    3    3    0    0 -0.38620983416E+03 -0.40691951159E+03 -0.40409400228E+03  0.69139965837E+03  0.00000000000E+00 0. -1.
         22    1    1    2    0    0  0.66013951366E+03  0.63030203663E+03  0.17664079351E+04  0.19882811240E+04  0.00000000000E+00 0. -1.
<mgrwt>
<rscale>  0 0.28478468E+04</rscale>
<asrwt>0</asrwt>
<pdfrwt beam="1">  1        2 0.32723682E+00 0.28478468E+04</pdfrwt>
<pdfrwt beam="2">  1       -2 0.14665078E+00 0.28478468E+04</pdfrwt>
<totfact> 0.15643903E+00</totfact>
</mgrwt>
</event>
<event>
 6    1  0.9562506E-007  0.4322361E+04  0.7818608E-02  0.7942496E-01
         -1   -1    0    0    0  501 -0.00000000000E+00  0.00000000000E+00  0.16471392213E+04  0.16471392213E+04  0.00000000000E+00 0.  1.
          1   -1    0    0  501    0  0.00000000000E+00 -0.00000000000E+00 -0.28356439980E+04  0.28356439980E+04  0.00000000000E+00 0. -1.
         23    2    1    2    0    0  0.60445722276E+03 -0.75015496915E+03  0.14108191592E+04  0.17106746471E+04  0.88859645583E+02 0.  0.
         11    1    3    3    0    0  0.52217565206E+03 -0.59912080606E+03  0.11846472958E+04  0.14265350915E+04  0.00000000000E+00 0.  1.
        -11    1    3    3    0    0  0.82281570702E+02 -0.15103416309E+03  0.22617186338E+03  0.28413955565E+03  0.00000000000E+00 0. -1.
         22    1    1    2    0    0 -0.60445722276E+03  0.75015496915E+03 -0.25993239359E+04  0.27721085721E+04  0.00000000000E+00 0. -1.
<mgrwt>
<rscale>  0 0.43223607E+04</rscale>
<asrwt>0</asrwt>
<pdfrwt beam="1">  1        1 0.43625292E+00 0.43223607E+04</pdfrwt>
<pdfrwt beam="2">  1       -1 0.25340603E+00 0.43223607E+04</pdfrwt>
<totfact> 0.39680032E-02</totfact>
</mgrwt>
</event>
<event>
 6    1  0.9562506E-007  0.3892681E+04  0.7818608E-02  0.8026553E-01
         -1   -1    0    0    0  501 -0.00000000000E+00  0.00000000000E+00  0.13789143733E+04  0.13789143733E+04  0.00000000000E+00 0.  1.
          1   -1    0    0  501    0  0.00000000000E+00 -0.00000000000E+00 -0.27472639787E+04  0.27472639787E+04  0.00000000000E+00 0. -1.
         23    2    1    2    0    0  0.39360279789E+03  0.11045333251E+04 -0.23297898579E+04  0.26098392119E+04  0.91776363321E+02 0.  0.
         11    1    3    3    0    0  0.31401426593E+02  0.91111323129E+02 -0.25367599688E+03  0.27136476224E+03  0.00000000000E+00 0. -1.
        -11    1    3    3    0    0  0.36220137129E+03  0.10134220019E+04 -0.20761138611E+04  0.23384744496E+04  0.00000000000E+00 0.  1.
         22    1    1    2    0    0 -0.39360279789E+03 -0.11045333251E+04  0.96144025251E+03  0.15163391401E+04  0.00000000000E+00 0.  1.
<mgrwt>
<rscale>  0 0.38926812E+04</rscale>
<asrwt>0</asrwt>
<pdfrwt beam="1">  1        1 0.42265600E+00 0.38926812E+04</pdfrwt>
<pdfrwt beam="2">  1       -1 0.21214067E+00 0.38926812E+04</pdfrwt>
<totfact> 0.89173039E-02</totfact>
</mgrwt>
</event>
<event>
 6    1  0.1985586E-006  0.3376151E+04  0.7818608E-02  0.8143784E-01
          2   -1    0    0  501    0  0.00000000000E+00  0.00000000000E+00  0.22290557417E+04  0.22290557417E+04  0.00000000000E+00 0. -1.
         -2   -1    0    0    0  501 -0.00000000000E+00 -0.00000000000E+00 -0.12783887012E+04  0.12783887012E+04  0.00000000000E+00 0.  1.
         23    2    1    2    0    0  0.33556779899E+03 -0.22992612854E+03  0.21764165865E+04  0.22159593591E+04  0.90636364948E+02 0.  0.
         13    1    3    3    0    0  0.13206488708E+03 -0.14165844867E+03  0.92883470278E+03  0.94881091666E+03  0.00000000000E+00 0. -1.
        -13    1    3    3    0    0  0.20350291191E+03 -0.88267679875E+02  0.12475818837E+04  0.12671484424E+04  0.00000000000E+00 0.  1.
         22    1    1    2    0    0 -0.33556779899E+03  0.22992612854E+03 -0.12257495460E+04  0.12914850838E+04  0.00000000000E+00 0.  1.
<mgrwt>
<rscale>  0 0.33761515E+04</rscale>
<asrwt>0</asrwt>
<pdfrwt beam="1">  1        2 0.34293165E+00 0.33761515E+04</pdfrwt>
<pdfrwt beam="2">  1       -2 0.19667519E+00 0.33761515E+04</pdfrwt>
<totfact> 0.57741724E-01</totfact>
</mgrwt>
</event>
<event>
 6    1  0.9562506E-007  0.2674566E+04  0.7818608E-02  0.8343305E-01
         -1   -1    0    0    0  501 -0.00000000000E+00  0.00000000000E+00  0.61524401602E+03  0.61524401602E+03  0.00000000000E+00 0.  1.
          1   -1    0    0  501    0  0.00000000000E+00 -0.00000000000E+00 -0.29066936376E+04  0.29066936376E+04  0.00000000000E+00 0. -1.
         23    2    1    2    0    0  0.24821048609E+03 -0.12470751946E+04 -0.60839370472E+03  0.14125580752E+04  0.91500980645E+02 0.  0.
         13    1    3    3    0    0  0.86021026146E+02 -0.38580329752E+03 -0.14381338947E+03  0.42062583409E+03  0.00000000000E+00 0. -1.
        -13    1    3    3    0    0  0.16218945994E+03 -0.86127189711E+03 -0.46458031524E+03  0.99193224113E+03  0.00000000000E+00 0.  1.
         22    1    1    2    0    0 -0.24821048609E+03  0.12470751946E+04 -0.16830559168E+04  0.21093795784E+04  0.00000000000E+00 0. -1.
<mgrwt>
<rscale>  0 0.26745660E+04</rscale>
<asrwt>0</asrwt>
<pdfrwt beam="1">  1        1 0.44718365E+00 0.26745660E+04</pdfrwt>
<pdfrwt beam="2">  1       -1 0.94652923E-01 0.26745660E+04</pdfrwt>
<totfact> 0.65974842E-01</totfact>
</mgrwt>
</event>
<event>
 6    1  0.9562506E-007  0.1856280E+04  0.7818608E-02  0.8676930E-01
         -1   -1    0    0    0  501 -0.00000000000E+00  0.00000000000E+00  0.12203110620E+04  0.12203110620E+04  0.00000000000E+00 0.  1.
          1   -1    0    0  501    0  0.00000000000E+00 -0.00000000000E+00 -0.70592158487E+03  0.70592158487E+03  0.00000000000E+00 0. -1.
         23    2    1    2    0    0  0.21126986039E+02  0.58963860302E+03  0.99765555817E+03  0.11635622483E+04  0.10217857520E+03 0.  0.
         13    1    3    3    0    0  0.35163312655E+02  0.32301780064E+03  0.63408164724E+03  0.71248613562E+03  0.00000000000E+00 0. -1.
        -13    1    3    3    0    0 -0.14036326616E+02  0.26662080238E+03  0.36357391093E+03  0.45107611269E+03  0.00000000000E+00 0.  1.
         22    1    1    2    0    0 -0.21126986039E+02 -0.58963860302E+03 -0.48326608106E+03  0.76267039854E+03  0.00000000000E+00 0. -1.
<mgrwt>
<rscale>  0 0.18562801E+04</rscale>
<asrwt>0</asrwt>
<pdfrwt beam="1">  1        1 0.10860332E+00 0.18562801E+04</pdfrwt>
<pdfrwt beam="2">  1       -1 0.18774016E+00 0.18562801E+04</pdfrwt>
<totfact> 0.46291170E+00</totfact>
</mgrwt>
</event>
<event>
 6    1  0.9562506E-007  0.2713702E+04  0.7818608E-02  0.8330573E-01
          2   -1    0    0  501    0  0.00000000000E+00  0.00000000000E+00  0.31507830846E+04  0.31507830846E+04  0.00000000000E+00 0. -1.
         -2   -1    0    0    0  501 -0.00000000000E+00 -0.00000000000E+00 -0.58431340968E+03  0.58431340968E+03  0.00000000000E+00 0.  1.
         23    2    1    2    0    0  0.89745752692E+03  0.97099779124E+03  0.16941399403E+04  0.21510428686E+04  0.92782336041E+02 0.  0.
         11    1    3    3    0    0  0.23054246812E+03  0.30646743195E+03  0.51731232123E+03  0.64395974575E+03  0.00000000000E+00 0. -1.
        -11    1    3    3    0    0  0.66691505880E+03  0.66453035929E+03  0.11768276191E+04  0.15070831229E+04  0.00000000000E+00 0.  1.
         22    1    1    2    0    0 -0.89745752692E+03 -0.97099779124E+03  0.87232973457E+03  0.15840536257E+04  0.00000000000E+00 0.  1.
<mgrwt>
<rscale>  0 0.27137021E+04</rscale>
<asrwt>0</asrwt>
<pdfrwt beam="1">  1        2 0.48473585E+00 0.27137021E+04</pdfrwt>
<pdfrwt beam="2">  1       -2 0.89894372E-01 0.27137021E+04</pdfrwt>
<totfact> 0.12959055E+00</totfact>
</mgrwt>
</event>
<event>
 6    1  0.9562506E-007  0.2879478E+04  0.7818608E-02  0.8279010E-01
          1   -1    0    0  501    0  0.00000000000E+00  0.00000000000E+00  0.95551490722E+03  0.95551490722E+03  0.00000000000E+00 0. -1.
         -1   -1    0    0    0  501 -0.00000000000E+00 -0.00000000000E+00 -0.21693517371E+04  0.21693517371E+04  0.00000000000E+00 0.  1.
         23    2    1    2    0    0  0.98515535533E+02 -0.14078899082E+04 -0.90839219643E+03  0.16808598132E+04  0.90851663248E+02 0.  0.
         13    1    3    3    0    0  0.11618284318E+03 -0.12440035696E+04 -0.80203723711E+03  0.14846908984E+04  0.00000000000E+00 0. -1.
        -13    1    3    3    0    0 -0.17667307648E+02 -0.16388633861E+03 -0.10635495931E+03  0.19616891474E+03  0.00000000000E+00 0.  1.
         22    1    1    2    0    0 -0.98515535533E+02  0.14078899082E+04 -0.30544463346E+03  0.14440068312E+04  0.00000000000E+00 0.  1.
<mgrwt>
<rscale>  0 0.28794777E+04</rscale>
<asrwt>0</asrwt>
<pdfrwt beam="1">  1        1 0.14700230E+00 0.28794777E+04</pdfrwt>
<pdfrwt beam="2">  1       -1 0.33374642E+00 0.28794777E+04</pdfrwt>
<totfact> 0.28060353E-01</totfact>
</mgrwt>
</event>
<event>
 6    1  0.9562506E-007  0.3753549E+04  0.7818608E-02  0.8056197E-01
         -1   -1    0    0    0  501 -0.00000000000E+00  0.00000000000E+00  0.21825442742E+04  0.21825442742E+04  0.00000000000E+00 0.  1.
          1   -1    0    0  501    0  0.00000000000E+00 -0.00000000000E+00 -0.16138428268E+04  0.16138428268E+04  0.00000000000E+00 0. -1.
         23    2    1    2    0    0  0.12637735712E+04  0.12035614029E+04 -0.41047576461E+03  0.17952694876E+04  0.93906815047E+02 0.  0.
         11    1    3    3    0    0  0.60114021970E+03  0.53355010326E+03 -0.15061129925E+03  0.81775854620E+03  0.00000000000E+00 0.  1.
        -11    1    3    3    0    0  0.66263335153E+03  0.67001129964E+03 -0.25986446536E+03  0.97751094140E+03  0.00000000000E+00 0. -1.
         22    1    1    2    0    0 -0.12637735712E+04 -0.12035614029E+04  0.97917721199E+03  0.20011176133E+04  0.00000000000E+00 0. -1.
<mgrwt>
<rscale>  0 0.37535495E+04</rscale>
<asrwt>0</asrwt>
<pdfrwt beam="1">  1        1 0.24828351E+00 0.37535495E+04</pdfrwt>
<pdfrwt beam="2">  1       -1 0.33577604E+00 0.37535495E+04</pdfrwt>
<totfact> 0.84092109E-02</totfact>
</mgrwt>
</event>
<event>
 6    1  0.9562506E-007  0.1515728E+04  0.7818608E-02  0.8874061E-01
         -2   -1    0    0    0  501 -0.00000000000E+00  0.00000000000E+00  0.79797033377E+03  0.79797033377E+03  0.00000000000E+00 0.  1.
          2   -1    0    0  501    0  0.00000000000E+00 -0.00000000000E+00 -0.71977356290E+03  0.71977356290E+03  0.00000000000E+00 0. -1.
         23    2    1    2    0    0 -0.45165547001E+02  0.57758031039E+03  0.52421001289E+03  0.78660317585E+03  0.91156333008E+02 0.  0.
         13    1    3    3    0    0 -0.69423611701E+02  0.45322322433E+03  0.43133044979E+03  0.62950527071E+03  0.00000000000E+00 0.  1.
        -13    1    3    3    0    0  0.24258064700E+02  0.12435708606E+03  0.92879563105E+02  0.15709790514E+03  0.00000000000E+00 0. -1.
         22    1    1    2    0    0  0.45165547001E+02 -0.57758031039E+03 -0.44601324202E+03  0.73114072082E+03  0.00000000000E+00 0. -1.
<mgrwt>
<rscale>  0 0.15157281E+04</rscale>
<asrwt>0</asrwt>
<pdfrwt beam="1">  1        2 0.11073439E+00 0.15157281E+04</pdfrwt>
<pdfrwt beam="2">  1       -2 0.12276467E+00 0.15157281E+04</pdfrwt>
<totfact> 0.19141630E+01</totfact>
</mgrwt>
</event>
<event>
 6    1  0.9562506E-007  0.1695008E+04  0.7818608E-02  0.8764216E-01
         -1   -1    0    0    0  501 -0.00000000000E+00  0.00000000000E+00  0.12769019285E+04  0.12769019285E+04  0.00000000000E+00 0.  1.
          1   -1    0    0  501    0  0.00000000000E+00 -0.00000000000E+00 -0.56250468929E+03  0.56250468929E+03  0.00000000000E+00 0. -1.
         23    2    1    2    0    0 -0.57850507084E+02  0.43348773452E+03 -0.42643545333E+03  0.61762205023E+03  0.91386563161E+02 0.  0.
         11    1    3    3    0    0 -0.59740761526E+02  0.13970050370E+03 -0.12565448494E+03  0.19716551146E+03  0.00000000000E+00 0. -1.
        -11    1    3    3    0    0  0.18902544422E+01  0.29378723081E+03 -0.30078096838E+03  0.42045653877E+03  0.00000000000E+00 0.  1.
         22    1    1    2    0    0  0.57850507084E+02 -0.43348773452E+03  0.11408326926E+04  0.12217845676E+04  0.00000000000E+00 0.  1.
<mgrwt>
<rscale>  0 0.16950083E+04</rscale>
<asrwt>0</asrwt>
<pdfrwt beam="1">  1        1 0.86539183E-01 0.16950083E+04</pdfrwt>
<pdfrwt beam="2">  1       -1 0.19644645E+00 0.16950083E+04</pdfrwt>
<totfact> 0.56964227E+00</totfact>
</mgrwt>
</event>
<event>
 6    1  0.9562506E-007  0.4607598E+03  0.7818608E-02  0.1024561E+00
          4   -1    0    0  501    0  0.00000000000E+00  0.00000000000E+00  0.82479352870E+02  0.82479352870E+02  0.00000000000E+00 0. -1.
         -4   -1    0    0    0  501 -0.00000000000E+00 -0.00000000000E+00 -0.64349328207E+03  0.64349328207E+03  0.00000000000E+00 0.  1.
         23    2    1    2    0    0 -0.18783976095E+03 -0.10708369528E+03 -0.36595460870E+03  0.43477024466E+03  0.91387616369E+02 0.  0.
         13    1    3    3    0    0 -0.99115533189E+02 -0.31982032303E+02 -0.99387057832E+02  0.14396015620E+03  0.00000000000E+00 0. -1.
        -13    1    3    3    0    0 -0.88724227765E+02 -0.75101662974E+02 -0.26656755087E+03  0.29081008846E+03  0.00000000000E+00 0.  1.
         22    1    1    2    0    0  0.18783976095E+03  0.10708369528E+03 -0.19505932050E+03  0.29120239028E+03  0.00000000000E+00 0.  1.
<mgrwt>
<rscale>  0 0.46075985E+03</rscale>
<asrwt>0</asrwt>
<pdfrwt beam="1">  1        4 0.12689131E-01 0.46075985E+03</pdfrwt>
<pdfrwt beam="2">  1       -4 0.98998968E-01 0.46075985E+03</pdfrwt>
<totfact> 0.85857655E+01</totfact>
</mgrwt>
</event>
<event>
 6    1  0.9562506E-007  0.2128604E+04  0.7818608E-02  0.8548747E-01
         -2   -1    0    0    0  501 -0.00000000000E+00  0.00000000000E+00  0.18129358237E+04  0.18129358237E+04  0.00000000000E+00 0.  1.
          2   -1    0    0  501    0  0.00000000000E+00 -0.00000000000E+00 -0.62480912944E+03  0.62480912944E+03  0.00000000000E+00 0. -1.
         23    2    1    2    0    0 -0.52060722428E+02  0.83258263618E+03 -0.15809969252E+03  0.85400581763E+03  0.91794656047E+02 0.  0.
         11    1    3    3    0    0 -0.26800086264E+02  0.56457847350E+03 -0.14961164535E+03  0.58468003368E+03  0.00000000000E+00 0. -1.
        -11    1    3    3    0    0 -0.25260636164E+02  0.26800416268E+03 -0.84880471759E+01  0.26932578395E+03  0.00000000000E+00 0.  1.
         22    1    1    2    0    0  0.52060722428E+02 -0.83258263618E+03  0.13462263868E+04  0.15837391355E+04  0.00000000000E+00 0.  1.
<mgrwt>
<rscale>  0 0.21286041E+04</rscale>
<asrwt>0</asrwt>
<pdfrwt beam="1">  1        2 0.96124482E-01 0.21286041E+04</pdfrwt>
<pdfrwt beam="2">  1       -2 0.27891320E+00 0.21286041E+04</pdfrwt>
<totfact> 0.18563735E+00</totfact>
</mgrwt>
</event>
<event>
 6    1  0.9562506E-007  0.3714835E+04  0.7818608E-02  0.8064682E-01
         -1   -1    0    0    0  501 -0.00000000000E+00  0.00000000000E+00  0.22331299070E+04  0.22331299070E+04  0.00000000000E+00 0.  1.
          1   -1    0    0  501    0  0.00000000000E+00 -0.00000000000E+00 -0.15449166467E+04  0.15449166467E+04  0.00000000000E+00 0. -1.
         23    2    1    2    0    0  0.20685834257E+03 -0.92697134756E+03  0.19664573036E+04  0.21855723506E+04  0.87783368960E+02 0.  0.
         13    1    3    3    0    0  0.14066243192E+03 -0.77492982710E+03  0.15998881720E+04  0.17832398379E+04  0.00000000000E+00 0. -1.
        -13    1    3    3    0    0  0.66195910659E+02 -0.15204152045E+03  0.36656913158E+03  0.40233251268E+03  0.00000000000E+00 0.  1.
         22    1    1    2    0    0 -0.20685834257E+03  0.92697134756E+03 -0.12782440433E+04  0.15924742030E+04  0.00000000000E+00 0. -1.
<mgrwt>
<rscale>  0 0.37148349E+04</rscale>
<asrwt>0</asrwt>
<pdfrwt beam="1">  1        1 0.23767948E+00 0.37148349E+04</pdfrwt>
<pdfrwt beam="2">  1       -1 0.34355845E+00 0.37148349E+04</pdfrwt>
<totfact> 0.83613080E-02</totfact>
</mgrwt>
</event>
<event>
 6    1  0.9562506E-007  0.3401274E+04  0.7818608E-02  0.8137594E-01
         -1   -1    0    0    0  501 -0.00000000000E+00  0.00000000000E+00  0.79295254084E+03  0.79295254084E+03  0.00000000000E+00 0.  1.
          1   -1    0    0  501    0  0.00000000000E+00 -0.00000000000E+00 -0.36473393689E+04  0.36473393689E+04  0.00000000000E+00 0. -1.
         23    2    1    2    0    0 -0.44276800118E+03  0.86910301923E+03 -0.32449137965E+04  0.33896278941E+04  0.93424582323E+02 0.  0.
         11    1    3    3    0    0 -0.11682312526E+03  0.30097842004E+03 -0.11757742353E+04  0.12192951670E+04  0.00000000000E+00 0. -1.
        -11    1    3    3    0    0 -0.32594487592E+03  0.56812459919E+03 -0.20691395612E+04  0.21703327271E+04  0.00000000000E+00 0.  1.
         22    1    1    2    0    0  0.44276800118E+03 -0.86910301923E+03  0.39052696839E+03  0.10506640157E+04  0.00000000000E+00 0.  1.
<mgrwt>
<rscale>  0 0.34012745E+04</rscale>
<asrwt>0</asrwt>
<pdfrwt beam="1">  1        1 0.56112912E+00 0.34012745E+04</pdfrwt>
<pdfrwt beam="2">  1       -1 0.12199270E+00 0.34012745E+04</pdfrwt>
<totfact> 0.92994270E-02</totfact>
</mgrwt>
</event>
<event>
 6    1  0.9562506E-007  0.6777055E+04  0.7818608E-02  0.7600875E-01
         -2   -1    0    0    0  501 -0.00000000000E+00  0.00000000000E+00  0.31646108911E+04  0.31646108911E+04  0.00000000000E+00 0.  1.
          2   -1    0    0  501    0  0.00000000000E+00 -0.00000000000E+00 -0.36282879364E+04  0.36282879364E+04  0.00000000000E+00 0. -1.
         23    2    1    2    0    0  0.30952318703E+04 -0.10640498920E+04  0.64500116916E+03  0.33372035448E+04  0.90766114615E+02 0.  0.
         11    1    3    3    0    0  0.15323190245E+04 -0.51341768362E+03  0.36288688168E+03  0.16562868711E+04  0.00000000000E+00 0.  1.
        -11    1    3    3    0    0  0.15629128459E+04 -0.55063220837E+03  0.28211428748E+03  0.16809166737E+04  0.00000000000E+00 0. -1.
         22    1    1    2    0    0 -0.30952318703E+04  0.10640498920E+04 -0.11086782144E+04  0.34556952827E+04  0.00000000000E+00 0.  1.
<mgrwt>
<rscale>  0 0.67770553E+04</rscale>
<asrwt>0</asrwt>
<pdfrwt beam="1">  1        2 0.55819814E+00 0.67770553E+04</pdfrwt>
<pdfrwt beam="2">  1       -2 0.48686322E+00 0.67770553E+04</pdfrwt>
<totfact> 0.84095890E-04</totfact>
</mgrwt>
</event>
<event>
 6    1  0.9562506E-007  0.9218027E+03  0.7818608E-02  0.9398730E-01
         -2   -1    0    0    0  501 -0.00000000000E+00  0.00000000000E+00  0.25021854898E+03  0.25021854898E+03  0.00000000000E+00 0.  1.
          2   -1    0    0  501    0  0.00000000000E+00 -0.00000000000E+00 -0.84897795825E+03  0.84897795825E+03  0.00000000000E+00 0. -1.
         23    2    1    2    0    0 -0.48793381190E+02 -0.26478391047E+03 -0.74192808236E+03  0.79425621431E+03  0.88850105733E+02 0.  0.
         13    1    3    3    0    0 -0.66043461187E+02 -0.20264667077E+03 -0.63003700779E+03  0.66511205306E+03  0.00000000000E+00 0.  1.
        -13    1    3    3    0    0  0.17250079997E+02 -0.62137239701E+02 -0.11189107457E+03  0.12914416125E+03  0.00000000000E+00 0. -1.
         22    1    1    2    0    0  0.48793381190E+02  0.26478391047E+03  0.14316867309E+03  0.30494029292E+03  0.00000000000E+00 0.  1.
<mgrwt>
<rscale>  0 0.92180265E+03</rscale>
<asrwt>0</asrwt>
<pdfrwt beam="1">  1        2 0.13061199E+00 0.92180265E+03</pdfrwt>
<pdfrwt beam="2">  1       -2 0.38495161E-01 0.92180265E+03</pdfrwt>
<totfact> 0.20287758E+02</totfact>
</mgrwt>
</event>
<event>
 6    1  0.9562506E-007  0.8104209E+03  0.7818608E-02  0.9545055E-01
          1   -1    0    0  501    0  0.00000000000E+00  0.00000000000E+00  0.56468214618E+03  0.56468214618E+03  0.00000000000E+00 0. -1.
         -1   -1    0    0    0  501 -0.00000000000E+00 -0.00000000000E+00 -0.29077507302E+03  0.29077507302E+03  0.00000000000E+00 0.  1.
         23    2    1    2    0    0 -0.64397195708E+02 -0.25429036239E+03  0.45784897029E+03  0.53507430963E+03  0.88703156693E+02 0.  0.
         11    1    3    3    0    0 -0.26757329456E+02 -0.16853270106E+02  0.26503049763E+02  0.41260138628E+02  0.00000000000E+00 0.  1.
        -11    1    3    3    0    0 -0.37639866252E+02 -0.23743709228E+03  0.43134592053E+03  0.49381417100E+03  0.00000000000E+00 0. -1.
         22    1    1    2    0    0  0.64397195708E+02  0.25429036239E+03 -0.18394189714E+03  0.32038290956E+03  0.00000000000E+00 0.  1.
<mgrwt>
<rscale>  0 0.81042086E+03</rscale>
<asrwt>0</asrwt>
<pdfrwt beam="1">  1        1 0.86874176E-01 0.81042086E+03</pdfrwt>
<pdfrwt beam="2">  1       -1 0.44734627E-01 0.81042086E+03</pdfrwt>
<totfact> 0.18702271E+02</totfact>
</mgrwt>
</event>
<event>
 6    1  0.9562506E-007  0.7595965E+03  0.7818608E-02  0.9620414E-01
          2   -1    0    0  501    0  0.00000000000E+00  0.00000000000E+00  0.50275229648E+03  0.50275229648E+03  0.00000000000E+00 0. -1.
         -2   -1    0    0    0  501 -0.00000000000E+00 -0.00000000000E+00 -0.28691404022E+03  0.28691404022E+03  0.00000000000E+00 0.  1.
         23    2    1    2    0    0 -0.20860549362E+03  0.19942467152E+03  0.35728376676E+03  0.46827361117E+03  0.91334732456E+02 0.  0.
         11    1    3    3    0    0 -0.13389124118E+03  0.82448115701E+02  0.23803968670E+03  0.28528485535E+03  0.00000000000E+00 0. -1.
        -11    1    3    3    0    0 -0.74714252442E+02  0.11697655582E+03  0.11924408006E+03  0.18298875582E+03  0.00000000000E+00 0.  1.
         22    1    1    2    0    0  0.20860549362E+03 -0.19942467152E+03 -0.14144551050E+03  0.32139272552E+03  0.00000000000E+00 0.  1.
<mgrwt>
<rscale>  0 0.75959645E+03</rscale>
<asrwt>0</asrwt>
<pdfrwt beam="1">  1        2 0.77346507E-01 0.75959645E+03</pdfrwt>
<pdfrwt beam="2">  1       -2 0.44140622E-01 0.75959645E+03</pdfrwt>
<totfact> 0.30006356E+02</totfact>
</mgrwt>
</event>
<event>
 6    1  0.9562506E-007  0.1592550E+04  0.7818608E-02  0.8825138E-01
          1   -1    0    0  501    0  0.00000000000E+00  0.00000000000E+00  0.96374030712E+03  0.96374030712E+03  0.00000000000E+00 0. -1.
         -1   -1    0    0    0  501 -0.00000000000E+00 -0.00000000000E+00 -0.65790951542E+03  0.65790951542E+03  0.00000000000E+00 0.  1.
         23    2    1    2    0    0  0.23271753003E+03 -0.63072317729E+03  0.58300611781E+03  0.89446667054E+03  0.90583200143E+02 0.  0.
         13    1    3    3    0    0  0.14711379168E+03 -0.29815471420E+03  0.24862674342E+03  0.41515534303E+03  0.00000000000E+00 0.  1.
        -13    1    3    3    0    0  0.85603738346E+02 -0.33256846309E+03  0.33437937439E+03  0.47931132751E+03  0.00000000000E+00 0. -1.
         22    1    1    2    0    0 -0.23271753003E+03  0.63072317729E+03 -0.27717532611E+03  0.72718315200E+03  0.00000000000E+00 0.  1.
<mgrwt>
<rscale>  0 0.15925501E+04</rscale>
<asrwt>0</asrwt>
<pdfrwt beam="1">  1        1 0.14826774E+00 0.15925501E+04</pdfrwt>
<pdfrwt beam="2">  1       -1 0.10121685E+00 0.15925501E+04</pdfrwt>
<totfact> 0.14387495E+01</totfact>
</mgrwt>
</event>
<event>
 6    1  0.9562506E-007  0.2803106E+04  0.7818608E-02  0.8302305E-01
          1   -1    0    0  501    0  0.00000000000E+00  0.00000000000E+00  0.15632871500E+04  0.15632871500E+04  0.00000000000E+00 0. -1.
         -1   -1    0    0    0  501 -0.00000000000E+00 -0.00000000000E+00 -0.12565514183E+04  0.12565514183E+04  0.00000000000E+00 0.  1.
         23    2    1    2    0    0 -0.27134793770E+03 -0.88678506384E+03 -0.90111316060E+03  0.12970396979E+04  0.10143765123E+03 0.  0.
         13    1    3    3    0    0 -0.58542977036E+02 -0.98229610929E+02 -0.85575421507E+02  0.14282678107E+03  0.00000000000E+00 0. -1.
        -13    1    3    3    0    0 -0.21280496067E+03 -0.78855545291E+03 -0.81553773910E+03  0.11542129169E+04  0.00000000000E+00 0.  1.
         22    1    1    2    0    0  0.27134793770E+03  0.88678506384E+03  0.12078488923E+04  0.15227988703E+04  0.00000000000E+00 0. -1.
<mgrwt>
<rscale>  0 0.28031059E+04</rscale>
<asrwt>0</asrwt>
<pdfrwt beam="1">  1        1 0.24050572E+00 0.28031059E+04</pdfrwt>
<pdfrwt beam="2">  1       -1 0.19331560E+00 0.28031059E+04</pdfrwt>
<totfact> 0.85743360E-01</totfact>
</mgrwt>
</event>
<event>
 6    1  0.9562506E-007  0.1250398E+04  0.7818608E-02  0.9069852E-01
          2   -1    0    0  501    0  0.00000000000E+00  0.00000000000E+00  0.12657503516E+04  0.12657503516E+04  0.00000000000E+00 0. -1.
         -2   -1    0    0    0  501 -0.00000000000E+00 -0.00000000000E+00 -0.30880795954E+03  0.30880795954E+03  0.00000000000E+00 0.  1.
         23    2    1    2    0    0 -0.33814380453E+03 -0.34050235231E+03 -0.17408000871E+02  0.48844516203E+03  0.89401081335E+02 0.  0.
         11    1    3    3    0    0 -0.70143165982E+02 -0.12607512816E+03 -0.16540418096E+02  0.14521910034E+03  0.00000000000E+00 0. -1.
        -11    1    3    3    0    0 -0.26800063854E+03 -0.21442722416E+03 -0.86758277437E+00  0.34322606168E+03  0.00000000000E+00 0.  1.
         22    1    1    2    0    0  0.33814380453E+03  0.34050235231E+03  0.97435039295E+03  0.10861131491E+04  0.00000000000E+00 0.  1.
<mgrwt>
<rscale>  0 0.12503980E+04</rscale>
<asrwt>0</asrwt>
<pdfrwt beam="1">  1        2 0.19473082E+00 0.12503980E+04</pdfrwt>
<pdfrwt beam="2">  1       -2 0.47508917E-01 0.12503980E+04</pdfrwt>
<totfact> 0.71466175E+01</totfact>
</mgrwt>
</event>
<event>
 6    1  0.9562506E-007  0.1855850E+04  0.7818608E-02  0.8677150E-01
         -2   -1    0    0    0  501 -0.00000000000E+00  0.00000000000E+00  0.31377248510E+03  0.31377248510E+03  0.00000000000E+00 0.  1.
          2   -1    0    0  501    0  0.00000000000E+00 -0.00000000000E+00 -0.27441683776E+04  0.27441683776E+04  0.00000000000E+00 0. -1.
         23    2    1    2    0    0  0.76544100897E+03  0.84952518047E+02 -0.37220629355E+03  0.86038283304E+03  0.92758966650E+02 0.  0.
         13    1    3    3    0    0  0.49504160222E+03  0.96507039992E+02 -0.22470273944E+03  0.55215135407E+03  0.00000000000E+00 0.  1.
        -13    1    3    3    0    0  0.27039940676E+03 -0.11554521945E+02 -0.14750355411E+03  0.30823147897E+03  0.00000000000E+00 0. -1.
         22    1    1    2    0    0 -0.76544100897E+03 -0.84952518047E+02 -0.20581895990E+04  0.21975580297E+04  0.00000000000E+00 0. -1.
<mgrwt>
<rscale>  0 0.18558497E+04</rscale>
<asrwt>0</asrwt>
<pdfrwt beam="1">  1        2 0.42217976E+00 0.18558497E+04</pdfrwt>
<pdfrwt beam="2">  1       -2 0.48272689E-01 0.18558497E+04</pdfrwt>
<totfact> 0.95656946E+00</totfact>
</mgrwt>
</event>
<event>
 6    1  0.9562506E-007  0.1849376E+04  0.7818608E-02  0.8680474E-01
         -1   -1    0    0    0  501 -0.00000000000E+00  0.00000000000E+00  0.85496844005E+03  0.85496844005E+03  0.00000000000E+00 0.  1.
          1   -1    0    0  501    0  0.00000000000E+00 -0.00000000000E+00 -0.10000931835E+04  0.10000931835E+04  0.00000000000E+00 0. -1.
         23    2    1    2    0    0 -0.64996715665E+03 -0.27291423098E+03 -0.66940643070E+03  0.97653400883E+03  0.92597077400E+02 0.  0.
         13    1    3    3    0    0 -0.14633702995E+03 -0.42441212110E+02 -0.19355330459E+03  0.24633039710E+03  0.00000000000E+00 0.  1.
        -13    1    3    3    0    0 -0.50363012670E+03 -0.23047301887E+03 -0.47585312611E+03  0.73020361173E+03  0.00000000000E+00 0. -1.
         22    1    1    2    0    0  0.64996715665E+03  0.27291423098E+03  0.52428168727E+03  0.87852761471E+03  0.00000000000E+00 0.  1.
<mgrwt>
<rscale>  0 0.18493762E+04</rscale>
<asrwt>0</asrwt>
<pdfrwt beam="1">  1        1 0.15386049E+00 0.18493762E+04</pdfrwt>
<pdfrwt beam="2">  1       -1 0.13153361E+00 0.18493762E+04</pdfrwt>
<totfact> 0.69990280E+00</totfact>
</mgrwt>
</event>
<event>
 6    1  0.9562506E-007  0.1699187E+04  0.7818608E-02  0.8761828E-01
          2   -1    0    0  501    0  0.00000000000E+00  0.00000000000E+00  0.15483793288E+04  0.15483793288E+04  0.00000000000E+00 0. -1.
         -2   -1    0    0    0  501 -0.00000000000E+00 -0.00000000000E+00 -0.46617055319E+03  0.46617055319E+03  0.00000000000E+00 0.  1.
         23    2    1    2    0    0 -0.39260253376E+03  0.67348390031E+03  0.14935598382E+03  0.79884776196E+03  0.90184385547E+02 0.  0.
         11    1    3    3    0    0 -0.21168798077E+03  0.43982978918E+03  0.72175683724E+02  0.49342818523E+03  0.00000000000E+00 0.  1.
        -11    1    3    3    0    0 -0.18091455299E+03  0.23365411113E+03  0.77180300100E+02  0.30541957673E+03  0.00000000000E+00 0. -1.
         22    1    1    2    0    0  0.39260253376E+03 -0.67348390031E+03  0.93285279177E+03  0.12157021200E+04  0.00000000000E+00 0. -1.
<mgrwt>
<rscale>  0 0.16991867E+04</rscale>
<asrwt>0</asrwt>
<pdfrwt beam="1">  1        2 0.23821220E+00 0.16991867E+04</pdfrwt>
<pdfrwt beam="2">  1       -2 0.71718548E-01 0.16991867E+04</pdfrwt>
<totfact> 0.19994599E+01</totfact>
</mgrwt>
</event>
<event>
 6    1  0.9562506E-007  0.2134242E+04  0.7818608E-02  0.8546308E-01
         -1   -1    0    0    0  501 -0.00000000000E+00  0.00000000000E+00  0.39225854003E+03  0.39225854003E+03  0.00000000000E+00 0.  1.
          1   -1    0    0  501    0  0.00000000000E+00 -0.00000000000E+00 -0.29030525621E+04  0.29030525621E+04  0.00000000000E+00 0. -1.
         23    2    1    2    0    0 -0.23001977105E+03 -0.47338394336E+03 -0.26873122666E+04  0.27401893646E+04  0.99945398146E+02 0.  0.
         11    1    3    3    0    0 -0.11282458210E+03 -0.24813806959E+03 -0.11367289171E+04  0.11689544555E+04  0.00000000000E+00 0.  1.
        -11    1    3    3    0    0 -0.11719518895E+03 -0.22524587377E+03 -0.15505833495E+04  0.15712349091E+04  0.00000000000E+00 0. -1.
         22    1    1    2    0    0  0.23001977105E+03  0.47338394336E+03  0.17651824450E+03  0.55512173759E+03  0.00000000000E+00 0.  1.
<mgrwt>
<rscale>  0 0.21342419E+04</rscale>
<asrwt>0</asrwt>
<pdfrwt beam="1">  1        1 0.44662345E+00 0.21342419E+04</pdfrwt>
<pdfrwt beam="2">  1       -1 0.60347470E-01 0.21342419E+04</pdfrwt>
<totfact> 0.17963727E+00</totfact>
</mgrwt>
</event>
<event>
 6    1  0.9562506E-007  0.2749325E+04  0.7818608E-02  0.8319176E-01
          2   -1    0    0  501    0  0.00000000000E+00  0.00000000000E+00  0.17013135665E+04  0.17013135665E+04  0.00000000000E+00 0. -1.
         -2   -1    0    0    0  501 -0.00000000000E+00 -0.00000000000E+00 -0.11107282278E+04  0.11107282278E+04  0.00000000000E+00 0.  1.
         23    2    1    2    0    0 -0.91289427033E+03 -0.58580688450E+03  0.11568926486E+04  0.15884202744E+04  0.90181556956E+02 0.  0.
         11    1    3    3    0    0 -0.24589239493E+03 -0.12264048931E+03  0.25582638893E+03  0.37543428290E+03  0.00000000000E+00 0.  1.
        -11    1    3    3    0    0 -0.66700187540E+03 -0.46316639519E+03  0.90106625962E+03  0.12129859915E+04  0.00000000000E+00 0. -1.
         22    1    1    2    0    0  0.91289427033E+03  0.58580688450E+03 -0.56630730987E+03  0.12236215199E+04  0.00000000000E+00 0.  1.
<mgrwt>
<rscale>  0 0.27493250E+04</rscale>
<asrwt>0</asrwt>
<pdfrwt beam="1">  1        2 0.26174055E+00 0.27493250E+04</pdfrwt>
<pdfrwt beam="2">  1       -2 0.17088127E+00 0.27493250E+04</pdfrwt>
<totfact> 0.17974307E+00</totfact>
</mgrwt>
</event>
<event>
 6    1  0.9562506E-007  0.3721936E+04  0.7818608E-02  0.8063118E-01
         -2   -1    0    0    0  501 -0.00000000000E+00  0.00000000000E+00  0.15418597310E+04  0.15418597310E+04  0.00000000000E+00 0.  1.
          2   -1    0    0  501    0  0.00000000000E+00 -0.00000000000E+00 -0.22461199453E+04  0.22461199453E+04  0.00000000000E+00 0. -1.
         23    2    1    2    0    0  0.10585314574E+04  0.82448967967E+03 -0.16631001034E+04  0.21388447482E+04  0.92102251197E+02 0.  0.
         13    1    3    3    0    0  0.32454698446E+03  0.28447031891E+03 -0.47975330941E+03  0.64530407201E+03  0.00000000000E+00 0.  1.
        -13    1    3    3    0    0  0.73398447299E+03  0.54001936076E+03 -0.11833467940E+04  0.14935406762E+04  0.00000000000E+00 0. -1.
         22    1    1    2    0    0 -0.10585314574E+04 -0.82448967967E+03  0.95883988912E+03  0.16491349282E+04  0.00000000000E+00 0.  1.
<mgrwt>
<rscale>  0 0.37219360E+04</rscale>
<asrwt>0</asrwt>
<pdfrwt beam="1">  1        2 0.34555691E+00 0.37219360E+04</pdfrwt>
<pdfrwt beam="2">  1       -2 0.23720919E+00 0.37219360E+04</pdfrwt>
<totfact> 0.30256529E-01</totfact>
</mgrwt>
</event>
<event>
 6    1  0.9562506E-007  0.4365452E+04  0.7818608E-02  0.7934625E-01
          2   -1    0    0  501    0  0.00000000000E+00  0.00000000000E+00  0.27226405384E+04  0.27226405384E+04  0.00000000000E+00 0. -1.
         -2   -1    0    0    0  501 -0.00000000000E+00 -0.00000000000E+00 -0.17498795736E+04  0.17498795736E+04  0.00000000000E+00 0.  1.
         23    2    1    2    0    0  0.18421702091E+04 -0.22930245366E+02  0.16839736980E+04  0.24976934291E+04  0.92672406767E+02 0.  0.
         13    1    3    3    0    0  0.12770952333E+04 -0.37346783897E+01  0.11109750949E+04  0.16927054806E+04  0.00000000000E+00 0. -1.
        -13    1    3    3    0    0  0.56507497583E+03 -0.19195566976E+02  0.57299860306E+03  0.80498794848E+03  0.00000000000E+00 0.  1.
         22    1    1    2    0    0 -0.18421702091E+04  0.22930245366E+02 -0.71121273327E+03  0.19748266829E+04  0.00000000000E+00 0.  1.
<mgrwt>
<rscale>  0 0.43654521E+04</rscale>
<asrwt>0</asrwt>
<pdfrwt beam="1">  1        2 0.41886778E+00 0.43654521E+04</pdfrwt>
<pdfrwt beam="2">  1       -2 0.26921224E+00 0.43654521E+04</pdfrwt>
<totfact> 0.96613780E-02</totfact>
</mgrwt>
</event>
<event>
 6    1  0.9562506E-007  0.2701265E+04  0.7818608E-02  0.8334595E-01
          2   -1    0    0  501    0  0.00000000000E+00  0.00000000000E+00  0.25555373531E+04  0.25555373531E+04  0.00000000000E+00 0. -1.
         -2   -1    0    0    0  501 -0.00000000000E+00 -0.00000000000E+00 -0.71382578676E+03  0.71382578676E+03  0.00000000000E+00 0.  1.
         23    2    1    2    0    0  0.48223980528E+03  0.11792855253E+04  0.38501639973E+03  0.13341033670E+04  0.91239167556E+02 0.  0.
         11    1    3    3    0    0  0.13575451817E+03  0.26812829288E+03  0.59435542967E+02  0.30635707012E+03  0.00000000000E+00 0. -1.
        -11    1    3    3    0    0  0.34648528712E+03  0.91115723245E+03  0.32558085676E+03  0.10277462969E+04  0.00000000000E+00 0.  1.
         22    1    1    2    0    0 -0.48223980528E+03 -0.11792855253E+04  0.14566951666E+04  0.19352597729E+04  0.00000000000E+00 0. -1.
<mgrwt>
<rscale>  0 0.27012652E+04</rscale>
<asrwt>0</asrwt>
<pdfrwt beam="1">  1        2 0.39315959E+00 0.27012652E+04</pdfrwt>
<pdfrwt beam="2">  1       -2 0.10981935E+00 0.27012652E+04</pdfrwt>
<totfact> 0.18693103E+00</totfact>
</mgrwt>
</event>
<event>
 6    1  0.9562506E-007  0.1557156E+04  0.7818608E-02  0.8847310E-01
          1   -1    0    0  501    0  0.00000000000E+00  0.00000000000E+00  0.63057466081E+03  0.63057466081E+03  0.00000000000E+00 0. -1.
         -1   -1    0    0    0  501 -0.00000000000E+00 -0.00000000000E+00 -0.96131909433E+03  0.96131909433E+03  0.00000000000E+00 0.  1.
         23    2    1    2    0    0 -0.46092421745E+03 -0.43974725639E+03  0.28454466919E+03  0.70622481945E+03  0.10935740996E+03 0.  0.
         11    1    3    3    0    0 -0.18774563343E+03 -0.17467995698E+03  0.56803157902E+02  0.26265587560E+03  0.00000000000E+00 0. -1.
        -11    1    3    3    0    0 -0.27317858402E+03 -0.26506729942E+03  0.22774151129E+03  0.44356894385E+03  0.00000000000E+00 0.  1.
         22    1    1    2    0    0  0.46092421745E+03  0.43974725639E+03 -0.61528910271E+03  0.88566893569E+03  0.00000000000E+00 0.  1.
<mgrwt>
<rscale>  0 0.15571557E+04</rscale>
<asrwt>0</asrwt>
<pdfrwt beam="1">  1        1 0.97011487E-01 0.15571557E+04</pdfrwt>
<pdfrwt beam="2">  1       -1 0.14789524E+00 0.15571557E+04</pdfrwt>
<totfact> 0.11116825E+01</totfact>
</mgrwt>
</event>
<event>
 6    1  0.9562506E-007  0.1425271E+04  0.7818608E-02  0.8935726E-01
          2   -1    0    0  501    0  0.00000000000E+00  0.00000000000E+00  0.14056053055E+04  0.14056053055E+04  0.00000000000E+00 0. -1.
         -2   -1    0    0    0  501 -0.00000000000E+00 -0.00000000000E+00 -0.36130315099E+03  0.36130315099E+03  0.00000000000E+00 0.  1.
         23    2    1    2    0    0 -0.40821147358E+03 -0.55896256289E+03  0.33005270443E+03  0.77230902415E+03  0.91927619345E+02 0.  0.
         11    1    3    3    0    0 -0.12200466740E+03 -0.14333738083E+03  0.48234630358E+02  0.19431243701E+03  0.00000000000E+00 0. -1.
        -11    1    3    3    0    0 -0.28620680618E+03 -0.41562518206E+03  0.28181807407E+03  0.57799658714E+03  0.00000000000E+00 0.  1.
         22    1    1    2    0    0  0.40821147358E+03  0.55896256289E+03  0.71424945010E+03  0.99459943236E+03  0.00000000000E+00 0. -1.
<mgrwt>
<rscale>  0 0.14252714E+04</rscale>
<asrwt>0</asrwt>
<pdfrwt beam="1">  1        2 0.21624697E+00 0.14252714E+04</pdfrwt>
<pdfrwt beam="2">  1       -2 0.55585101E-01 0.14252714E+04</pdfrwt>
<totfact> 0.42433187E+01</totfact>
</mgrwt>
</event>
<event>
 6    1  0.9562506E-007  0.1775966E+04  0.7818608E-02  0.8719186E-01
          1   -1    0    0  501    0  0.00000000000E+00  0.00000000000E+00  0.29836891403E+04  0.29836891403E+04  0.00000000000E+00 0. -1.
         -1   -1    0    0    0  501 -0.00000000000E+00 -0.00000000000E+00 -0.26427488853E+03  0.26427488853E+03  0.00000000000E+00 0.  1.
         23    2    1    2    0    0  0.52011871418E+03  0.28329806322E+03  0.15898233400E+03  0.61992428885E+03  0.90826603546E+02 0.  0.
         11    1    3    3    0    0  0.39279894184E+03  0.16752862368E+03  0.10886617888E+03  0.44069115417E+03  0.00000000000E+00 0. -1.
        -11    1    3    3    0    0  0.12731977234E+03  0.11576943954E+03  0.50116155129E+02  0.17923313467E+03  0.00000000000E+00 0.  1.
         22    1    1    2    0    0 -0.52011871418E+03 -0.28329806322E+03  0.25604319178E+04  0.26280397400E+04  0.00000000000E+00 0. -1.
<mgrwt>
<rscale>  0 0.17759663E+04</rscale>
<asrwt>0</asrwt>
<pdfrwt beam="1">  1        1 0.45902908E+00 0.17759663E+04</pdfrwt>
<pdfrwt beam="2">  1       -1 0.40657677E-01 0.17759663E+04</pdfrwt>
<totfact> 0.34449966E+00</totfact>
</mgrwt>
</event>
<event>
 6    1  0.9562506E-007  0.2598946E+04  0.7818608E-02  0.8368559E-01
         -2   -1    0    0    0  501 -0.00000000000E+00  0.00000000000E+00  0.58904563384E+03  0.58904563384E+03  0.00000000000E+00 0.  1.
          2   -1    0    0  501    0  0.00000000000E+00 -0.00000000000E+00 -0.28667213438E+04  0.28667213438E+04  0.00000000000E+00 0. -1.
         23    2    1    2    0    0  0.80558193655E+03  0.13667155578E+03  0.20140855911E+03  0.84549875697E+03  0.81617214451E+02 0.  0.
         13    1    3    3    0    0  0.51215842525E+03  0.48093642575E+02  0.13620290854E+03  0.53213765447E+03  0.00000000000E+00 0.  1.
        -13    1    3    3    0    0  0.29342351130E+03  0.88577913207E+02  0.65205650574E+02  0.31336110250E+03  0.00000000000E+00 0. -1.
         22    1    1    2    0    0 -0.80558193655E+03 -0.13667155578E+03 -0.24790842691E+04  0.26102682207E+04  0.00000000000E+00 0. -1.
<mgrwt>
<rscale>  0 0.25989457E+04</rscale>
<asrwt>0</asrwt>
<pdfrwt beam="1">  1        2 0.44103403E+00 0.25989457E+04</pdfrwt>
<pdfrwt beam="2">  1       -2 0.90622409E-01 0.25989457E+04</pdfrwt>
<totfact> 0.19373300E+00</totfact>
</mgrwt>
</event>
<event>
 6    1  0.9562506E-007  0.4446674E+04  0.7818608E-02  0.7920040E-01
         -2   -1    0    0    0  501 -0.00000000000E+00  0.00000000000E+00  0.21408398121E+04  0.21408398121E+04  0.00000000000E+00 0.  1.
          2   -1    0    0  501    0  0.00000000000E+00 -0.00000000000E+00 -0.23090134501E+04  0.23090134501E+04  0.00000000000E+00 0. -1.
         23    2    1    2    0    0 -0.15799051731E+04  0.99004100059E+03 -0.12943978945E+04  0.22716286148E+04  0.92461426919E+02 0.  0.
         11    1    3    3    0    0 -0.93568875893E+03  0.53263148788E+03 -0.75128361104E+03  0.13128734972E+04  0.00000000000E+00 0. -1.
        -11    1    3    3    0    0 -0.64421641414E+03  0.45740951271E+03 -0.54311428350E+03  0.95875511760E+03  0.00000000000E+00 0.  1.
         22    1    1    2    0    0  0.15799051731E+04 -0.99004100059E+03  0.11262242565E+04  0.21782246474E+04  0.00000000000E+00 0.  1.
<mgrwt>
<rscale>  0 0.44466742E+04</rscale>
<asrwt>0</asrwt>
<pdfrwt beam="1">  1        2 0.35523284E+00 0.44466742E+04</pdfrwt>
<pdfrwt beam="2">  1       -2 0.32935997E+00 0.44466742E+04</pdfrwt>
<totfact> 0.71428612E-02</totfact>
</mgrwt>
</event>
<event>
 6    1  0.9562506E-007  0.4278568E+04  0.7818608E-02  0.7950593E-01
         -2   -1    0    0    0  501 -0.00000000000E+00  0.00000000000E+00  0.23811925385E+04  0.23811925385E+04  0.00000000000E+00 0.  1.
          2   -1    0    0  501    0  0.00000000000E+00 -0.00000000000E+00 -0.19219510993E+04  0.19219510993E+04  0.00000000000E+00 0. -1.
         23    2    1    2    0    0  0.33259653548E+02  0.11772553088E+04  0.20247161162E+04  0.23441267335E+04  0.91752520210E+02 0.  0.
         11    1    3    3    0    0  0.50839156103E+02  0.41116989913E+03  0.67222411934E+03  0.78963952052E+03  0.00000000000E+00 0.  1.
        -11    1    3    3    0    0 -0.17579502555E+02  0.76608540963E+03  0.13524919969E+04  0.15544872130E+04  0.00000000000E+00 0. -1.
         22    1    1    2    0    0 -0.33259653548E+02 -0.11772553088E+04 -0.15654746771E+04  0.19590169043E+04  0.00000000000E+00 0. -1.
<mgrwt>
<rscale>  0 0.42785678E+04</rscale>
<asrwt>0</asrwt>
<pdfrwt beam="1">  1        2 0.29568479E+00 0.42785678E+04</pdfrwt>
<pdfrwt beam="2">  1       -2 0.36633731E+00 0.42785678E+04</pdfrwt>
<totfact> 0.69773431E-02</totfact>
</mgrwt>
</event>
<event>
 6    1  0.9562506E-007  0.1535864E+04  0.7818608E-02  0.8860948E-01
          1   -1    0    0  501    0  0.00000000000E+00  0.00000000000E+00  0.10981995561E+04  0.10981995561E+04  0.00000000000E+00 0. -1.
         -1   -1    0    0    0  501 -0.00000000000E+00 -0.00000000000E+00 -0.53698778955E+03  0.53698778955E+03  0.00000000000E+00 0.  1.
         23    2    1    2    0    0 -0.47038323785E+03 -0.60360678237E+03  0.28255775695E+03  0.82078597333E+03  0.90825050668E+02 0.  0.
         13    1    3    3    0    0 -0.19446514300E+03 -0.18825541176E+03  0.76691653282E+02  0.28131548407E+03  0.00000000000E+00 0. -1.
        -13    1    3    3    0    0 -0.27591809485E+03 -0.41535137062E+03  0.20586610367E+03  0.53947048926E+03  0.00000000000E+00 0.  1.
         22    1    1    2    0    0  0.47038323785E+03  0.60360678237E+03  0.27865400960E+03  0.81440137232E+03  0.00000000000E+00 0.  1.
<mgrwt>
<rscale>  0 0.15358643E+04</rscale>
<asrwt>0</asrwt>
<pdfrwt beam="1">  1        1 0.16895378E+00 0.15358643E+04</pdfrwt>
<pdfrwt beam="2">  1       -1 0.82613506E-01 0.15358643E+04</pdfrwt>
<totfact> 0.17865158E+01</totfact>
</mgrwt>
</event>
<event>
 6    1  0.9562506E-007  0.4060398E+04  0.7818608E-02  0.7992472E-01
         -1   -1    0    0    0  501 -0.00000000000E+00  0.00000000000E+00  0.11702548377E+04  0.11702548377E+04  0.00000000000E+00 0.  1.
          1   -1    0    0  501    0  0.00000000000E+00 -0.00000000000E+00 -0.35220602576E+04  0.35220602576E+04  0.00000000000E+00 0. -1.
         23    2    1    2    0    0  0.73850191350E+03  0.12511775818E+04 -0.28135525231E+04  0.31678345921E+04  0.90927362113E+02 0.  0.
         11    1    3    3    0    0  0.61378388216E+03  0.10819538543E+04 -0.24564078258E+04  0.27534150075E+04  0.00000000000E+00 0.  1.
        -11    1    3    3    0    0  0.12471803134E+03  0.16922372757E+03 -0.35714469728E+03  0.41441958461E+03  0.00000000000E+00 0. -1.
         22    1    1    2    0    0 -0.73850191350E+03 -0.12511775818E+04  0.46174710318E+03  0.15244805033E+04  0.00000000000E+00 0.  1.
<mgrwt>
<rscale>  0 0.40603980E+04</rscale>
<asrwt>0</asrwt>
<pdfrwt beam="1">  1        1 0.54185543E+00 0.40603980E+04</pdfrwt>
<pdfrwt beam="2">  1       -1 0.18003920E+00 0.40603980E+04</pdfrwt>
<totfact> 0.38819476E-02</totfact>
</mgrwt>
</event>
<event>
 6    1  0.9562506E-007  0.3117249E+04  0.7818608E-02  0.8211020E-01
         -2   -1    0    0    0  501 -0.00000000000E+00  0.00000000000E+00  0.15859474973E+04  0.15859474973E+04  0.00000000000E+00 0.  1.
          2   -1    0    0  501    0  0.00000000000E+00 -0.00000000000E+00 -0.15317726253E+04  0.15317726253E+04  0.00000000000E+00 0. -1.
         23    2    1    2    0    0  0.10707856133E+04 -0.11215790765E+04 -0.11680996458E+03  0.15576697168E+04  0.90382101849E+02 0.  0.
         11    1    3    3    0    0  0.29105489910E+03 -0.36338212048E+03 -0.44023810832E+02  0.46765116882E+03  0.00000000000E+00 0.  1.
        -11    1    3    3    0    0  0.77973071419E+03 -0.75819695601E+03 -0.72786153752E+02  0.10900185480E+04  0.00000000000E+00 0. -1.
         22    1    1    2    0    0 -0.10707856133E+04  0.11215790765E+04  0.17098483656E+03  0.15600504058E+04  0.00000000000E+00 0.  1.
<mgrwt>
<rscale>  0 0.31172494E+04</rscale>
<asrwt>0</asrwt>
<pdfrwt beam="1">  1        2 0.23565733E+00 0.31172494E+04</pdfrwt>
<pdfrwt beam="2">  1       -2 0.24399192E+00 0.31172494E+04</pdfrwt>
<totfact> 0.72271555E-01</totfact>
</mgrwt>
</event>
<event>
 6    1  0.9562506E-007  0.1346953E+04  0.7818608E-02  0.8993138E-01
          2   -1    0    0  501    0  0.00000000000E+00  0.00000000000E+00  0.97294467538E+03  0.97294467538E+03  0.00000000000E+00 0. -1.
         -2   -1    0    0    0  501 -0.00000000000E+00 -0.00000000000E+00 -0.46618325662E+03  0.46618325662E+03  0.00000000000E+00 0.  1.
         23    2    1    2    0    0  0.55020086023E+03 -0.22294957830E+03 -0.80532238575E+02  0.60405826962E+03  0.77288101192E+02 0.  0.
         13    1    3    3    0    0  0.27962900212E+03 -0.13976824412E+03 -0.72317694594E+02  0.32086973968E+03  0.00000000000E+00 0. -1.
        -13    1    3    3    0    0  0.27057185812E+03 -0.83181334181E+02 -0.82145439808E+01  0.28318852995E+03  0.00000000000E+00 0.  1.
         22    1    1    2    0    0 -0.55020086023E+03  0.22294957830E+03  0.58729365734E+03  0.83506966237E+03  0.00000000000E+00 0. -1.
<mgrwt>
<rscale>  0 0.13469529E+04</rscale>
<asrwt>0</asrwt>
<pdfrwt beam="1">  1        2 0.14968380E+00 0.13469529E+04</pdfrwt>
<pdfrwt beam="2">  1       -2 0.71720501E-01 0.13469529E+04</pdfrwt>
<totfact> 0.45172327E+01</totfact>
</mgrwt>
</event>
<event>
 6    1  0.9562506E-007  0.3933662E+04  0.7818608E-02  0.8018064E-01
          1   -1    0    0  501    0  0.00000000000E+00  0.00000000000E+00  0.15421760480E+04  0.15421760480E+04  0.00000000000E+00 0. -1.
         -1   -1    0    0    0  501 -0.00000000000E+00 -0.00000000000E+00 -0.25084187859E+04  0.25084187859E+04  0.00000000000E+00 0.  1.
         23    2    1    2    0    0 -0.14337588142E+04 -0.65788096905E+03  0.72440294416E+03  0.17382898088E+04  0.91761250705E+02 0.  0.
         13    1    3    3    0    0 -0.52357394238E+03 -0.20297399590E+03  0.28851393195E+03  0.63132274241E+03  0.00000000000E+00 0. -1.
        -13    1    3    3    0    0 -0.91018487181E+03 -0.45490697315E+03  0.43588901221E+03  0.11069670664E+04  0.00000000000E+00 0.  1.
         22    1    1    2    0    0  0.14337588142E+04  0.65788096905E+03 -0.16906456820E+04  0.23123050250E+04  0.00000000000E+00 0.  1.
<mgrwt>
<rscale>  0 0.39336616E+04</rscale>
<asrwt>0</asrwt>
<pdfrwt beam="1">  1        1 0.23725786E+00 0.39336616E+04</pdfrwt>
<pdfrwt beam="2">  1       -1 0.38591058E+00 0.39336616E+04</pdfrwt>
<totfact> 0.42914886E-02</totfact>
</mgrwt>
</event>
<event>
 6    1  0.9562506E-007  0.1822730E+04  0.7818608E-02  0.8694305E-01
         -2   -1    0    0    0  501 -0.00000000000E+00  0.00000000000E+00  0.49372105141E+03  0.49372105141E+03  0.00000000000E+00 0.  1.
          2   -1    0    0  501    0  0.00000000000E+00 -0.00000000000E+00 -0.16822981376E+04  0.16822981376E+04  0.00000000000E+00 0. -1.
         23    2    1    2    0    0  0.74674976254E+03 -0.45099822502E+03 -0.29521350029E+03  0.92736667393E+03  0.10873513849E+03 0.  0.
         13    1    3    3    0    0  0.23954740073E+03 -0.11360384586E+03 -0.45480356065E+02  0.26899303667E+03  0.00000000000E+00 0. -1.
        -13    1    3    3    0    0  0.50720236181E+03 -0.33739437916E+03 -0.24973314422E+03  0.65837363726E+03  0.00000000000E+00 0.  1.
         22    1    1    2    0    0 -0.74674976254E+03  0.45099822502E+03 -0.89336358593E+03  0.12486525151E+04  0.00000000000E+00 0. -1.
<mgrwt>
<rscale>  0 0.18227298E+04</rscale>
<asrwt>0</asrwt>
<pdfrwt beam="1">  1        2 0.25881510E+00 0.18227298E+04</pdfrwt>
<pdfrwt beam="2">  1       -2 0.75957084E-01 0.18227298E+04</pdfrwt>
<totfact> 0.14675155E+01</totfact>
</mgrwt>
</event>
<event>
 6    1  0.9562506E-007  0.3318224E+04  0.7818608E-02  0.8158274E-01
          1   -1    0    0  501    0  0.00000000000E+00  0.00000000000E+00  0.27133667690E+04  0.27133667690E+04  0.00000000000E+00 0. -1.
         -1   -1    0    0    0  501 -0.00000000000E+00 -0.00000000000E+00 -0.10144788311E+04  0.10144788311E+04  0.00000000000E+00 0.  1.
         23    2    1    2    0    0 -0.20773903633E+03  0.70850164041E+03 -0.81773134586E+03  0.11051556258E+04  0.86915600435E+02 0.  0.
         11    1    3    3    0    0 -0.15055108853E+03  0.36239686574E+03 -0.44471417047E+03  0.59310017027E+03  0.00000000000E+00 0. -1.
        -11    1    3    3    0    0 -0.57187947796E+02  0.34610477467E+03 -0.37301717539E+03  0.51205545555E+03  0.00000000000E+00 0.  1.
         22    1    1    2    0    0  0.20773903633E+03 -0.70850164041E+03  0.25166192838E+04  0.26226899743E+04  0.00000000000E+00 0. -1.
<mgrwt>
<rscale>  0 0.33182243E+04</rscale>
<asrwt>0</asrwt>
<pdfrwt beam="1">  1        1 0.41744104E+00 0.33182243E+04</pdfrwt>
<pdfrwt beam="2">  1       -1 0.15607367E+00 0.33182243E+04</pdfrwt>
<totfact> 0.24894310E-01</totfact>
</mgrwt>
</event>
<event>
 6    1  0.9562506E-007  0.4336981E+04  0.7818608E-02  0.7939815E-01
          2   -1    0    0  501    0  0.00000000000E+00  0.00000000000E+00  0.16881836528E+04  0.16881836528E+04  0.00000000000E+00 0. -1.
         -2   -1    0    0    0  501 -0.00000000000E+00 -0.00000000000E+00 -0.27854502052E+04  0.27854502052E+04  0.00000000000E+00 0.  1.
         23    2    1    2    0    0  0.34608181538E+03  0.15842566905E+04  0.93482858199E+03  0.18738160722E+04  0.87408869630E+02 0.  0.
         11    1    3    3    0    0  0.31317603976E+03  0.15159498059E+04  0.88501995333E+03  0.17830993701E+04  0.00000000000E+00 0. -1.
        -11    1    3    3    0    0  0.32905775618E+02  0.68306884543E+02  0.49808628663E+02  0.90716702069E+02  0.00000000000E+00 0.  1.
         22    1    1    2    0    0 -0.34608181538E+03 -0.15842566905E+04 -0.20320951344E+04  0.25998177858E+04  0.00000000000E+00 0.  1.
<mgrwt>
<rscale>  0 0.43369812E+04</rscale>
<asrwt>0</asrwt>
<pdfrwt beam="1">  1        2 0.25972057E+00 0.43369812E+04</pdfrwt>
<pdfrwt beam="2">  1       -2 0.42853080E+00 0.43369812E+04</pdfrwt>
<totfact> 0.36818056E-02</totfact>
</mgrwt>
</event>
<event>
 6    1  0.9562506E-007  0.2612529E+04  0.7818608E-02  0.8363958E-01
         -2   -1    0    0    0  501 -0.00000000000E+00  0.00000000000E+00  0.10477974461E+04  0.10477974461E+04  0.00000000000E+00 0.  1.
          2   -1    0    0  501    0  0.00000000000E+00 -0.00000000000E+00 -0.16284890492E+04  0.16284890492E+04  0.00000000000E+00 0. -1.
         23    2    1    2    0    0  0.99737033454E+03  0.10332129286E+03 -0.11448316726E+04  0.15257749170E+04  0.10920927189E+03 0.  0.
         11    1    3    3    0    0  0.40491224748E+03  0.35470765217E+02 -0.54582425794E+03  0.68054112580E+03  0.00000000000E+00 0. -1.
        -11    1    3    3    0    0  0.59245808705E+03  0.67850527646E+02 -0.59900741466E+03  0.84523379123E+03  0.00000000000E+00 0.  1.
         22    1    1    2    0    0 -0.99737033454E+03 -0.10332129286E+03  0.56414006953E+03  0.11505115783E+04  0.00000000000E+00 0.  1.
<mgrwt>
<rscale>  0 0.26125288E+04</rscale>
<asrwt>0</asrwt>
<pdfrwt beam="1">  1        2 0.25053678E+00 0.26125288E+04</pdfrwt>
<pdfrwt beam="2">  1       -2 0.16119961E+00 0.26125288E+04</pdfrwt>
<totfact> 0.23449008E+00</totfact>
</mgrwt>
</event>
<event>
 6    1  0.9562506E-007  0.1063025E+04  0.7818608E-02  0.9241999E-01
          2   -1    0    0  501    0  0.00000000000E+00  0.00000000000E+00  0.14164169700E+04  0.14164169700E+04  0.00000000000E+00 0. -1.
         -2   -1    0    0    0  501 -0.00000000000E+00 -0.00000000000E+00 -0.19945067846E+03  0.19945067846E+03  0.00000000000E+00 0.  1.
         23    2    1    2    0    0  0.66475724145E+02 -0.32487559228E+03 -0.10996624826E+02  0.34391792606E+03  0.90528679145E+02 0.  0.
         13    1    3    3    0    0  0.85132582218E+02 -0.21119548445E+03  0.40105504168E+01  0.22774365792E+03  0.00000000000E+00 0.  1.
        -13    1    3    3    0    0 -0.18656858074E+02 -0.11368010783E+03 -0.15007175243E+02  0.11617426814E+03  0.00000000000E+00 0. -1.
         22    1    1    2    0    0 -0.66475724145E+02  0.32487559228E+03  0.12279629164E+04  0.12719497224E+04  0.00000000000E+00 0. -1.
<mgrwt>
<rscale>  0 0.10630246E+04</rscale>
<asrwt>0</asrwt>
<pdfrwt beam="1">  1        2 0.21791030E+00 0.10630246E+04</pdfrwt>
<pdfrwt beam="2">  1       -2 0.30684721E-01 0.10630246E+04</pdfrwt>
<totfact> 0.13836797E+02</totfact>
</mgrwt>
</event>
<event>
 6    1  0.9562506E-007  0.6687539E+03  0.7818608E-02  0.9772211E-01
         -1   -1    0    0    0  501 -0.00000000000E+00  0.00000000000E+00  0.61073885475E+02  0.61073885475E+02  0.00000000000E+00 0.  1.
          1   -1    0    0  501    0  0.00000000000E+00 -0.00000000000E+00 -0.18306998962E+04  0.18306998962E+04  0.00000000000E+00 0. -1.
         23    2    1    2    0    0  0.11239306868E+03  0.23018747227E+03 -0.33258248634E+03  0.43207772932E+03  0.10228186388E+03 0.  0.
         13    1    3    3    0    0  0.74397795854E+02  0.19147782475E+03 -0.31304075495E+03  0.37442396246E+03  0.00000000000E+00 0. -1.
        -13    1    3    3    0    0  0.37995272829E+02  0.38709647512E+02 -0.19541731385E+02  0.57653766862E+02  0.00000000000E+00 0.  1.
         22    1    1    2    0    0 -0.11239306868E+03 -0.23018747227E+03 -0.14370435243E+04  0.14596960523E+04  0.00000000000E+00 0. -1.
<mgrwt>
<rscale>  0 0.66875393E+03</rscale>
<asrwt>0</asrwt>
<pdfrwt beam="1">  1        1 0.28164614E+00 0.66875393E+03</pdfrwt>
<pdfrwt beam="2">  1       -1 0.93959824E-02 0.66875393E+03</pdfrwt>
<totfact> 0.27891573E+02</totfact>
</mgrwt>
</event>
<event>
 6    1  0.9562506E-007  0.3234790E+04  0.7818608E-02  0.8179689E-01
          2   -1    0    0  501    0  0.00000000000E+00  0.00000000000E+00  0.99158079434E+03  0.99158079434E+03  0.00000000000E+00 0. -1.
         -2   -1    0    0    0  501 -0.00000000000E+00 -0.00000000000E+00 -0.26381785340E+04  0.26381785340E+04  0.00000000000E+00 0.  1.
         23    2    1    2    0    0  0.14531099420E+04  0.28824103907E+03 -0.98655854423E+02  0.14871591602E+04  0.85428273831E+02 0.  0.
         13    1    3    3    0    0  0.27136026120E+03  0.64950520392E+02  0.12996585015E+02  0.27932753656E+03  0.00000000000E+00 0. -1.
        -13    1    3    3    0    0  0.11817496808E+04  0.22329051868E+03 -0.11165243944E+03  0.12078316237E+04  0.00000000000E+00 0.  1.
         22    1    1    2    0    0 -0.14531099420E+04 -0.28824103907E+03 -0.15479418852E+04  0.21426001681E+04  0.00000000000E+00 0.  1.
<mgrwt>
<rscale>  0 0.32347904E+04</rscale>
<asrwt>0</asrwt>
<pdfrwt beam="1">  1        2 0.15255089E+00 0.32347904E+04</pdfrwt>
<pdfrwt beam="2">  1       -2 0.40587362E+00 0.32347904E+04</pdfrwt>
<totfact> 0.14533201E-01</totfact>
</mgrwt>
</event>
<event>
 6    1  0.9562506E-007  0.1209661E+04  0.7818608E-02  0.9104442E-01
         -1   -1    0    0    0  501 -0.00000000000E+00  0.00000000000E+00  0.28797805241E+03  0.28797805241E+03  0.00000000000E+00 0.  1.
          1   -1    0    0  501    0  0.00000000000E+00 -0.00000000000E+00 -0.12703052051E+04  0.12703052051E+04  0.00000000000E+00 0. -1.
         23    2    1    2    0    0 -0.31970720466E+03 -0.34530173608E+03 -0.97633979092E+03  0.10876646920E+04  0.91263954041E+02 0.  0.
         13    1    3    3    0    0 -0.16171139414E+03 -0.22709586106E+03 -0.63277876613E+03  0.69147094803E+03  0.00000000000E+00 0.  1.
        -13    1    3    3    0    0 -0.15799581052E+03 -0.11820587502E+03 -0.34356102479E+03  0.39619374400E+03  0.00000000000E+00 0. -1.
         22    1    1    2    0    0  0.31970720466E+03  0.34530173608E+03 -0.59873617391E+01  0.47061856546E+03  0.00000000000E+00 0.  1.
<mgrwt>
<rscale>  0 0.12096611E+04</rscale>
<asrwt>0</asrwt>
<pdfrwt beam="1">  1        1 0.19543157E+00 0.12096611E+04</pdfrwt>
<pdfrwt beam="2">  1       -1 0.44304315E-01 0.12096611E+04</pdfrwt>
<totfact> 0.47359614E+01</totfact>
</mgrwt>
</event>
<event>
 6    1  0.9562506E-007  0.3870175E+04  0.7818608E-02  0.8031261E-01
          2   -1    0    0  501    0  0.00000000000E+00  0.00000000000E+00  0.18965564901E+04  0.18965564901E+04  0.00000000000E+00 0. -1.
         -2   -1    0    0    0  501 -0.00000000000E+00 -0.00000000000E+00 -0.19744010001E+04  0.19744010001E+04  0.00000000000E+00 0.  1.
         23    2    1    2    0    0 -0.51509774832E+03  0.61161587530E+03  0.17223720201E+04  0.19011404366E+04  0.91487237390E+02 0.  0.
         11    1    3    3    0    0 -0.44184624289E+03  0.56726481878E+03  0.15508570196E+04  0.17094370337E+04  0.00000000000E+00 0.  1.
        -11    1    3    3    0    0 -0.73251505431E+02  0.44351056519E+02  0.17151500055E+03  0.19170340288E+03  0.00000000000E+00 0. -1.
         22    1    1    2    0    0  0.51509774832E+03 -0.61161587530E+03 -0.18002165302E+04  0.19698170536E+04  0.00000000000E+00 0.  1.
<mgrwt>
<rscale>  0 0.38701747E+04</rscale>
<asrwt>0</asrwt>
<pdfrwt beam="1">  1        2 0.29177792E+00 0.38701747E+04</pdfrwt>
<pdfrwt beam="2">  1       -2 0.30375400E+00 0.38701747E+04</pdfrwt>
<totfact> 0.18328210E-01</totfact>
</mgrwt>
</event>
<event>
 6    1  0.9562506E-007  0.1975071E+04  0.7818608E-02  0.8618365E-01
          2   -1    0    0  501    0  0.00000000000E+00  0.00000000000E+00  0.61844366037E+03  0.61844366037E+03  0.00000000000E+00 0. -1.
         -2   -1    0    0    0  501 -0.00000000000E+00 -0.00000000000E+00 -0.15769037921E+04  0.15769037921E+04  0.00000000000E+00 0.  1.
         23    2    1    2    0    0  0.17834378695E+03  0.63099110516E+03  0.33714981072E+03  0.74325881740E+03  0.93847715120E+02 0.  0.
         11    1    3    3    0    0  0.17730144375E+03  0.48990057168E+03  0.25604472871E+03  0.58051466407E+03  0.00000000000E+00 0. -1.
        -11    1    3    3    0    0  0.10423431958E+01  0.14109053348E+03  0.81105082004E+02  0.16274415333E+03  0.00000000000E+00 0.  1.
         22    1    1    2    0    0 -0.17834378695E+03 -0.63099110516E+03 -0.12956099425E+04  0.14520886351E+04  0.00000000000E+00 0.  1.
<mgrwt>
<rscale>  0 0.19750708E+04</rscale>
<asrwt>0</asrwt>
<pdfrwt beam="1">  1        2 0.95145180E-01 0.19750708E+04</pdfrwt>
<pdfrwt beam="2">  1       -2 0.24260058E+00 0.19750708E+04</pdfrwt>
<totfact> 0.31755043E+00</totfact>
</mgrwt>
</event>
<event>
 6    1  0.1129611E-006  0.3882582E+04  0.7818608E-02  0.8028662E-01
          2   -1    0    0  501    0  0.00000000000E+00  0.00000000000E+00  0.25901261768E+04  0.25901261768E+04  0.00000000000E+00 0. -1.
         -2   -1    0    0    0  501 -0.00000000000E+00 -0.00000000000E+00 -0.14549914331E+04  0.14549914331E+04  0.00000000000E+00 0.  1.
         23    2    1    2    0    0 -0.10185254715E+04 -0.97721478206E+03  0.19548168957E+04  0.24128732359E+04  0.91133367737E+02 0.  0.
         13    1    3    3    0    0 -0.49590734726E+03 -0.53829472493E+03  0.10223169694E+04  0.12573055690E+04  0.00000000000E+00 0.  1.
        -13    1    3    3    0    0 -0.52261812419E+03 -0.43892005712E+03  0.93249992628E+03  0.11555676669E+04  0.00000000000E+00 0. -1.
         22    1    1    2    0    0  0.10185254715E+04  0.97721478206E+03 -0.81968215191E+03  0.16322443740E+04  0.00000000000E+00 0.  1.
<mgrwt>
<rscale>  0 0.38825823E+04</rscale>
<asrwt>0</asrwt>
<pdfrwt beam="1">  1        2 0.39848095E+00 0.38825823E+04</pdfrwt>
<pdfrwt beam="2">  1       -2 0.22384484E+00 0.38825823E+04</pdfrwt>
<totfact> 0.22953251E-01</totfact>
</mgrwt>
</event>
<event>
 6    1  0.9562506E-007  0.2618779E+04  0.7818608E-02  0.8361850E-01
          2   -1    0    0  501    0  0.00000000000E+00  0.00000000000E+00  0.23681418311E+04  0.23681418311E+04  0.00000000000E+00 0. -1.
         -2   -1    0    0    0  501 -0.00000000000E+00 -0.00000000000E+00 -0.72398583859E+03  0.72398583859E+03  0.00000000000E+00 0.  1.
         23    2    1    2    0    0  0.12652621772E+04 -0.14848428524E+03  0.47393632453E+03  0.13622866274E+04  0.90957437740E+02 0.  0.
         13    1    3    3    0    0  0.80745549248E+03 -0.50949639630E+02  0.29468874680E+03  0.86105847397E+03  0.00000000000E+00 0. -1.
        -13    1    3    3    0    0  0.45780668477E+03 -0.97534645609E+02  0.17924757773E+03  0.50122815348E+03  0.00000000000E+00 0.  1.
         22    1    1    2    0    0 -0.12652621772E+04  0.14848428524E+03  0.11702196680E+04  0.17298410423E+04  0.00000000000E+00 0. -1.
<mgrwt>
<rscale>  0 0.26187792E+04</rscale>
<asrwt>0</asrwt>
<pdfrwt beam="1">  1        2 0.36432951E+00 0.26187792E+04</pdfrwt>
<pdfrwt beam="2">  1       -2 0.11138244E+00 0.26187792E+04</pdfrwt>
<totfact> 0.23335694E+00</totfact>
</mgrwt>
</event>
<event>
 6    1  0.9562506E-007  0.2720564E+04  0.7818608E-02  0.8328363E-01
          2   -1    0    0  501    0  0.00000000000E+00  0.00000000000E+00  0.22663639963E+04  0.22663639963E+04  0.00000000000E+00 0. -1.
         -2   -1    0    0    0  501 -0.00000000000E+00 -0.00000000000E+00 -0.81644764010E+03  0.81644764010E+03  0.00000000000E+00 0.  1.
         23    2    1    2    0    0 -0.10567668933E+04  0.83029081148E+03  0.49763552312E+03  0.14356996537E+04  0.86332400462E+02 0.  0.
         13    1    3    3    0    0 -0.43778379011E+03  0.29314900674E+03  0.18050883277E+03  0.55693305320E+03  0.00000000000E+00 0.  1.
        -13    1    3    3    0    0 -0.61898310320E+03  0.53714180473E+03  0.31712669035E+03  0.87876660051E+03  0.00000000000E+00 0. -1.
         22    1    1    2    0    0  0.10567668933E+04 -0.83029081148E+03  0.95228083306E+03  0.16471119827E+04  0.00000000000E+00 0. -1.
<mgrwt>
<rscale>  0 0.27205643E+04</rscale>
<asrwt>0</asrwt>
<pdfrwt beam="1">  1        2 0.34867138E+00 0.27205643E+04</pdfrwt>
<pdfrwt beam="2">  1       -2 0.12560733E+00 0.27205643E+04</pdfrwt>
<totfact> 0.19649940E+00</totfact>
</mgrwt>
</event>
<event>
 6    1  0.9562506E-007  0.4235731E+04  0.7818608E-02  0.7958610E-01
          2   -1    0    0  501    0  0.00000000000E+00  0.00000000000E+00  0.38335764849E+04  0.38335764849E+04  0.00000000000E+00 0. -1.
         -2   -1    0    0    0  501 -0.00000000000E+00 -0.00000000000E+00 -0.11700181347E+04  0.11700181347E+04  0.00000000000E+00 0.  1.
         23    2    1    2    0    0 -0.16129847862E+04 -0.13593353554E+04  0.11223941894E+04  0.23911820375E+04  0.92034185695E+02 0.  0.
         11    1    3    3    0    0 -0.47111904400E+03 -0.43784067099E+03  0.30978905937E+03  0.71388155047E+03  0.00000000000E+00 0. -1.
        -11    1    3    3    0    0 -0.11418657422E+04 -0.92149468440E+03  0.81260513005E+03  0.16773004871E+04  0.00000000000E+00 0.  1.
         22    1    1    2    0    0  0.16129847862E+04  0.13593353554E+04  0.15411641607E+04  0.26124125821E+04  0.00000000000E+00 0. -1.
<mgrwt>
<rscale>  0 0.42357309E+04</rscale>
<asrwt>0</asrwt>
<pdfrwt beam="1">  1        2 0.58978099E+00 0.42357309E+04</pdfrwt>
<pdfrwt beam="2">  1       -2 0.18000279E+00 0.42357309E+04</pdfrwt>
<totfact> 0.64765848E-02</totfact>
</mgrwt>
</event>
<event>
 6    1  0.9562506E-007  0.2768739E+04  0.7818608E-02  0.8313040E-01
         -2   -1    0    0    0  501 -0.00000000000E+00  0.00000000000E+00  0.12668456678E+04  0.12668456678E+04  0.00000000000E+00 0.  1.
          2   -1    0    0  501    0  0.00000000000E+00 -0.00000000000E+00 -0.15127953459E+04  0.15127953459E+04  0.00000000000E+00 0. -1.
         23    2    1    2    0    0 -0.10085418606E+04  0.24952135198E+03  0.79354240346E+03  0.13099603077E+04  0.82878657286E+02 0.  0.
         11    1    3    3    0    0 -0.94916358820E+03  0.21404092925E+03  0.73673749285E+03  0.12204536738E+04  0.00000000000E+00 0. -1.
        -11    1    3    3    0    0 -0.59378272447E+02  0.35480422737E+02  0.56804910604E+02  0.89506633861E+02  0.00000000000E+00 0.  1.
         22    1    1    2    0    0  0.10085418606E+04 -0.24952135198E+03 -0.10394920816E+04  0.14696807059E+04  0.00000000000E+00 0. -1.
<mgrwt>
<rscale>  0 0.27687385E+04</rscale>
<asrwt>0</asrwt>
<pdfrwt beam="1">  1        2 0.23273775E+00 0.27687385E+04</pdfrwt>
<pdfrwt beam="2">  1       -2 0.19489933E+00 0.27687385E+04</pdfrwt>
<totfact> 0.15656690E+00</totfact>
</mgrwt>
</event>
<event>
 6    1  0.9562506E-007  0.1837031E+04  0.7818608E-02  0.8686851E-01
         -1   -1    0    0    0  501 -0.00000000000E+00  0.00000000000E+00  0.72680432586E+03  0.72680432586E+03  0.00000000000E+00 0.  1.
          1   -1    0    0  501    0  0.00000000000E+00 -0.00000000000E+00 -0.11607948816E+04  0.11607948816E+04  0.00000000000E+00 0. -1.
         23    2    1    2    0    0 -0.36969767680E+03  0.69265654102E+03 -0.70281937103E+03  0.10577086195E+04  0.91340020878E+02 0.  0.
         11    1    3    3    0    0 -0.35561448185E+03  0.62850593100E+03 -0.61830708314E+03  0.95067608261E+03  0.00000000000E+00 0.  1.
        -11    1    3    3    0    0 -0.14083194949E+02  0.64150610021E+02 -0.84512287892E+02  0.10703253688E+03  0.00000000000E+00 0. -1.
         22    1    1    2    0    0  0.36969767680E+03 -0.69265654102E+03  0.26882881530E+03  0.82989058796E+03  0.00000000000E+00 0.  1.
<mgrwt>
<rscale>  0 0.18370310E+04</rscale>
<asrwt>0</asrwt>
<pdfrwt beam="1">  1        1 0.17858383E+00 0.18370310E+04</pdfrwt>
<pdfrwt beam="2">  1       -1 0.11181605E+00 0.18370310E+04</pdfrwt>
<totfact> 0.78863890E+00</totfact>
</mgrwt>
</event>
<event>
 6    1  0.9562506E-007  0.9370836E+03  0.7818608E-02  0.9380377E-01
         -4   -1    0    0    0  501 -0.00000000000E+00  0.00000000000E+00  0.75017201417E+03  0.75017201417E+03  0.00000000000E+00 0.  1.
          4   -1    0    0  501    0  0.00000000000E+00 -0.00000000000E+00 -0.29264145851E+03  0.29264145851E+03  0.00000000000E+00 0. -1.
         23    2    1    2    0    0 -0.20337766399E+03 -0.39838186262E+03  0.36869981664E+03  0.58678553179E+03  0.91143419148E+02 0.  0.
         13    1    3    3    0    0 -0.67353059559E+02 -0.19508884426E+03  0.12388533237E+03  0.24071490889E+03  0.00000000000E+00 0. -1.
        -13    1    3    3    0    0 -0.13602460443E+03 -0.20329301836E+03  0.24481448427E+03  0.34607062290E+03  0.00000000000E+00 0.  1.
         22    1    1    2    0    0  0.20337766399E+03  0.39838186262E+03  0.88830739016E+02  0.45602794089E+03  0.00000000000E+00 0. -1.
<mgrwt>
<rscale>  0 0.93708363E+03</rscale>
<asrwt>0</asrwt>
<pdfrwt beam="1">  1        4 0.45021763E-01 0.93708363E+03</pdfrwt>
<pdfrwt beam="2">  1       -4 0.11541108E+00 0.93708363E+03</pdfrwt>
<totfact> 0.55556508E+00</totfact>
</mgrwt>
</event>
<event>
 6    1  0.9562506E-007  0.5245387E+04  0.7818608E-02  0.7791730E-01
          2   -1    0    0  501    0  0.00000000000E+00  0.00000000000E+00  0.58247384293E+04  0.58247384293E+04  0.00000000000E+00 0. -1.
         -2   -1    0    0    0  501 -0.00000000000E+00 -0.00000000000E+00 -0.11809152326E+04  0.11809152326E+04  0.00000000000E+00 0.  1.
         23    2    1    2    0    0 -0.67984331279E+03 -0.15783728095E+04 -0.32205408298E+03  0.17508097238E+04  0.90378098980E+02 0.  0.
         11    1    3    3    0    0 -0.20430157952E+03 -0.54711903755E+03 -0.77238633875E+02  0.58910456051E+03  0.00000000000E+00 0. -1.
        -11    1    3    3    0    0 -0.47554173327E+03 -0.10312537720E+04 -0.24481544911E+03  0.11617051633E+04  0.00000000000E+00 0.  1.
         22    1    1    2    0    0  0.67984331279E+03  0.15783728095E+04  0.49658772798E+04  0.52548439381E+04  0.00000000000E+00 0. -1.
<mgrwt>
<rscale>  0 0.52453874E+04</rscale>
<asrwt>0</asrwt>
<pdfrwt beam="1">  1        2 0.89611359E+00 0.52453874E+04</pdfrwt>
<pdfrwt beam="2">  1       -2 0.18167927E+00 0.52453874E+04</pdfrwt>
<totfact> 0.13862814E-04</totfact>
</mgrwt>
</event>
<event>
 6    1  0.9562506E-007  0.1840098E+04  0.7818608E-02  0.8685262E-01
          2   -1    0    0  501    0  0.00000000000E+00  0.00000000000E+00  0.34844790527E+04  0.34844790527E+04  0.00000000000E+00 0. -1.
         -2   -1    0    0    0  501 -0.00000000000E+00 -0.00000000000E+00 -0.24293157579E+03  0.24293157579E+03  0.00000000000E+00 0.  1.
         23    2    1    2    0    0 -0.20675789039E+02 -0.42652084067E+03  0.32703870930E+04  0.32994161902E+04  0.91476457932E+02 0.  0.
         13    1    3    3    0    0 -0.54525923378E+02 -0.32881741875E+03  0.24991522666E+04  0.25212806316E+04  0.00000000000E+00 0.  1.
        -13    1    3    3    0    0  0.33850134339E+02 -0.97703421915E+02  0.77123482636E+03  0.77813555865E+03  0.00000000000E+00 0. -1.
         22    1    1    2    0    0  0.20675789039E+02  0.42652084067E+03 -0.28839616068E+02  0.42799443832E+03  0.00000000000E+00 0.  1.
<mgrwt>
<rscale>  0 0.18400978E+04</rscale>
<asrwt>0</asrwt>
<pdfrwt beam="1">  1        2 0.53607366E+00 0.18400978E+04</pdfrwt>
<pdfrwt beam="2">  1       -2 0.37374091E-01 0.18400978E+04</pdfrwt>
<totfact> 0.53352445E+00</totfact>
</mgrwt>
</event>
<event>
 6    1  0.9562506E-007  0.6957223E+03  0.7818608E-02  0.9724576E-01
         -3   -1    0    0    0  501 -0.00000000000E+00  0.00000000000E+00  0.20753091865E+03  0.20753091865E+03  0.00000000000E+00 0.  1.
          3   -1    0    0  501    0  0.00000000000E+00 -0.00000000000E+00 -0.58308114945E+03  0.58308114945E+03  0.00000000000E+00 0. -1.
         23    2    1    2    0    0 -0.26288183129E+03  0.19772126067E+03 -0.29528070369E+03  0.45202123668E+03  0.94508995811E+02 0.  0.
         13    1    3    3    0    0 -0.14044799250E+03  0.11266094347E+03 -0.22219893774E+03  0.28599037521E+03  0.00000000000E+00 0. -1.
        -13    1    3    3    0    0 -0.12243383879E+03  0.85060317205E+02 -0.73081765950E+02  0.16603086146E+03  0.00000000000E+00 0.  1.
         22    1    1    2    0    0  0.26288183129E+03 -0.19772126067E+03 -0.80269527104E+02  0.33859083143E+03  0.00000000000E+00 0.  1.
<mgrwt>
<rscale>  0 0.69572226E+03</rscale>
<asrwt>0</asrwt>
<pdfrwt beam="1">  1        3 0.89704791E-01 0.69572226E+03</pdfrwt>
<pdfrwt beam="2">  1       -3 0.31927834E-01 0.69572226E+03</pdfrwt>
<totfact> 0.28545057E+01</totfact>
</mgrwt>
</event>
<event>
 6    1  0.9562506E-007  0.1985463E+04  0.7818608E-02  0.8613447E-01
         -1   -1    0    0    0  501 -0.00000000000E+00  0.00000000000E+00  0.34943491792E+03  0.34943491792E+03  0.00000000000E+00 0.  1.
          1   -1    0    0  501    0  0.00000000000E+00 -0.00000000000E+00 -0.28203130771E+04  0.28203130771E+04  0.00000000000E+00 0. -1.
         23    2    1    2    0    0 -0.60644802789E+03  0.28392891147E+03 -0.72597264999E+02  0.67973874108E+03  0.91539914472E+02 0.  0.
         11    1    3    3    0    0 -0.46081394865E+03  0.21545205546E+03 -0.15333657889E+02  0.50892455682E+03  0.00000000000E+00 0. -1.
        -11    1    3    3    0    0 -0.14563407924E+03  0.68476856014E+02 -0.57263607109E+02  0.17081418426E+03  0.00000000000E+00 0.  1.
         22    1    1    2    0    0  0.60644802789E+03 -0.28392891147E+03 -0.23982808942E+04  0.24900092540E+04  0.00000000000E+00 0. -1.
<mgrwt>
<rscale>  0 0.19854630E+04</rscale>
<asrwt>0</asrwt>
<pdfrwt beam="1">  1        1 0.43389433E+00 0.19854630E+04</pdfrwt>
<pdfrwt beam="2">  1       -1 0.53759217E-01 0.19854630E+04</pdfrwt>
<totfact> 0.26178763E+00</totfact>
</mgrwt>
</event>
<event>
 6    1  0.9562506E-007  0.2439753E+04  0.7818608E-02  0.8424769E-01
         -2   -1    0    0    0  501 -0.00000000000E+00  0.00000000000E+00  0.97145059999E+03  0.97145059999E+03  0.00000000000E+00 0.  1.
          2   -1    0    0  501    0  0.00000000000E+00 -0.00000000000E+00 -0.15318310690E+04  0.15318310690E+04  0.00000000000E+00 0. -1.
         23    2    1    2    0    0 -0.41786939272E+03 -0.11435240983E+04 -0.32366108063E+03  0.12630001438E+04  0.90281090662E+02 0.  0.
         11    1    3    3    0    0 -0.28269285643E+03 -0.81011361147E+03 -0.26832633784E+03  0.89899851955E+03  0.00000000000E+00 0. -1.
        -11    1    3    3    0    0 -0.13517653629E+03 -0.33341048685E+03 -0.55334742783E+02  0.36400162426E+03  0.00000000000E+00 0.  1.
         22    1    1    2    0    0  0.41786939272E+03  0.11435240983E+04 -0.23671938836E+03  0.12402815252E+04  0.00000000000E+00 0. -1.
<mgrwt>
<rscale>  0 0.24397526E+04</rscale>
<asrwt>0</asrwt>
<pdfrwt beam="1">  1        2 0.23566632E+00 0.24397526E+04</pdfrwt>
<pdfrwt beam="2">  1       -2 0.14945394E+00 0.24397526E+04</pdfrwt>
<totfact> 0.33031592E+00</totfact>
</mgrwt>
</event>
<event>
 6    1  0.9562506E-007  0.1533239E+04  0.7818608E-02  0.8862645E-01
          2   -1    0    0  501    0  0.00000000000E+00  0.00000000000E+00  0.58778700105E+03  0.58778700105E+03  0.00000000000E+00 0. -1.
         -2   -1    0    0    0  501 -0.00000000000E+00 -0.00000000000E+00 -0.99986151272E+03  0.99986151272E+03  0.00000000000E+00 0.  1.
         23    2    1    2    0    0  0.37271831496E+03  0.14368634304E+03 -0.88105496868E+03  0.97160681345E+03  0.90538580812E+02 0.  0.
         11    1    3    3    0    0  0.14257927846E+03  0.50079487954E+02 -0.44215359857E+03  0.46726503238E+03  0.00000000000E+00 0. -1.
        -11    1    3    3    0    0  0.23013903650E+03  0.93606855083E+02 -0.43890137011E+03  0.50434178106E+03  0.00000000000E+00 0.  1.
         22    1    1    2    0    0 -0.37271831496E+03 -0.14368634304E+03  0.46898045701E+03  0.61604170033E+03  0.00000000000E+00 0. -1.
<mgrwt>
<rscale>  0 0.15332392E+04</rscale>
<asrwt>0</asrwt>
<pdfrwt beam="1">  1        2 0.90428770E-01 0.15332392E+04</pdfrwt>
<pdfrwt beam="2">  1       -2 0.15382485E+00 0.15332392E+04</pdfrwt>
<totfact> 0.13718841E+01</totfact>
</mgrwt>
</event>
<event>
 6    1  0.9562506E-007  0.3379025E+03  0.7818608E-02  0.1067693E+00
         -2   -1    0    0    0  501 -0.00000000000E+00  0.00000000000E+00  0.85039739559E+02  0.85039739559E+02  0.00000000000E+00 0.  1.
          2   -1    0    0  501    0  0.00000000000E+00 -0.00000000000E+00 -0.33566110254E+03  0.33566110254E+03  0.00000000000E+00 0. -1.
         23    2    1    2    0    0 -0.37517485889E+02  0.33746391239E+02  0.49313879428E+02  0.11655033608E+03  0.92767135712E+02 0.  0.
         13    1    3    3    0    0 -0.11732635314E+02 -0.32219678669E+02  0.10916267814E+02  0.35985098693E+02  0.00000000000E+00 0. -1.
        -13    1    3    3    0    0 -0.25784850575E+02  0.65966069908E+02  0.38397611614E+02  0.80565237392E+02  0.00000000000E+00 0.  1.
         22    1    1    2    0    0  0.37517485889E+02 -0.33746391239E+02 -0.29993524240E+03  0.30415050601E+03  0.00000000000E+00 0. -1.
<mgrwt>
<rscale>  0 0.33790255E+03</rscale>
<asrwt>0</asrwt>
<pdfrwt beam="1">  1        2 0.51640169E-01 0.33790255E+03</pdfrwt>
<pdfrwt beam="2">  1       -2 0.13083037E-01 0.33790255E+03</pdfrwt>
<totfact> 0.41622344E+03</totfact>
</mgrwt>
</event>
<event>
 6    1  0.9562506E-007  0.1852734E+04  0.7818608E-02  0.8678748E-01
          1   -1    0    0  501    0  0.00000000000E+00  0.00000000000E+00  0.11328027192E+04  0.11328027192E+04  0.00000000000E+00 0. -1.
         -1   -1    0    0    0  501 -0.00000000000E+00 -0.00000000000E+00 -0.75755075289E+03  0.75755075289E+03  0.00000000000E+00 0.  1.
         23    2    1    2    0    0  0.32249950535E+03 -0.82099108921E+03  0.46955541868E+03  0.10032652912E+04  0.89591594465E+02 0.  0.
         13    1    3    3    0    0  0.20809489099E+03 -0.41350705470E+03  0.26113340794E+03  0.53149056876E+03  0.00000000000E+00 0.  1.
        -13    1    3    3    0    0  0.11440461436E+03 -0.40748403451E+03  0.20842201074E+03  0.47177472243E+03  0.00000000000E+00 0. -1.
         22    1    1    2    0    0 -0.32249950535E+03  0.82099108921E+03 -0.94303452396E+02  0.88708818087E+03  0.00000000000E+00 0.  1.
<mgrwt>
<rscale>  0 0.18527337E+04</rscale>
<asrwt>0</asrwt>
<pdfrwt beam="1">  1        1 0.17427734E+00 0.18527337E+04</pdfrwt>
<pdfrwt beam="2">  1       -1 0.11654627E+00 0.18527337E+04</pdfrwt>
<totfact> 0.74812563E+00</totfact>
</mgrwt>
</event>
<event>
 6    1  0.9562506E-007  0.7266079E+04  0.7818608E-02  0.7550600E-01
         -2   -1    0    0    0  501 -0.00000000000E+00  0.00000000000E+00  0.25189246294E+04  0.25189246294E+04  0.00000000000E+00 0.  1.
          2   -1    0    0  501    0  0.00000000000E+00 -0.00000000000E+00 -0.52399248005E+04  0.52399248005E+04  0.00000000000E+00 0. -1.
         23    2    1    2    0    0 -0.29329315824E+04  0.18343852149E+04 -0.25439766360E+04  0.42949796119E+04  0.89308221952E+02 0.  0.
         11    1    3    3    0    0 -0.28820280827E+04  0.17879372038E+04 -0.24920656613E+04  0.42087048571E+04  0.00000000000E+00 0. -1.
        -11    1    3    3    0    0 -0.50903499687E+02  0.46448011129E+02 -0.51910974691E+02  0.86274754776E+02  0.00000000000E+00 0.  1.
         22    1    1    2    0    0  0.29329315824E+04 -0.18343852149E+04 -0.17702353516E+03  0.34638698180E+04  0.00000000000E+00 0.  1.
<mgrwt>
<rscale>  0 0.72660789E+04</rscale>
<asrwt>0</asrwt>
<pdfrwt beam="1">  1        2 0.80614226E+00 0.72660789E+04</pdfrwt>
<pdfrwt beam="2">  1       -2 0.38752687E+00 0.72660789E+04</pdfrwt>
<totfact> 0.85336401E-05</totfact>
</mgrwt>
</event>
<event>
 6    1  0.9562506E-007  0.1435510E+04  0.7818608E-02  0.8928509E-01
          1   -1    0    0  501    0  0.00000000000E+00  0.00000000000E+00  0.15716330315E+04  0.15716330315E+04  0.00000000000E+00 0. -1.
         -1   -1    0    0    0  501 -0.00000000000E+00 -0.00000000000E+00 -0.32779404310E+03  0.32779404310E+03  0.00000000000E+00 0.  1.
         23    2    1    2    0    0  0.34325567085E+03  0.12599664826E+03  0.14371876460E+04  0.14858048867E+04  0.91696350467E+02 0.  0.
         11    1    3    3    0    0  0.74070002993E+02 -0.12434221589E+01  0.39656119064E+03  0.40342123068E+03  0.00000000000E+00 0. -1.
        -11    1    3    3    0    0  0.26918566786E+03  0.12724007042E+03  0.10406264553E+04  0.10823836560E+04  0.00000000000E+00 0.  1.
         22    1    1    2    0    0 -0.34325567085E+03 -0.12599664826E+03 -0.19334865757E+03  0.41362218790E+03  0.00000000000E+00 0.  1.
<mgrwt>
<rscale>  0 0.14355096E+04</rscale>
<asrwt>0</asrwt>
<pdfrwt beam="1">  1        1 0.24178969E+00 0.14355096E+04</pdfrwt>
<pdfrwt beam="2">  1       -1 0.50429854E-01 0.14355096E+04</pdfrwt>
<totfact> 0.22410041E+01</totfact>
</mgrwt>
</event>
<event>
 6    1  0.1240267E-006  0.4278940E+04  0.7818608E-02  0.7950524E-01
          2   -1    0    0  501    0  0.00000000000E+00  0.00000000000E+00  0.31958399325E+04  0.31958399325E+04  0.00000000000E+00 0. -1.
         -2   -1    0    0    0  501 -0.00000000000E+00 -0.00000000000E+00 -0.14322783860E+04  0.14322783860E+04  0.00000000000E+00 0.  1.
         23    2    1    2    0    0 -0.39105309715E+03 -0.11886150285E+04  0.27577876332E+04  0.30299275533E+04  0.96644389616E+02 0.  0.
         13    1    3    3    0    0 -0.26595187677E+03 -0.93644012422E+03  0.21286301202E+04  0.23406658659E+04  0.00000000000E+00 0. -1.
        -13    1    3    3    0    0 -0.12510122038E+03 -0.25217490425E+03  0.62915751295E+03  0.68926168744E+03  0.00000000000E+00 0.  1.
         22    1    1    2    0    0  0.39105309715E+03  0.11886150285E+04 -0.99422608667E+03  0.15981907652E+04  0.00000000000E+00 0.  1.
<mgrwt>
<rscale>  0 0.42789403E+04</rscale>
<asrwt>0</asrwt>
<pdfrwt beam="1">  1        2 0.49166768E+00 0.42789403E+04</pdfrwt>
<pdfrwt beam="2">  1       -2 0.22035052E+00 0.42789403E+04</pdfrwt>
<totfact> 0.98875273E-02</totfact>
</mgrwt>
</event>
<event>
 6    1  0.9562506E-007  0.1112647E+04  0.7818608E-02  0.9192952E-01
         -2   -1    0    0    0  501 -0.00000000000E+00  0.00000000000E+00  0.45323836896E+03  0.45323836896E+03  0.00000000000E+00 0.  1.
          2   -1    0    0  501    0  0.00000000000E+00 -0.00000000000E+00 -0.68285430814E+03  0.68285430814E+03  0.00000000000E+00 0. -1.
         23    2    1    2    0    0 -0.36663183668E+02  0.33138491425E+03  0.33464444529E+03  0.48069208822E+03  0.88982180711E+02 0.  0.
         11    1    3    3    0    0  0.75222648240E+01  0.25208036355E+03  0.22170374886E+03  0.33578809749E+03  0.00000000000E+00 0. -1.
        -11    1    3    3    0    0 -0.44185448492E+02  0.79304550702E+02  0.11294069643E+03  0.14490399073E+03  0.00000000000E+00 0.  1.
         22    1    1    2    0    0  0.36663183668E+02 -0.33138491425E+03 -0.56426038446E+03  0.65540058888E+03  0.00000000000E+00 0. -1.
<mgrwt>
<rscale>  0 0.11126469E+04</rscale>
<asrwt>0</asrwt>
<pdfrwt beam="1">  1        2 0.10505451E+00 0.11126469E+04</pdfrwt>
<pdfrwt beam="2">  1       -2 0.69728980E-01 0.11126469E+04</pdfrwt>
<totfact> 0.78681050E+01</totfact>
</mgrwt>
</event>
<event>
 6    1  0.9562506E-007  0.3020301E+04  0.7818608E-02  0.8237957E-01
          1   -1    0    0  501    0  0.00000000000E+00  0.00000000000E+00  0.25228116177E+04  0.25228116177E+04  0.00000000000E+00 0. -1.
         -1   -1    0    0    0  501 -0.00000000000E+00 -0.00000000000E+00 -0.90397340022E+03  0.90397340022E+03  0.00000000000E+00 0.  1.
         23    2    1    2    0    0  0.13214468204E+04  0.27083869026E+03  0.15771620136E+04  0.20772250151E+04  0.88591483121E+02 0.  0.
         13    1    3    3    0    0  0.42063952889E+03  0.82577261943E+02  0.56558730431E+03  0.70967993930E+03  0.00000000000E+00 0. -1.
        -13    1    3    3    0    0  0.90080729148E+03  0.18826142831E+03  0.10115747093E+04  0.13675450758E+04  0.00000000000E+00 0.  1.
         22    1    1    2    0    0 -0.13214468204E+04 -0.27083869026E+03  0.41676203837E+02  0.13495600028E+04  0.00000000000E+00 0.  1.
<mgrwt>
<rscale>  0 0.30203010E+04</rscale>
<asrwt>0</asrwt>
<pdfrwt beam="1">  1        1 0.38812486E+00 0.30203010E+04</pdfrwt>
<pdfrwt beam="2">  1       -1 0.13907283E+00 0.30203010E+04</pdfrwt>
<totfact> 0.47310885E-01</totfact>
</mgrwt>
</event>
<event>
 6    1  0.9562506E-007  0.1593881E+04  0.7818608E-02  0.8824316E-01
         -1   -1    0    0    0  501 -0.00000000000E+00  0.00000000000E+00  0.25239345011E+03  0.25239345011E+03  0.00000000000E+00 0.  1.
          1   -1    0    0  501    0  0.00000000000E+00 -0.00000000000E+00 -0.25163645886E+04  0.25163645886E+04  0.00000000000E+00 0. -1.
         23    2    1    2    0    0 -0.30262756738E+03 -0.26785980025E+03  0.55210930257E+02  0.41462597250E+03  0.74391754396E+02 0.  0.
         11    1    3    3    0    0 -0.42886849070E+02 -0.17917153756E+02  0.25303038865E+02  0.52920222956E+02  0.00000000000E+00 0.  1.
        -11    1    3    3    0    0 -0.25974071831E+03 -0.24994264650E+03  0.29907891392E+02  0.36170574954E+03  0.00000000000E+00 0. -1.
         22    1    1    2    0    0  0.30262756738E+03  0.26785980025E+03 -0.23191820688E+04  0.23541320662E+04  0.00000000000E+00 0. -1.
<mgrwt>
<rscale>  0 0.15938807E+04</rscale>
<asrwt>0</asrwt>
<pdfrwt beam="1">  1        1 0.38713301E+00 0.15938807E+04</pdfrwt>
<pdfrwt beam="2">  1       -1 0.38829762E-01 0.15938807E+04</pdfrwt>
<totfact> 0.81649219E+00</totfact>
</mgrwt>
</event>
<event>
 6    1  0.9562506E-007  0.3167817E+04  0.7818608E-02  0.8197369E-01
          2   -1    0    0  501    0  0.00000000000E+00  0.00000000000E+00  0.33357757335E+04  0.33357757335E+04  0.00000000000E+00 0. -1.
         -2   -1    0    0    0  501 -0.00000000000E+00 -0.00000000000E+00 -0.75207891000E+03  0.75207891000E+03  0.00000000000E+00 0.  1.
         23    2    1    2    0    0 -0.15247250717E+03 -0.57598433775E+03  0.31849292095E+04  0.32413995622E+04  0.88832590494E+02 0.  0.
         11    1    3    3    0    0 -0.44358258966E+02 -0.79776925145E+02  0.37524787974E+03  0.38619034708E+03  0.00000000000E+00 0.  1.
        -11    1    3    3    0    0 -0.10811424821E+03 -0.49620741260E+03  0.28096813298E+04  0.28552092151E+04  0.00000000000E+00 0. -1.
         22    1    1    2    0    0  0.15247250717E+03  0.57598433775E+03 -0.60123238600E+03  0.84645508135E+03  0.00000000000E+00 0.  1.
<mgrwt>
<rscale>  0 0.31678173E+04</rscale>
<asrwt>0</asrwt>
<pdfrwt beam="1">  1        2 0.51319626E+00 0.31678173E+04</pdfrwt>
<pdfrwt beam="2">  1       -2 0.11570445E+00 0.31678173E+04</pdfrwt>
<totfact> 0.51640044E-01</totfact>
</mgrwt>
</event>
<event>
 6    1  0.9562506E-007  0.5426431E+03  0.7818608E-02  0.1003211E+00
         -1   -1    0    0    0  501 -0.00000000000E+00  0.00000000000E+00  0.52773348663E+03  0.52773348663E+03  0.00000000000E+00 0.  1.
          1   -1    0    0  501    0  0.00000000000E+00 -0.00000000000E+00 -0.13949350255E+03  0.13949350255E+03  0.00000000000E+00 0. -1.
         23    2    1    2    0    0 -0.23449461050E+03 -0.44772821420E+02  0.33600817009E+03  0.42284922774E+03  0.94380353575E+02 0.  0.
         11    1    3    3    0    0 -0.75367649661E+02  0.25995217244E+02  0.13600627867E+03  0.15765069544E+03  0.00000000000E+00 0. -1.
        -11    1    3    3    0    0 -0.15912696084E+03 -0.70768038664E+02  0.20000189142E+03  0.26519853230E+03  0.00000000000E+00 0.  1.
         22    1    1    2    0    0  0.23449461050E+03  0.44772821420E+02  0.52231813989E+02  0.24437776144E+03  0.00000000000E+00 0. -1.
<mgrwt>
<rscale>  0 0.54264313E+03</rscale>
<asrwt>0</asrwt>
<pdfrwt beam="1">  1        1 0.21460539E-01 0.54264313E+03</pdfrwt>
<pdfrwt beam="2">  1       -1 0.81189766E-01 0.54264313E+03</pdfrwt>
<totfact> 0.36650524E+02</totfact>
</mgrwt>
</event>
<event>
 6    1  0.1087199E-006  0.3637693E+04  0.7818608E-02  0.8081912E-01
          2   -1    0    0  501    0  0.00000000000E+00  0.00000000000E+00  0.11690740572E+04  0.11690740572E+04  0.00000000000E+00 0. -1.
         -2   -1    0    0    0  501 -0.00000000000E+00 -0.00000000000E+00 -0.28297629183E+04  0.28297629183E+04  0.00000000000E+00 0.  1.
         23    2    1    2    0    0  0.29508918714E+03  0.40937549274E+03  0.10888853004E+04  0.12033363062E+04  0.87642146866E+02 0.  0.
         11    1    3    3    0    0  0.19075646096E+03  0.21920115550E+03  0.54152074373E+03  0.61455828842E+03  0.00000000000E+00 0. -1.
        -11    1    3    3    0    0  0.10433272618E+03  0.19017433724E+03  0.54736455667E+03  0.58877801775E+03  0.00000000000E+00 0.  1.
         22    1    1    2    0    0 -0.29508918714E+03 -0.40937549274E+03 -0.27495741615E+04  0.27955006693E+04  0.00000000000E+00 0.  1.
<mgrwt>
<rscale>  0 0.36376929E+04</rscale>
<asrwt>0</asrwt>
<pdfrwt beam="1">  1        2 0.17985755E+00 0.36376929E+04</pdfrwt>
<pdfrwt beam="2">  1       -2 0.43534814E+00 0.36376929E+04</pdfrwt>
<totfact> 0.69646880E-02</totfact>
</mgrwt>
</event>
<event>
 6    1  0.9562506E-007  0.3818493E+04  0.7818608E-02  0.8042198E-01
          1   -1    0    0  501    0  0.00000000000E+00  0.00000000000E+00  0.24813295216E+04  0.24813295216E+04  0.00000000000E+00 0. -1.
         -1   -1    0    0    0  501 -0.00000000000E+00 -0.00000000000E+00 -0.14690604581E+04  0.14690604581E+04  0.00000000000E+00 0.  1.
         23    2    1    2    0    0  0.24526157566E+03 -0.64651577388E+03  0.23463298245E+04  0.24477742602E+04  0.90549970365E+02 0.  0.
         13    1    3    3    0    0  0.10747539737E+03 -0.27339226947E+03  0.11563463038E+04  0.11930763045E+04  0.00000000000E+00 0. -1.
        -13    1    3    3    0    0  0.13778617830E+03 -0.37312350441E+03  0.11899835207E+04  0.12546979556E+04  0.00000000000E+00 0.  1.
         22    1    1    2    0    0 -0.24526157566E+03  0.64651577388E+03 -0.13340607611E+04  0.15026157195E+04  0.00000000000E+00 0.  1.
<mgrwt>
<rscale>  0 0.38184935E+04</rscale>
<asrwt>0</asrwt>
<pdfrwt beam="1">  1        1 0.38174300E+00 0.38184935E+04</pdfrwt>
<pdfrwt beam="2">  1       -1 0.22600930E+00 0.38184935E+04</pdfrwt>
<totfact> 0.11125480E-01</totfact>
</mgrwt>
</event>
<event>
 6    1  0.9562506E-007  0.3140798E+04  0.7818608E-02  0.8204630E-01
         -1   -1    0    0    0  501 -0.00000000000E+00  0.00000000000E+00  0.84032726465E+03  0.84032726465E+03  0.00000000000E+00 0.  1.
          1   -1    0    0  501    0  0.00000000000E+00 -0.00000000000E+00 -0.29347521613E+04  0.29347521613E+04  0.00000000000E+00 0. -1.
         23    2    1    2    0    0 -0.14153499331E+04 -0.49501865292E+03 -0.16034281625E+04  0.21973162330E+04  0.94645948952E+02 0.  0.
         13    1    3    3    0    0 -0.11154846910E+04 -0.42962766282E+03 -0.12874745409E+04  0.17568371347E+04  0.00000000000E+00 0. -1.
        -13    1    3    3    0    0 -0.29986524216E+03 -0.65390990098E+02 -0.31595362155E+03  0.44047909827E+03  0.00000000000E+00 0.  1.
         22    1    1    2    0    0  0.14153499331E+04  0.49501865292E+03 -0.49099673413E+03  0.15777631929E+04  0.00000000000E+00 0. -1.
<mgrwt>
<rscale>  0 0.31407975E+04</rscale>
<asrwt>0</asrwt>
<pdfrwt beam="1">  1        1 0.45150033E+00 0.31407975E+04</pdfrwt>
<pdfrwt beam="2">  1       -1 0.12928112E+00 0.31407975E+04</pdfrwt>
<totfact> 0.28813817E-01</totfact>
</mgrwt>
</event>
<event>
 6    1  0.9562506E-007  0.1449799E+04  0.7818608E-02  0.8918540E-01
         -3   -1    0    0    0  501 -0.00000000000E+00  0.00000000000E+00  0.27087672217E+04  0.27087672217E+04  0.00000000000E+00 0.  1.
          3   -1    0    0  501    0  0.00000000000E+00 -0.00000000000E+00 -0.19399208025E+03  0.19399208025E+03  0.00000000000E+00 0. -1.
         23    2    1    2    0    0 -0.28294006058E+03  0.65262825136E+03  0.15081488344E+04  0.16701704677E+04  0.94751105635E+02 0.  0.
         13    1    3    3    0    0 -0.24383880742E+03  0.48859850850E+03  0.12130347793E+04  0.13302778816E+04  0.00000000000E+00 0.  1.
        -13    1    3    3    0    0 -0.39101253163E+02  0.16402974286E+03  0.29511405515E+03  0.33989258610E+03  0.00000000000E+00 0. -1.
         22    1    1    2    0    0  0.28294006058E+03 -0.65262825136E+03  0.10066263070E+04  0.12325888342E+04  0.00000000000E+00 0. -1.
<mgrwt>
<rscale>  0 0.14497991E+04</rscale>
<asrwt>0</asrwt>
<pdfrwt beam="1">  1        3 0.29844937E-01 0.14497991E+04</pdfrwt>
<pdfrwt beam="2">  1       -3 0.41673339E+00 0.14497991E+04</pdfrwt>
<totfact> 0.24122170E-01</totfact>
</mgrwt>
</event>
<event>
 6    1  0.9562506E-007  0.7557110E+03  0.7818608E-02  0.9626433E-01
         -3   -1    0    0    0  501 -0.00000000000E+00  0.00000000000E+00  0.15079403925E+03  0.15079403925E+03  0.00000000000E+00 0.  1.
          3   -1    0    0  501    0  0.00000000000E+00 -0.00000000000E+00 -0.94681976043E+03  0.94681976043E+03  0.00000000000E+00 0. -1.
         23    2    1    2    0    0 -0.10874184480E+03  0.30415280447E+03 -0.67374022836E+03  0.75223363374E+03  0.87154042578E+02 0.  0.
         13    1    3    3    0    0 -0.31298200598E+02  0.88492227745E+02 -0.11574831774E+03  0.14902390678E+03  0.00000000000E+00 0. -1.
        -13    1    3    3    0    0 -0.77443644199E+02  0.21566057673E+03 -0.55799191062E+03  0.60320972696E+03  0.00000000000E+00 0.  1.
         22    1    1    2    0    0  0.10874184480E+03 -0.30415280447E+03 -0.12228549282E+03  0.34538016595E+03  0.00000000000E+00 0.  1.
<mgrwt>
<rscale>  0 0.75571099E+03</rscale>
<asrwt>0</asrwt>
<pdfrwt beam="1">  1        3 0.14566458E+00 0.75571099E+03</pdfrwt>
<pdfrwt beam="2">  1       -3 0.23199083E-01 0.75571099E+03</pdfrwt>
<totfact> 0.16154846E+01</totfact>
</mgrwt>
</event>
<event>
 6    1  0.9562506E-007  0.1602001E+04  0.7818608E-02  0.8819319E-01
          2   -1    0    0  501    0  0.00000000000E+00  0.00000000000E+00  0.18873724562E+04  0.18873724562E+04  0.00000000000E+00 0. -1.
         -2   -1    0    0    0  501 -0.00000000000E+00 -0.00000000000E+00 -0.33994461878E+03  0.33994461878E+03  0.00000000000E+00 0.  1.
         23    2    1    2    0    0  0.74090524175E+02  0.76778650946E+03  0.49030319675E+03  0.91869259264E+03  0.92808001524E+02 0.  0.
         13    1    3    3    0    0 -0.14499937787E+02  0.25188975428E+03  0.13619223814E+03  0.28671766991E+03  0.00000000000E+00 0. -1.
        -13    1    3    3    0    0  0.88590461961E+02  0.51589675518E+03  0.35411095861E+03  0.63197492273E+03  0.00000000000E+00 0.  1.
         22    1    1    2    0    0 -0.74090524175E+02 -0.76778650946E+03  0.10571246407E+04  0.13086244824E+04  0.00000000000E+00 0. -1.
<mgrwt>
<rscale>  0 0.16020014E+04</rscale>
<asrwt>0</asrwt>
<pdfrwt beam="1">  1        2 0.29036499E+00 0.16020014E+04</pdfrwt>
<pdfrwt beam="2">  1       -2 0.52299173E-01 0.16020014E+04</pdfrwt>
<totfact> 0.25532852E+01</totfact>
</mgrwt>
</event>
<event>
 6    1  0.9562506E-007  0.5757822E+03  0.7818608E-02  0.9956964E-01
         -1   -1    0    0    0  501 -0.00000000000E+00  0.00000000000E+00  0.33361269230E+03  0.33361269230E+03  0.00000000000E+00 0.  1.
          1   -1    0    0  501    0  0.00000000000E+00 -0.00000000000E+00 -0.24843566261E+03  0.24843566261E+03  0.00000000000E+00 0. -1.
         23    2    1    2    0    0 -0.13502064063E+03  0.15475382660E+03 -0.14955640686E+03  0.27015236827E+03  0.91846954262E+02 0.  0.
         11    1    3    3    0    0 -0.28115228793E+02  0.81704287808E+02 -0.23731048488E+02  0.89605911628E+02  0.00000000000E+00 0. -1.
        -11    1    3    3    0    0 -0.10690541184E+03  0.73049538792E+02 -0.12582535837E+03  0.18054645665E+03  0.00000000000E+00 0.  1.
         22    1    1    2    0    0  0.13502064063E+03 -0.15475382660E+03  0.23473343655E+03  0.31189598664E+03  0.00000000000E+00 0.  1.
<mgrwt>
<rscale>  0 0.57578222E+03</rscale>
<asrwt>0</asrwt>
<pdfrwt beam="1">  1        1 0.38220871E-01 0.57578222E+03</pdfrwt>
<pdfrwt beam="2">  1       -1 0.51325029E-01 0.57578222E+03</pdfrwt>
<totfact> 0.43342838E+02</totfact>
</mgrwt>
</event>
<event>
 6    1  0.9562506E-007  0.3309785E+04  0.7818608E-02  0.8160410E-01
          1   -1    0    0  501    0  0.00000000000E+00  0.00000000000E+00  0.43596981854E+04  0.43596981854E+04  0.00000000000E+00 0. -1.
         -1   -1    0    0    0  501 -0.00000000000E+00 -0.00000000000E+00 -0.62817851284E+03  0.62817851284E+03  0.00000000000E+00 0.  1.
         23    2    1    2    0    0 -0.60309013434E+03 -0.94242045109E+03  0.31940667740E+02  0.11228076394E+04  0.88333300905E+02 0.  0.
         13    1    3    3    0    0 -0.31248430894E+03 -0.55383314695E+03  0.43964650496E+02  0.63742488851E+03  0.00000000000E+00 0. -1.
        -13    1    3    3    0    0 -0.29060582540E+03 -0.38858730414E+03 -0.12023982756E+02  0.48538275088E+03  0.00000000000E+00 0.  1.
         22    1    1    2    0    0  0.60309013434E+03  0.94242045109E+03  0.36995790048E+04  0.38650690588E+04  0.00000000000E+00 0. -1.
<mgrwt>
<rscale>  0 0.33097847E+04</rscale>
<asrwt>0</asrwt>
<pdfrwt beam="1">  1        1 0.67072278E+00 0.33097847E+04</pdfrwt>
<pdfrwt beam="2">  1       -1 0.96642851E-01 0.33097847E+04</pdfrwt>
<totfact> 0.37931979E-02</totfact>
</mgrwt>
</event>
<event>
 6    1  0.9562506E-007  0.1588246E+04  0.7818608E-02  0.8827802E-01
         -1   -1    0    0    0  501 -0.00000000000E+00  0.00000000000E+00  0.56473458703E+03  0.56473458703E+03  0.00000000000E+00 0.  1.
          1   -1    0    0  501    0  0.00000000000E+00 -0.00000000000E+00 -0.11166861525E+04  0.11166861525E+04  0.00000000000E+00 0. -1.
         23    2    1    2    0    0 -0.13111917596E+03 -0.41958402049E+03  0.41986401143E+03  0.61480529616E+03  0.91960728256E+02 0.  0.
         13    1    3    3    0    0 -0.66994744059E+00 -0.99942111949E+02  0.13026507414E+03  0.16418850176E+03  0.00000000000E+00 0.  1.
        -13    1    3    3    0    0 -0.13044922852E+03 -0.31964190854E+03  0.28959893729E+03  0.45061679440E+03  0.00000000000E+00 0. -1.
         22    1    1    2    0    0  0.13111917596E+03  0.41958402049E+03 -0.97181557694E+03  0.10666154434E+04  0.00000000000E+00 0. -1.
<mgrwt>
<rscale>  0 0.15882459E+04</rscale>
<asrwt>0</asrwt>
<pdfrwt beam="1">  1        1 0.17179787E+00 0.15882459E+04</pdfrwt>
<pdfrwt beam="2">  1       -1 0.86882244E-01 0.15882459E+04</pdfrwt>
<totfact> 0.15444599E+01</totfact>
</mgrwt>
</event>
<event>
 6    1  0.9562506E-007  0.5027291E+03  0.7818608E-02  0.1013069E+00
          1   -1    0    0  501    0  0.00000000000E+00  0.00000000000E+00  0.99194595118E+03  0.99194595118E+03  0.00000000000E+00 0. -1.
         -1   -1    0    0    0  501 -0.00000000000E+00 -0.00000000000E+00 -0.63697166128E+02  0.63697166128E+02  0.00000000000E+00 0.  1.
         23    2    1    2    0    0  0.23967816242E+03  0.37458288052E+02  0.45131279564E+03  0.52055743923E+03  0.91913345880E+02 0.  0.
         13    1    3    3    0    0  0.18804493291E+03  0.46265078160E+02  0.41141863852E+03  0.45471601068E+03  0.00000000000E+00 0.  1.
        -13    1    3    3    0    0  0.51633229508E+02 -0.88067901077E+01  0.39894157121E+02  0.65841428553E+02  0.00000000000E+00 0. -1.
         22    1    1    2    0    0 -0.23967816242E+03 -0.37458288052E+02  0.47693598941E+03  0.53508567807E+03  0.00000000000E+00 0.  1.
<mgrwt>
<rscale>  0 0.50272914E+03</rscale>
<asrwt>0</asrwt>
<pdfrwt beam="1">  1        1 0.15260706E+00 0.50272914E+03</pdfrwt>
<pdfrwt beam="2">  1       -1 0.97995647E-02 0.50272914E+03</pdfrwt>
<totfact> 0.10143412E+03</totfact>
</mgrwt>
</event>
<event>
 6    1  0.9562506E-007  0.2080892E+04  0.7818608E-02  0.8569707E-01
         -2   -1    0    0    0  501 -0.00000000000E+00  0.00000000000E+00  0.10686780183E+04  0.10686780183E+04  0.00000000000E+00 0.  1.
          2   -1    0    0  501    0  0.00000000000E+00 -0.00000000000E+00 -0.10129601777E+04  0.10129601777E+04  0.00000000000E+00 0. -1.
         23    2    1    2    0    0 -0.99423862499E+03  0.27253189409E+03 -0.97761510787E+02  0.10393618468E+04  0.89059860706E+02 0.  0.
         13    1    3    3    0    0 -0.84292239717E+03  0.23782042672E+03 -0.11421848356E+03  0.88324548400E+03  0.00000000000E+00 0. -1.
        -13    1    3    3    0    0 -0.15131622781E+03  0.34711467370E+02  0.16456972777E+02  0.15611636275E+03  0.00000000000E+00 0.  1.
         22    1    1    2    0    0  0.99423862499E+03 -0.27253189409E+03  0.15347935139E+03  0.10422763492E+04  0.00000000000E+00 0.  1.
<mgrwt>
<rscale>  0 0.20808924E+04</rscale>
<asrwt>0</asrwt>
<pdfrwt beam="1">  1        2 0.15584003E+00 0.20808924E+04</pdfrwt>
<pdfrwt beam="2">  1       -2 0.16441200E+00 0.20808924E+04</pdfrwt>
<totfact> 0.53317371E+00</totfact>
</mgrwt>
</event>
<event>
 6    1  0.9562506E-007  0.1058043E+04  0.7818608E-02  0.9247079E-01
          2   -1    0    0  501    0  0.00000000000E+00  0.00000000000E+00  0.51488813207E+03  0.51488813207E+03  0.00000000000E+00 0. -1.
         -2   -1    0    0    0  501 -0.00000000000E+00 -0.00000000000E+00 -0.54354301332E+03  0.54354301332E+03  0.00000000000E+00 0.  1.
         23    2    1    2    0    0  0.26601553857E+03 -0.10379549394E+03 -0.45529532180E+03  0.54505035413E+03  0.90820081237E+02 0.  0.
         13    1    3    3    0    0  0.95440119367E+02 -0.58006179285E+02 -0.10767483051E+03  0.15513672146E+03  0.00000000000E+00 0. -1.
        -13    1    3    3    0    0  0.17057541920E+03 -0.45789314655E+02 -0.34762049130E+03  0.38991363267E+03  0.00000000000E+00 0.  1.
         22    1    1    2    0    0 -0.26601553857E+03  0.10379549394E+03  0.42664044056E+03  0.51338079127E+03  0.00000000000E+00 0. -1.
<mgrwt>
<rscale>  0 0.10580432E+04</rscale>
<asrwt>0</asrwt>
<pdfrwt beam="1">  1        2 0.79213559E-01 0.10580432E+04</pdfrwt>
<pdfrwt beam="2">  1       -2 0.83622002E-01 0.10580432E+04</pdfrwt>
<totfact> 0.74108901E+01</totfact>
</mgrwt>
</event>
<event>
 6    1  0.9562506E-007  0.2824224E+04  0.7818608E-02  0.8295787E-01
         -2   -1    0    0    0  501 -0.00000000000E+00  0.00000000000E+00  0.19185415594E+04  0.19185415594E+04  0.00000000000E+00 0.  1.
          2   -1    0    0  501    0  0.00000000000E+00 -0.00000000000E+00 -0.10393624225E+04  0.10393624225E+04  0.00000000000E+00 0. -1.
         23    2    1    2    0    0  0.62036055428E+03 -0.12372397142E+04  0.72447806391E+03  0.15652296661E+04  0.97293960958E+02 0.  0.
         13    1    3    3    0    0  0.17172605092E+03 -0.37155011773E+03  0.16696905711E+03  0.44206107336E+03  0.00000000000E+00 0. -1.
        -13    1    3    3    0    0  0.44863450336E+03 -0.86568959649E+03  0.55750900680E+03  0.11231685928E+04  0.00000000000E+00 0.  1.
         22    1    1    2    0    0 -0.62036055428E+03  0.12372397142E+04  0.15470107295E+03  0.13926743157E+04  0.00000000000E+00 0. -1.
<mgrwt>
<rscale>  0 0.28242238E+04</rscale>
<asrwt>0</asrwt>
<pdfrwt beam="1">  1        2 0.15990191E+00 0.28242238E+04</pdfrwt>
<pdfrwt beam="2">  1       -2 0.29516024E+00 0.28242238E+04</pdfrwt>
<totfact> 0.70247418E-01</totfact>
</mgrwt>
</event>
<event>
 6    1  0.9562506E-007  0.3252750E+04  0.7818608E-02  0.8175023E-01
          2   -1    0    0  501    0  0.00000000000E+00  0.00000000000E+00  0.20533568311E+04  0.20533568311E+04  0.00000000000E+00 0. -1.
         -2   -1    0    0    0  501 -0.00000000000E+00 -0.00000000000E+00 -0.12881812943E+04  0.12881812943E+04  0.00000000000E+00 0.  1.
         23    2    1    2    0    0 -0.52170904628E+03  0.85014689005E+03 -0.93492111325E+03  0.13704321712E+04  0.95272158214E+02 0.  0.
         11    1    3    3    0    0 -0.14161792288E+03  0.31359636277E+03 -0.30352141503E+03  0.45882846926E+03  0.00000000000E+00 0. -1.
        -11    1    3    3    0    0 -0.38009112340E+03  0.53655052729E+03 -0.63139969822E+03  0.91160370191E+03  0.00000000000E+00 0.  1.
         22    1    1    2    0    0  0.52170904628E+03 -0.85014689005E+03  0.17000966500E+04  0.19711059542E+04  0.00000000000E+00 0. -1.
<mgrwt>
<rscale>  0 0.32527501E+04</rscale>
<asrwt>0</asrwt>
<pdfrwt beam="1">  1        2 0.31590105E+00 0.32527501E+04</pdfrwt>
<pdfrwt beam="2">  1       -2 0.19818174E+00 0.32527501E+04</pdfrwt>
<totfact> 0.71522306E-01</totfact>
</mgrwt>
</event>
<event>
 6    1  0.9562506E-007  0.2369664E+04  0.7818608E-02  0.8450949E-01
          1   -1    0    0  501    0  0.00000000000E+00  0.00000000000E+00  0.30232164520E+04  0.30232164520E+04  0.00000000000E+00 0. -1.
         -1   -1    0    0    0  501 -0.00000000000E+00 -0.00000000000E+00 -0.46434878340E+03  0.46434878340E+03  0.00000000000E+00 0.  1.
         23    2    1    2    0    0  0.92934186167E+03  0.72056337443E+03  0.14718025544E+04  0.18861288692E+04  0.91605020074E+02 0.  0.
         11    1    3    3    0    0  0.57224273263E+03  0.48634748040E+03  0.98305206301E+03  0.12370881033E+04  0.00000000000E+00 0.  1.
        -11    1    3    3    0    0  0.35709912903E+03  0.23421589404E+03  0.48875049137E+03  0.64904076589E+03  0.00000000000E+00 0. -1.
         22    1    1    2    0    0 -0.92934186167E+03 -0.72056337443E+03  0.10870651142E+04  0.16014363662E+04  0.00000000000E+00 0.  1.
<mgrwt>
<rscale>  0 0.23696640E+04</rscale>
<asrwt>0</asrwt>
<pdfrwt beam="1">  1        1 0.46511021E+00 0.23696640E+04</pdfrwt>
<pdfrwt beam="2">  1       -1 0.71438276E-01 0.23696640E+04</pdfrwt>
<totfact> 0.10221897E+00</totfact>
</mgrwt>
</event>
<event>
 6    1  0.9562506E-007  0.1713381E+04  0.7818608E-02  0.8753769E-01
         -2   -1    0    0    0  501 -0.00000000000E+00  0.00000000000E+00  0.90001904089E+03  0.90001904089E+03  0.00000000000E+00 0.  1.
          2   -1    0    0  501    0  0.00000000000E+00 -0.00000000000E+00 -0.81544757345E+03  0.81544757345E+03  0.00000000000E+00 0. -1.
         23    2    1    2    0    0  0.66107831287E+03  0.40990412667E+03 -0.31235905581E+03  0.84219702876E+03  0.81741829601E+02 0.  0.
         13    1    3    3    0    0  0.46237887931E+03  0.32787913855E+03 -0.21542743121E+03  0.60638926083E+03  0.00000000000E+00 0. -1.
        -13    1    3    3    0    0  0.19869943356E+03  0.82024988123E+02 -0.96931624594E+02  0.23580776794E+03  0.00000000000E+00 0.  1.
         22    1    1    2    0    0 -0.66107831287E+03 -0.40990412667E+03  0.39693052325E+03  0.87326958558E+03  0.00000000000E+00 0.  1.
<mgrwt>
<rscale>  0 0.17133807E+04</rscale>
<asrwt>0</asrwt>
<pdfrwt beam="1">  1        2 0.12545347E+00 0.17133807E+04</pdfrwt>
<pdfrwt beam="2">  1       -2 0.13846447E+00 0.17133807E+04</pdfrwt>
<totfact> 0.11792653E+01</totfact>
</mgrwt>
</event>
<event>
 6    1  0.9562506E-007  0.1616915E+04  0.7818608E-02  0.8810223E-01
          2   -1    0    0  501    0  0.00000000000E+00  0.00000000000E+00  0.32423013483E+04  0.32423013483E+04  0.00000000000E+00 0. -1.
         -2   -1    0    0    0  501 -0.00000000000E+00 -0.00000000000E+00 -0.20158627977E+03  0.20158627977E+03  0.00000000000E+00 0.  1.
         23    2    1    2    0    0  0.37014702145E+03  0.66663096223E+03  0.97021125125E+03  0.12374444009E+04  0.92483057911E+02 0.  0.
         11    1    3    3    0    0  0.22295316307E+03  0.39243998462E+03  0.64588341041E+03  0.78796106141E+03  0.00000000000E+00 0. -1.
        -11    1    3    3    0    0  0.14719385837E+03  0.27419097761E+03  0.32432784084E+03  0.44948333950E+03  0.00000000000E+00 0.  1.
         22    1    1    2    0    0 -0.37014702145E+03 -0.66663096223E+03  0.20705038173E+04  0.22064432272E+04  0.00000000000E+00 0. -1.
<mgrwt>
<rscale>  0 0.16169149E+04</rscale>
<asrwt>0</asrwt>
<pdfrwt beam="1">  1        2 0.49881555E+00 0.16169149E+04</pdfrwt>
<pdfrwt beam="2">  1       -2 0.31013276E-01 0.16169149E+04</pdfrwt>
<totfact> 0.11319419E+01</totfact>
</mgrwt>
</event>
<event>
 6    1  0.9562506E-007  0.4601739E+04  0.7818608E-02  0.7893063E-01
          3   -1    0    0  501    0  0.00000000000E+00  0.00000000000E+00  0.20090109927E+04  0.20090109927E+04  0.00000000000E+00 0. -1.
         -3   -1    0    0    0  501 -0.00000000000E+00 -0.00000000000E+00 -0.26351275839E+04  0.26351275839E+04  0.00000000000E+00 0.  1.
         23    2    1    2    0    0  0.14819192022E+04 -0.83798365721E+03  0.12475354728E+04  0.21125633380E+04  0.90983348244E+02 0.  0.
         11    1    3    3    0    0  0.11740691354E+04 -0.67708911113E+03  0.10352573929E+04  0.17054752619E+04  0.00000000000E+00 0. -1.
        -11    1    3    3    0    0  0.30785006670E+03 -0.16089454608E+03  0.21227807989E+03  0.40708807613E+03  0.00000000000E+00 0.  1.
         22    1    1    2    0    0 -0.14819192022E+04  0.83798365721E+03 -0.18736520640E+04  0.25315752385E+04  0.00000000000E+00 0.  1.
<mgrwt>
<rscale>  0 0.46017389E+04</rscale>
<asrwt>0</asrwt>
<pdfrwt beam="1">  1        3 0.30907862E+00 0.46017389E+04</pdfrwt>
<pdfrwt beam="2">  1       -3 0.40540424E+00 0.46017389E+04</pdfrwt>
<totfact> 0.65612178E-04</totfact>
</mgrwt>
</event>
<event>
 6    1  0.9562506E-007  0.2954520E+04  0.7818608E-02  0.8256838E-01
         -1   -1    0    0    0  501 -0.00000000000E+00  0.00000000000E+00  0.58167848069E+03  0.58167848069E+03  0.00000000000E+00 0.  1.
          1   -1    0    0  501    0  0.00000000000E+00 -0.00000000000E+00 -0.37517243628E+04  0.37517243628E+04  0.00000000000E+00 0. -1.
         23    2    1    2    0    0  0.19870642299E+03  0.59136529598E+03  0.37602442523E+03  0.73287346847E+03  0.80696942886E+02 0.  0.
         13    1    3    3    0    0  0.40929530815E+02  0.48291625553E+02  0.43825411564E+02  0.76993339257E+02  0.00000000000E+00 0. -1.
        -13    1    3    3    0    0  0.15777689217E+03  0.54307367042E+03  0.33219901367E+03  0.65588012921E+03  0.00000000000E+00 0.  1.
         22    1    1    2    0    0 -0.19870642299E+03 -0.59136529598E+03 -0.35460703073E+04  0.36005293750E+04  0.00000000000E+00 0. -1.
<mgrwt>
<rscale>  0 0.29545201E+04</rscale>
<asrwt>0</asrwt>
<pdfrwt beam="1">  1        1 0.57718836E+00 0.29545201E+04</pdfrwt>
<pdfrwt beam="2">  1       -1 0.89488997E-01 0.29545201E+04</pdfrwt>
<totfact> 0.16332288E-01</totfact>
</mgrwt>
</event>
<event>
 6    1  0.9562506E-007  0.8025660E+03  0.7818608E-02  0.9556310E-01
          2   -1    0    0  501    0  0.00000000000E+00  0.00000000000E+00  0.16925802345E+04  0.16925802345E+04  0.00000000000E+00 0. -1.
         -2   -1    0    0    0  501 -0.00000000000E+00 -0.00000000000E+00 -0.95137603776E+02  0.95137603776E+02  0.00000000000E+00 0.  1.
         23    2    1    2    0    0 -0.42972573573E+02  0.39184633512E+03  0.89384765531E+03  0.98122166230E+03  0.91881049384E+02 0.  0.
         11    1    3    3    0    0 -0.22502851228E+02  0.19986204773E+03  0.34424516464E+03  0.39869280131E+03  0.00000000000E+00 0.  1.
        -11    1    3    3    0    0 -0.20469722346E+02  0.19198428739E+03  0.54960249067E+03  0.58252886099E+03  0.00000000000E+00 0. -1.
         22    1    1    2    0    0  0.42972573573E+02 -0.39184633512E+03  0.70359497537E+03  0.80649617593E+03  0.00000000000E+00 0. -1.
<mgrwt>
<rscale>  0 0.80256595E+03</rscale>
<asrwt>0</asrwt>
<pdfrwt beam="1">  1        2 0.26039694E+00 0.80256595E+03</pdfrwt>
<pdfrwt beam="2">  1       -2 0.14636556E-01 0.80256595E+03</pdfrwt>
<totfact> 0.36625019E+02</totfact>
</mgrwt>
</event>
<event>
 6    1  0.9562506E-007  0.1554605E+04  0.7818608E-02  0.8848931E-01
          1   -1    0    0  501    0  0.00000000000E+00  0.00000000000E+00  0.93658049774E+03  0.93658049774E+03  0.00000000000E+00 0. -1.
         -1   -1    0    0    0  501 -0.00000000000E+00 -0.00000000000E+00 -0.64511224564E+03  0.64511224564E+03  0.00000000000E+00 0.  1.
         23    2    1    2    0    0  0.84693187283E+02  0.76427443580E+03  0.22743790855E+03  0.81007869861E+03  0.11493975165E+03 0.  0.
         11    1    3    3    0    0  0.18145837362E+02  0.44348119929E+03  0.80845307163E+02  0.45115497252E+03  0.00000000000E+00 0. -1.
        -11    1    3    3    0    0  0.66547349921E+02  0.32079323651E+03  0.14659260139E+03  0.35892372609E+03  0.00000000000E+00 0.  1.
         22    1    1    2    0    0 -0.84693187283E+02 -0.76427443580E+03  0.64030343553E+02  0.77161404477E+03  0.00000000000E+00 0. -1.
<mgrwt>
<rscale>  0 0.15546055E+04</rscale>
<asrwt>0</asrwt>
<pdfrwt beam="1">  1        1 0.14408931E+00 0.15546055E+04</pdfrwt>
<pdfrwt beam="2">  1       -1 0.99248038E-01 0.15546055E+04</pdfrwt>
<totfact> 0.15873078E+01</totfact>
</mgrwt>
</event>
<event>
 6    1  0.9562506E-007  0.3661732E+04  0.7818608E-02  0.8076496E-01
          2   -1    0    0  501    0  0.00000000000E+00  0.00000000000E+00  0.30984855171E+04  0.30984855171E+04  0.00000000000E+00 0. -1.
         -2   -1    0    0    0  501 -0.00000000000E+00 -0.00000000000E+00 -0.10818415480E+04  0.10818415480E+04  0.00000000000E+00 0.  1.
         23    2    1    2    0    0 -0.99153945750E+03  0.11287976167E+04  0.22012114838E+04  0.26665900594E+04  0.89643701467E+02 0.  0.
         13    1    3    3    0    0 -0.50177613768E+03  0.62077061292E+03  0.11141137953E+04  0.13705418618E+04  0.00000000000E+00 0.  1.
        -13    1    3    3    0    0 -0.48976331983E+03  0.50802700373E+03  0.10870976885E+04  0.12960481975E+04  0.00000000000E+00 0. -1.
         22    1    1    2    0    0  0.99153945750E+03 -0.11287976167E+04 -0.18456751460E+03  0.15137370058E+04  0.00000000000E+00 0.  1.
<mgrwt>
<rscale>  0 0.36617320E+04</rscale>
<asrwt>0</asrwt>
<pdfrwt beam="1">  1        2 0.47669008E+00 0.36617320E+04</pdfrwt>
<pdfrwt beam="2">  1       -2 0.16643716E+00 0.36617320E+04</pdfrwt>
<totfact> 0.27622518E-01</totfact>
</mgrwt>
</event>
<event>
 6    1  0.9562506E-007  0.6955569E+03  0.7818608E-02  0.9724861E-01
         -1   -1    0    0    0  501 -0.00000000000E+00  0.00000000000E+00  0.25318984164E+03  0.25318984164E+03  0.00000000000E+00 0.  1.
          1   -1    0    0  501    0  0.00000000000E+00 -0.00000000000E+00 -0.47770422465E+03  0.47770422465E+03  0.00000000000E+00 0. -1.
         23    2    1    2    0    0 -0.22645630439E+02  0.13973970897E+03  0.21228524712E+03  0.27172750857E+03  0.93438760317E+02 0.  0.
         11    1    3    3    0    0 -0.70689296035E+01 -0.45550986459E+01  0.62864227786E+02  0.63424205352E+02  0.00000000000E+00 0. -1.
        -11    1    3    3    0    0 -0.15576700835E+02  0.14429480762E+03  0.14942101933E+03  0.20830330322E+03  0.00000000000E+00 0.  1.
         22    1    1    2    0    0  0.22645630439E+02 -0.13973970897E+03 -0.43679963014E+03  0.45916655772E+03  0.00000000000E+00 0. -1.
<mgrwt>
<rscale>  0 0.69555692E+03</rscale>
<asrwt>0</asrwt>
<pdfrwt beam="1">  1        1 0.73492957E-01 0.69555692E+03</pdfrwt>
<pdfrwt beam="2">  1       -1 0.38952284E-01 0.69555692E+03</pdfrwt>
<totfact> 0.30556104E+02</totfact>
</mgrwt>
</event>
<event>
 6    1  0.9562506E-007  0.7813685E+03  0.7818608E-02  0.9587384E-01
         -1   -1    0    0    0  501 -0.00000000000E+00  0.00000000000E+00  0.10853303512E+04  0.10853303512E+04  0.00000000000E+00 0.  1.
          1   -1    0    0  501    0  0.00000000000E+00 -0.00000000000E+00 -0.14063384155E+03  0.14063384155E+03  0.00000000000E+00 0. -1.
         23    2    1    2    0    0 -0.22941660363E+02  0.60669211398E+02  0.10747037217E+04  0.10806750046E+04  0.93076866892E+02 0.  0.
         11    1    3    3    0    0  0.35188211324E+02  0.35826531145E+02  0.48446611015E+03  0.48706176449E+03  0.00000000000E+00 0. -1.
        -11    1    3    3    0    0 -0.58129871687E+02  0.24842680253E+02  0.59023761153E+03  0.59361324009E+03  0.00000000000E+00 0.  1.
         22    1    1    2    0    0  0.22941660363E+02 -0.60669211398E+02 -0.13000721208E+03  0.14528918812E+03  0.00000000000E+00 0. -1.
<mgrwt>
<rscale>  0 0.78136848E+03</rscale>
<asrwt>0</asrwt>
<pdfrwt beam="1">  1        1 0.21635976E-01 0.78136848E+03</pdfrwt>
<pdfrwt beam="2">  1       -1 0.16697389E+00 0.78136848E+03</pdfrwt>
<totfact> 0.62262432E+01</totfact>
</mgrwt>
</event>
<event>
 6    1  0.9562506E-007  0.2696383E+04  0.7818608E-02  0.8336180E-01
         -1   -1    0    0    0  501 -0.00000000000E+00  0.00000000000E+00  0.15580453582E+04  0.15580453582E+04  0.00000000000E+00 0.  1.
          1   -1    0    0  501    0  0.00000000000E+00 -0.00000000000E+00 -0.11666029555E+04  0.11666029555E+04  0.00000000000E+00 0. -1.
         23    2    1    2    0    0  0.95314345029E+03  0.91924617726E+03  0.44324915888E+03  0.13994389298E+04  0.91997446914E+02 0.  0.
         13    1    3    3    0    0  0.65839195507E+03  0.62249999205E+03  0.25879066709E+03  0.94231566684E+03  0.00000000000E+00 0. -1.
        -13    1    3    3    0    0  0.29475149522E+03  0.29674618521E+03  0.18445849179E+03  0.45712326299E+03  0.00000000000E+00 0.  1.
         22    1    1    2    0    0 -0.95314345029E+03 -0.91924617726E+03 -0.51806756190E+02  0.13252093839E+04  0.00000000000E+00 0.  1.
<mgrwt>
<rscale>  0 0.26963830E+04</rscale>
<asrwt>0</asrwt>
<pdfrwt beam="1">  1        1 0.17947738E+00 0.26963830E+04</pdfrwt>
<pdfrwt beam="2">  1       -1 0.23969929E+00 0.26963830E+04</pdfrwt>
<totfact> 0.80434078E-01</totfact>
</mgrwt>
</event>
<event>
 6    1  0.9562506E-007  0.4794270E+04  0.7818608E-02  0.7861051E-01
         -1   -1    0    0    0  501 -0.00000000000E+00  0.00000000000E+00  0.15842501498E+04  0.15842501498E+04  0.00000000000E+00 0.  1.
          1   -1    0    0  501    0  0.00000000000E+00 -0.00000000000E+00 -0.36271141703E+04  0.36271141703E+04  0.00000000000E+00 0. -1.
         23    2    1    2    0    0  0.22963834911E+04 -0.68408222003E+03 -0.10595274213E+04  0.26213263881E+04  0.86070056050E+02 0.  0.
         13    1    3    3    0    0  0.10439410627E+04 -0.33696265383E+03 -0.52317126591E+03  0.12153456076E+04  0.00000000000E+00 0. -1.
        -13    1    3    3    0    0  0.12524424284E+04 -0.34711956620E+03 -0.53635615535E+03  0.14059807805E+04  0.00000000000E+00 0.  1.
         22    1    1    2    0    0 -0.22963834911E+04  0.68408222003E+03 -0.98333659927E+03  0.25900379321E+04  0.00000000000E+00 0.  1.
<mgrwt>
<rscale>  0 0.47942700E+04</rscale>
<asrwt>0</asrwt>
<pdfrwt beam="1">  1        1 0.55801756E+00 0.47942700E+04</pdfrwt>
<pdfrwt beam="2">  1       -1 0.24373080E+00 0.47942700E+04</pdfrwt>
<totfact> 0.11104265E-02</totfact>
</mgrwt>
</event>
<event>
 6    1  0.1008616E-006  0.2660628E+04  0.7818608E-02  0.8347894E-01
          2   -1    0    0  501    0  0.00000000000E+00  0.00000000000E+00  0.14076190062E+04  0.14076190062E+04  0.00000000000E+00 0. -1.
         -2   -1    0    0    0  501 -0.00000000000E+00 -0.00000000000E+00 -0.12572546597E+04  0.12572546597E+04  0.00000000000E+00 0.  1.
         23    2    1    2    0    0  0.36307135418E+03  0.21197141014E+03 -0.11872421885E+04  0.12627524410E+04  0.90813138298E+02 0.  0.
         13    1    3    3    0    0  0.12864600075E+03  0.47030902830E+02 -0.49275135597E+03  0.51143484251E+03  0.00000000000E+00 0. -1.
        -13    1    3    3    0    0  0.23442535343E+03  0.16494050731E+03 -0.69449083254E+03  0.75131759846E+03  0.00000000000E+00 0.  1.
         22    1    1    2    0    0 -0.36307135418E+03 -0.21197141014E+03  0.13376065350E+04  0.14021212249E+04  0.00000000000E+00 0. -1.
<mgrwt>
<rscale>  0 0.26606282E+04</rscale>
<asrwt>0</asrwt>
<pdfrwt beam="1">  1        2 0.21655677E+00 0.26606282E+04</pdfrwt>
<pdfrwt beam="2">  1       -2 0.19342379E+00 0.26606282E+04</pdfrwt>
<totfact> 0.18540849E+00</totfact>
</mgrwt>
</event>
<event>
 6    1  0.9562506E-007  0.4157968E+04  0.7818608E-02  0.7973416E-01
          2   -1    0    0  501    0  0.00000000000E+00  0.00000000000E+00  0.22949120774E+04  0.22949120774E+04  0.00000000000E+00 0. -1.
         -2   -1    0    0    0  501 -0.00000000000E+00 -0.00000000000E+00 -0.18833726886E+04  0.18833726886E+04  0.00000000000E+00 0.  1.
         23    2    1    2    0    0  0.11214284019E+04  0.42158096431E+03 -0.15002469229E+04  0.19221245164E+04  0.92139334396E+02 0.  0.
         11    1    3    3    0    0  0.48176772184E+03  0.13633761848E+03 -0.65354415327E+03  0.82329098398E+03  0.00000000000E+00 0.  1.
        -11    1    3    3    0    0  0.63966068004E+03  0.28524334583E+03 -0.84670276959E+03  0.10988335324E+04  0.00000000000E+00 0. -1.
         22    1    1    2    0    0 -0.11214284019E+04 -0.42158096431E+03  0.19117863117E+04  0.22561602495E+04  0.00000000000E+00 0. -1.
<mgrwt>
<rscale>  0 0.41579681E+04</rscale>
<asrwt>0</asrwt>
<pdfrwt beam="1">  1        2 0.35306340E+00 0.41579681E+04</pdfrwt>
<pdfrwt beam="2">  1       -2 0.28974964E+00 0.41579681E+04</pdfrwt>
<totfact> 0.13053428E-01</totfact>
</mgrwt>
</event>
<event>
 6    1  0.9562506E-007  0.5691140E+04  0.7818608E-02  0.7729922E-01
         -2   -1    0    0    0  501 -0.00000000000E+00  0.00000000000E+00  0.34643804579E+04  0.34643804579E+04  0.00000000000E+00 0.  1.
          2   -1    0    0  501    0  0.00000000000E+00 -0.00000000000E+00 -0.23372922295E+04  0.23372922295E+04  0.00000000000E+00 0. -1.
         23    2    1    2    0    0 -0.22997888581E+04 -0.14990325178E+04 -0.19724166988E+03  0.27537263360E+04  0.89315036214E+02 0.  0.
         11    1    3    3    0    0 -0.94121925792E+03 -0.57254445499E+03 -0.10639628123E+03  0.11068066738E+04  0.00000000000E+00 0. -1.
        -11    1    3    3    0    0 -0.13585696002E+04 -0.92648806283E+03 -0.90845388647E+02  0.16469196622E+04  0.00000000000E+00 0.  1.
         22    1    1    2    0    0  0.22997888581E+04  0.14990325178E+04  0.13243298983E+04  0.30479463514E+04  0.00000000000E+00 0.  1.
<mgrwt>
<rscale>  0 0.56911403E+04</rscale>
<asrwt>0</asrwt>
<pdfrwt beam="1">  1        2 0.35958342E+00 0.56911403E+04</pdfrwt>
<pdfrwt beam="2">  1       -2 0.53298161E+00 0.56911403E+04</pdfrwt>
<totfact> 0.31797858E-03</totfact>
</mgrwt>
</event>
<event>
 6    1  0.9562506E-007  0.1820019E+04  0.7818608E-02  0.8695726E-01
         -2   -1    0    0    0  501 -0.00000000000E+00  0.00000000000E+00  0.52575873710E+03  0.52575873710E+03  0.00000000000E+00 0.  1.
          2   -1    0    0  501    0  0.00000000000E+00 -0.00000000000E+00 -0.15750893653E+04  0.15750893653E+04  0.00000000000E+00 0. -1.
         23    2    1    2    0    0  0.23490831452E+03 -0.17024904803E+03 -0.15184855211E+04  0.15492386681E+04  0.10087377389E+03 0.  0.
         13    1    3    3    0    0  0.54810270334E+02 -0.10525368797E+02 -0.47919349057E+03  0.48243274198E+03  0.00000000000E+00 0. -1.
        -13    1    3    3    0    0  0.18009804419E+03 -0.15972367923E+03 -0.10392920305E+04  0.10668059261E+04  0.00000000000E+00 0.  1.
         22    1    1    2    0    0 -0.23490831452E+03  0.17024904803E+03  0.46915489286E+03  0.55160943437E+03  0.00000000000E+00 0.  1.
<mgrwt>
<rscale>  0 0.18200187E+04</rscale>
<asrwt>0</asrwt>
<pdfrwt beam="1">  1        2 0.24232144E+00 0.18200187E+04</pdfrwt>
<pdfrwt beam="2">  1       -2 0.80885960E-01 0.18200187E+04</pdfrwt>
<totfact> 0.14636223E+01</totfact>
</mgrwt>
</event>
<event>
 6    1  0.1509406E-006  0.3168526E+04  0.7818608E-02  0.8197179E-01
          2   -1    0    0  501    0  0.00000000000E+00  0.00000000000E+00  0.26414209983E+04  0.26414209983E+04  0.00000000000E+00 0. -1.
         -2   -1    0    0    0  501 -0.00000000000E+00 -0.00000000000E+00 -0.95020440431E+03  0.95020440431E+03  0.00000000000E+00 0.  1.
         23    2    1    2    0    0 -0.56336287053E+03  0.32334384752E+02 -0.83013297455E+03  0.10079019493E+04  0.91226902161E+02 0.  0.
         11    1    3    3    0    0 -0.24995895630E+03  0.40430442629E+02 -0.43713603025E+03  0.50517522650E+03  0.00000000000E+00 0. -1.
        -11    1    3    3    0    0 -0.31340391423E+03 -0.80960578776E+01 -0.39299694429E+03  0.50272672282E+03  0.00000000000E+00 0.  1.
         22    1    1    2    0    0  0.56336287053E+03 -0.32334384752E+02  0.25213495686E+04  0.25837234533E+04  0.00000000000E+00 0. -1.
<mgrwt>
<rscale>  0 0.31685264E+04</rscale>
<asrwt>0</asrwt>
<pdfrwt beam="1">  1        2 0.40637246E+00 0.31685264E+04</pdfrwt>
<pdfrwt beam="2">  1       -2 0.14618529E+00 0.31685264E+04</pdfrwt>
<totfact> 0.77874569E-01</totfact>
</mgrwt>
</event>
<event>
 6    1  0.9562506E-007  0.1996258E+04  0.7818608E-02  0.8608372E-01
          1   -1    0    0  501    0  0.00000000000E+00  0.00000000000E+00  0.35863673783E+04  0.35863673783E+04  0.00000000000E+00 0. -1.
         -1   -1    0    0    0  501 -0.00000000000E+00 -0.00000000000E+00 -0.27779128575E+03  0.27779128575E+03  0.00000000000E+00 0.  1.
         23    2    1    2    0    0 -0.84689184618E+03 -0.45496142578E+03  0.11543049951E+04  0.15051123187E+04  0.93420405540E+02 0.  0.
         13    1    3    3    0    0 -0.52108573044E+03 -0.26810708940E+03  0.77148963594E+03  0.96881784058E+03  0.00000000000E+00 0.  1.
        -13    1    3    3    0    0 -0.32580611574E+03 -0.18685433638E+03  0.38281535916E+03  0.53629447815E+03  0.00000000000E+00 0. -1.
         22    1    1    2    0    0  0.84689184618E+03  0.45496142578E+03  0.21542710974E+04  0.23590463453E+04  0.00000000000E+00 0.  1.
<mgrwt>
<rscale>  0 0.19962581E+04</rscale>
<asrwt>0</asrwt>
<pdfrwt beam="1">  1        1 0.55174879E+00 0.19962581E+04</pdfrwt>
<pdfrwt beam="2">  1       -1 0.42737123E-01 0.19962581E+04</pdfrwt>
<totfact> 0.10726323E+00</totfact>
</mgrwt>
</event>
<event>
 6    1  0.9562506E-007  0.5164638E+03  0.7818608E-02  0.1009569E+00
         -2   -1    0    0    0  501 -0.00000000000E+00  0.00000000000E+00  0.16541944340E+03  0.16541944340E+03  0.00000000000E+00 0.  1.
          2   -1    0    0  501    0  0.00000000000E+00 -0.00000000000E+00 -0.40311901584E+03  0.40311901584E+03  0.00000000000E+00 0. -1.
         23    2    1    2    0    0  0.13751331111E+03  0.93412579878E+02  0.83360384649E+02  0.20699272651E+03  0.90891222290E+02 0.  0.
         13    1    3    3    0    0  0.44008995577E+02  0.82867213579E+02  0.54789027873E+02  0.10865359798E+03  0.00000000000E+00 0.  1.
        -13    1    3    3    0    0  0.93504315533E+02  0.10545366299E+02  0.28571356776E+02  0.98339128538E+02  0.00000000000E+00 0. -1.
         22    1    1    2    0    0 -0.13751331111E+03 -0.93412579878E+02 -0.32105995708E+03  0.36154573273E+03  0.00000000000E+00 0. -1.
<mgrwt>
<rscale>  0 0.51646384E+03</rscale>
<asrwt>0</asrwt>
<pdfrwt beam="1">  1        2 0.62018310E-01 0.51646384E+03</pdfrwt>
<pdfrwt beam="2">  1       -2 0.25449145E-01 0.51646384E+03</pdfrwt>
<totfact> 0.10953004E+03</totfact>
</mgrwt>
</event>
<event>
 6    1  0.9562506E-007  0.1715787E+04  0.7818608E-02  0.8752411E-01
          2   -1    0    0  501    0  0.00000000000E+00  0.00000000000E+00  0.93497234707E+03  0.93497234707E+03  0.00000000000E+00 0. -1.
         -2   -1    0    0    0  501 -0.00000000000E+00 -0.00000000000E+00 -0.78716917600E+03  0.78716917600E+03  0.00000000000E+00 0.  1.
         23    2    1    2    0    0  0.61074138680E+03 -0.58717050621E+03  0.19297337572E+03  0.87372264522E+03  0.91533011084E+02 0.  0.
         13    1    3    3    0    0  0.24619073709E+03 -0.18621525072E+03  0.44752205046E+02  0.31191145937E+03  0.00000000000E+00 0.  1.
        -13    1    3    3    0    0  0.36455064971E+03 -0.40095525549E+03  0.14822117068E+03  0.56181118585E+03  0.00000000000E+00 0. -1.
         22    1    1    2    0    0 -0.61074138680E+03  0.58717050621E+03 -0.45170204657E+02  0.84841887785E+03  0.00000000000E+00 0.  1.
<mgrwt>
<rscale>  0 0.17157872E+04</rscale>
<asrwt>0</asrwt>
<pdfrwt beam="1">  1        2 0.14384190E+00 0.17157872E+04</pdfrwt>
<pdfrwt beam="2">  1       -2 0.12110295E+00 0.17157872E+04</pdfrwt>
<totfact> 0.13703086E+01</totfact>
</mgrwt>
</event>
<event>
 6    1  0.9562506E-007  0.1220165E+04  0.7818608E-02  0.9095387E-01
          2   -1    0    0  501    0  0.00000000000E+00  0.00000000000E+00  0.52476938819E+03  0.52476938819E+03  0.00000000000E+00 0. -1.
         -2   -1    0    0    0  501 -0.00000000000E+00 -0.00000000000E+00 -0.70926564765E+03  0.70926564765E+03  0.00000000000E+00 0.  1.
         23    2    1    2    0    0 -0.10069626208E+03  0.32058488306E+03  0.41797977063E+03  0.54418594273E+03  0.92286765966E+02 0.  0.
         13    1    3    3    0    0 -0.67318435149E+00  0.15221550974E+03  0.16970425949E+03  0.22796830980E+03  0.00000000000E+00 0.  1.
        -13    1    3    3    0    0 -0.10002307772E+03  0.16836937332E+03  0.24827551114E+03  0.31621763293E+03  0.00000000000E+00 0. -1.
         22    1    1    2    0    0  0.10069626208E+03 -0.32058488306E+03 -0.60247603009E+03  0.68984909311E+03  0.00000000000E+00 0.  1.
<mgrwt>
<rscale>  0 0.12201654E+04</rscale>
<asrwt>0</asrwt>
<pdfrwt beam="1">  1        2 0.80733752E-01 0.12201654E+04</pdfrwt>
<pdfrwt beam="2">  1       -2 0.10911779E+00 0.12201654E+04</pdfrwt>
<totfact> 0.38419565E+01</totfact>
</mgrwt>
</event>
<event>
 6    1  0.9562506E-007  0.4909907E+04  0.7818608E-02  0.7842557E-01
          2   -1    0    0  501    0  0.00000000000E+00  0.00000000000E+00  0.23182365537E+04  0.23182365537E+04  0.00000000000E+00 0. -1.
         -2   -1    0    0    0  501 -0.00000000000E+00 -0.00000000000E+00 -0.25997337851E+04  0.25997337851E+04  0.00000000000E+00 0.  1.
         23    2    1    2    0    0 -0.53891897524E+03 -0.29428687075E+03  0.22391443257E+04  0.23236164147E+04  0.91583334315E+02 0.  0.
         13    1    3    3    0    0 -0.32523804107E+03 -0.22730472101E+03  0.14510075425E+04  0.15042839187E+04  0.00000000000E+00 0.  1.
        -13    1    3    3    0    0 -0.21368093417E+03 -0.66982149735E+02  0.78813678322E+03  0.81933249604E+03  0.00000000000E+00 0. -1.
         22    1    1    2    0    0  0.53891897524E+03  0.29428687075E+03 -0.25206415571E+04  0.25943539241E+04  0.00000000000E+00 0.  1.
<mgrwt>
<rscale>  0 0.49099075E+04</rscale>
<asrwt>0</asrwt>
<pdfrwt beam="1">  1        2 0.35665178E+00 0.49099075E+04</pdfrwt>
<pdfrwt beam="2">  1       -2 0.39995904E+00 0.49099075E+04</pdfrwt>
<totfact> 0.24121809E-02</totfact>
</mgrwt>
</event>
<event>
 6    1  0.9562506E-007  0.6137621E+03  0.7818608E-02  0.9877258E-01
          2   -1    0    0  501    0  0.00000000000E+00  0.00000000000E+00  0.19274177023E+03  0.19274177023E+03  0.00000000000E+00 0. -1.
         -2   -1    0    0    0  501 -0.00000000000E+00 -0.00000000000E+00 -0.48861216335E+03  0.48861216335E+03  0.00000000000E+00 0.  1.
         23    2    1    2    0    0 -0.13235533168E+03  0.20179881978E+03 -0.34904119792E+03  0.43423486922E+03  0.92138299908E+02 0.  0.
         11    1    3    3    0    0 -0.57665916829E+02  0.62357855243E+02 -0.19831890565E+03  0.21574116068E+03  0.00000000000E+00 0. -1.
        -11    1    3    3    0    0 -0.74689414847E+02  0.13944096454E+03 -0.15072229227E+03  0.21849370853E+03  0.00000000000E+00 0.  1.
         22    1    1    2    0    0  0.13235533168E+03 -0.20179881978E+03  0.53170804801E+02  0.24711906437E+03  0.00000000000E+00 0. -1.
<mgrwt>
<rscale>  0 0.61376208E+03</rscale>
<asrwt>0</asrwt>
<pdfrwt beam="1">  1        2 0.29652580E-01 0.61376208E+03</pdfrwt>
<pdfrwt beam="2">  1       -2 0.75171102E-01 0.61376208E+03</pdfrwt>
<totfact> 0.28957740E+02</totfact>
</mgrwt>
</event>
<event>
 6    1  0.9562506E-007  0.1567834E+04  0.7818608E-02  0.8840556E-01
          2   -1    0    0  501    0  0.00000000000E+00  0.00000000000E+00  0.12467357219E+04  0.12467357219E+04  0.00000000000E+00 0. -1.
         -2   -1    0    0    0  501 -0.00000000000E+00 -0.00000000000E+00 -0.49290779553E+03  0.49290779553E+03  0.00000000000E+00 0.  1.
         23    2    1    2    0    0 -0.22903018590E+03  0.71583823882E+03  0.14182814560E+03  0.77040518666E+03  0.92356475328E+02 0.  0.
         13    1    3    3    0    0 -0.14931753538E+03  0.48063035252E+03  0.13863909642E+03  0.52203645581E+03  0.00000000000E+00 0. -1.
        -13    1    3    3    0    0 -0.79712650528E+02  0.23520788629E+03  0.31890491873E+01  0.24836873085E+03  0.00000000000E+00 0.  1.
         22    1    1    2    0    0  0.22903018590E+03 -0.71583823882E+03  0.61199978082E+03  0.96923833082E+03  0.00000000000E+00 0. -1.
<mgrwt>
<rscale>  0 0.15678339E+04</rscale>
<asrwt>0</asrwt>
<pdfrwt beam="1">  1        2 0.19180549E+00 0.15678339E+04</pdfrwt>
<pdfrwt beam="2">  1       -2 0.75831969E-01 0.15678339E+04</pdfrwt>
<totfact> 0.26613029E+01</totfact>
</mgrwt>
</event>
<event>
 6    1  0.9562506E-007  0.2548281E+04  0.7818608E-02  0.8385984E-01
         -1   -1    0    0    0  501 -0.00000000000E+00  0.00000000000E+00  0.58242040063E+03  0.58242040063E+03  0.00000000000E+00 0.  1.
          1   -1    0    0  501    0  0.00000000000E+00 -0.00000000000E+00 -0.27873910348E+04  0.27873910348E+04  0.00000000000E+00 0. -1.
         23    2    1    2    0    0  0.63449703585E+03  0.79050571176E+03 -0.21211388345E+04  0.23527010484E+04  0.92122196411E+02 0.  0.
         11    1    3    3    0    0  0.14476884891E+03  0.21078059383E+03 -0.45653535344E+03  0.52326953599E+03  0.00000000000E+00 0.  1.
        -11    1    3    3    0    0  0.48972818694E+03  0.57972511793E+03 -0.16646034810E+04  0.18294315124E+04  0.00000000000E+00 0. -1.
         22    1    1    2    0    0 -0.63449703585E+03 -0.79050571176E+03 -0.83831799703E+02  0.10171103871E+04  0.00000000000E+00 0.  1.
<mgrwt>
<rscale>  0 0.25482805E+04</rscale>
<asrwt>0</asrwt>
<pdfrwt beam="1">  1        1 0.42882940E+00 0.25482805E+04</pdfrwt>
<pdfrwt beam="2">  1       -1 0.89603137E-01 0.25482805E+04</pdfrwt>
<totfact> 0.91789671E-01</totfact>
</mgrwt>
</event>
<event>
 6    1  0.9562506E-007  0.1128629E+04  0.7818608E-02  0.9177728E-01
          1   -1    0    0  501    0  0.00000000000E+00  0.00000000000E+00  0.12833118176E+04  0.12833118176E+04  0.00000000000E+00 0. -1.
         -1   -1    0    0    0  501 -0.00000000000E+00 -0.00000000000E+00 -0.24814785970E+03  0.24814785970E+03  0.00000000000E+00 0.  1.
         23    2    1    2    0    0  0.35296932760E+03  0.32189530119E+03  0.12252404805E+03  0.50135505339E+03  0.90226470963E+02 0.  0.
         11    1    3    3    0    0  0.23869160447E+03  0.26668916375E+03  0.73967040780E+02  0.36546944500E+03  0.00000000000E+00 0. -1.
        -11    1    3    3    0    0  0.11427772313E+03  0.55206137438E+02  0.48557007275E+02  0.13588560840E+03  0.00000000000E+00 0.  1.
         22    1    1    2    0    0 -0.35296932760E+03 -0.32189530119E+03  0.91263990986E+03  0.10301046239E+04  0.00000000000E+00 0. -1.
<mgrwt>
<rscale>  0 0.11286294E+04</rscale>
<asrwt>0</asrwt>
<pdfrwt beam="1">  1        1 0.19743258E+00 0.11286294E+04</pdfrwt>
<pdfrwt beam="2">  1       -1 0.38176594E-01 0.11286294E+04</pdfrwt>
<totfact> 0.61300835E+01</totfact>
</mgrwt>
</event>
<event>
 6    1  0.9562506E-007  0.2213961E+04  0.7818608E-02  0.8512640E-01
          2   -1    0    0  501    0  0.00000000000E+00  0.00000000000E+00  0.12959958323E+04  0.12959958323E+04  0.00000000000E+00 0. -1.
         -2   -1    0    0    0  501 -0.00000000000E+00 -0.00000000000E+00 -0.94553195068E+03  0.94553195068E+03  0.00000000000E+00 0.  1.
         23    2    1    2    0    0  0.93833409477E+03 -0.40235484047E+03 -0.25265279684E+03  0.10557326831E+04  0.91530166249E+02 0.  0.
         11    1    3    3    0    0  0.54543448869E+03 -0.21216834094E+03 -0.10273550111E+03  0.59419590164E+03  0.00000000000E+00 0. -1.
        -11    1    3    3    0    0  0.39289960608E+03 -0.19018649954E+03 -0.14991729573E+03  0.46153678145E+03  0.00000000000E+00 0.  1.
         22    1    1    2    0    0 -0.93833409477E+03  0.40235484047E+03  0.60311667844E+03  0.11857950999E+04  0.00000000000E+00 0. -1.
<mgrwt>
<rscale>  0 0.22139607E+04</rscale>
<asrwt>0</asrwt>
<pdfrwt beam="1">  1        2 0.19938398E+00 0.22139607E+04</pdfrwt>
<pdfrwt beam="2">  1       -2 0.14546645E+00 0.22139607E+04</pdfrwt>
<totfact> 0.49312730E+00</totfact>
</mgrwt>
</event>
<event>
 6    1  0.9562506E-007  0.4545188E+04  0.7818608E-02  0.7902773E-01
         -2   -1    0    0    0  501 -0.00000000000E+00  0.00000000000E+00  0.11157009115E+04  0.11157009115E+04  0.00000000000E+00 0.  1.
          2   -1    0    0  501    0  0.00000000000E+00 -0.00000000000E+00 -0.46290941046E+04  0.46290941046E+04  0.00000000000E+00 0. -1.
         23    2    1    2    0    0  0.68930891513E+03 -0.18985289827E+04 -0.44329675778E+03  0.20698730848E+04  0.91123504311E+02 0.  0.
         11    1    3    3    0    0  0.25003865373E+03 -0.59190920785E+03 -0.16828326042E+03  0.66422518353E+03  0.00000000000E+00 0.  1.
        -11    1    3    3    0    0  0.43927026140E+03 -0.13066197749E+04 -0.27501349737E+03  0.14056479013E+04  0.00000000000E+00 0. -1.
         22    1    1    2    0    0 -0.68930891513E+03  0.18985289827E+04 -0.30700964353E+04  0.36749219312E+04  0.00000000000E+00 0.  1.
<mgrwt>
<rscale>  0 0.45451885E+04</rscale>
<asrwt>0</asrwt>
<pdfrwt beam="1">  1        2 0.71216832E+00 0.45451885E+04</pdfrwt>
<pdfrwt beam="2">  1       -2 0.17164630E+00 0.45451885E+04</pdfrwt>
<totfact> 0.14138825E-02</totfact>
</mgrwt>
</event>
<event>
 6    1  0.9562506E-007  0.1996863E+04  0.7818608E-02  0.8608089E-01
         -1   -1    0    0    0  501 -0.00000000000E+00  0.00000000000E+00  0.60780268685E+03  0.60780268685E+03  0.00000000000E+00 0.  1.
          1   -1    0    0  501    0  0.00000000000E+00 -0.00000000000E+00 -0.16401141157E+04  0.16401141157E+04  0.00000000000E+00 0. -1.
         23    2    1    2    0    0  0.12658489845E+03  0.39925003346E+03 -0.15349439988E+04  0.15936509345E+04  0.90806915337E+02 0.  0.
         11    1    3    3    0    0  0.59316793616E+02  0.69813477792E+02 -0.36814014823E+03  0.37936733179E+03  0.00000000000E+00 0.  1.
        -11    1    3    3    0    0  0.67268104830E+02  0.32943655567E+03 -0.11668038505E+04  0.12142836027E+04  0.00000000000E+00 0. -1.
         22    1    1    2    0    0 -0.12658489845E+03 -0.39925003346E+03  0.50263256994E+03  0.65426586805E+03  0.00000000000E+00 0.  1.
<mgrwt>
<rscale>  0 0.19968633E+04</rscale>
<asrwt>0</asrwt>
<pdfrwt beam="1">  1        1 0.25232525E+00 0.19968633E+04</pdfrwt>
<pdfrwt beam="2">  1       -1 0.93508106E-01 0.19968633E+04</pdfrwt>
<totfact> 0.53912870E+00</totfact>
</mgrwt>
</event>
<event>
 6    1  0.9562506E-007  0.1582817E+04  0.7818608E-02  0.8831174E-01
         -1   -1    0    0    0  501 -0.00000000000E+00  0.00000000000E+00  0.46235916685E+03  0.46235916685E+03  0.00000000000E+00 0.  1.
          1   -1    0    0  501    0  0.00000000000E+00 -0.00000000000E+00 -0.13546336234E+04  0.13546336234E+04  0.00000000000E+00 0. -1.
         23    2    1    2    0    0  0.10579326445E+03 -0.77954054589E+03 -0.51384661306E+03  0.94401895890E+03  0.90872303346E+02 0.  0.
         13    1    3    3    0    0  0.10563632580E+03 -0.52635127837E+03 -0.31837409843E+03  0.62415284035E+03  0.00000000000E+00 0.  1.
        -13    1    3    3    0    0  0.15693865606E+00 -0.25318926752E+03 -0.19547251463E+03  0.31986611855E+03  0.00000000000E+00 0. -1.
         22    1    1    2    0    0 -0.10579326445E+03  0.77954054589E+03 -0.37842784348E+03  0.87297383135E+03  0.00000000000E+00 0.  1.
<mgrwt>
<rscale>  0 0.15828168E+04</rscale>
<asrwt>0</asrwt>
<pdfrwt beam="1">  1        1 0.20840517E+00 0.15828168E+04</pdfrwt>
<pdfrwt beam="2">  1       -1 0.71132181E-01 0.15828168E+04</pdfrwt>
<totfact> 0.15863115E+01</totfact>
</mgrwt>
</event>
<event>
 6    1  0.9562506E-007  0.2631235E+04  0.7818608E-02  0.8357668E-01
         -2   -1    0    0    0  501 -0.00000000000E+00  0.00000000000E+00  0.75319447963E+03  0.75319447963E+03  0.00000000000E+00 0.  1.
          2   -1    0    0  501    0  0.00000000000E+00 -0.00000000000E+00 -0.22980118251E+04  0.22980118251E+04  0.00000000000E+00 0. -1.
         23    2    1    2    0    0  0.32547551497E+03  0.13961184249E+03 -0.22407035629E+04  0.22703840425E+04  0.92007967450E+02 0.  0.
         13    1    3    3    0    0  0.18356927678E+03  0.47015499937E+02 -0.96034937863E+03  0.97886621437E+03  0.00000000000E+00 0.  1.
        -13    1    3    3    0    0  0.14190623819E+03  0.92596342552E+02 -0.12803541843E+04  0.12915178281E+04  0.00000000000E+00 0. -1.
         22    1    1    2    0    0 -0.32547551497E+03 -0.13961184249E+03  0.69588621751E+03  0.78082226219E+03  0.00000000000E+00 0.  1.
<mgrwt>
<rscale>  0 0.26312353E+04</rscale>
<asrwt>0</asrwt>
<pdfrwt beam="1">  1        2 0.35354028E+00 0.26312353E+04</pdfrwt>
<pdfrwt beam="2">  1       -2 0.11587607E+00 0.26312353E+04</pdfrwt>
<totfact> 0.23208649E+00</totfact>
</mgrwt>
</event>
<event>
 6    1  0.9562506E-007  0.3582633E+04  0.7818608E-02  0.8094482E-01
          1   -1    0    0  501    0  0.00000000000E+00  0.00000000000E+00  0.18507382264E+04  0.18507382264E+04  0.00000000000E+00 0. -1.
         -1   -1    0    0    0  501 -0.00000000000E+00 -0.00000000000E+00 -0.17338022285E+04  0.17338022285E+04  0.00000000000E+00 0.  1.
         23    2    1    2    0    0  0.16950208092E+04 -0.57359581276E+03  0.64185681490E+01  0.17916874764E+04  0.89415407158E+02 0.  0.
         13    1    3    3    0    0  0.44443033797E+03 -0.19102758495E+03  0.11409612600E+02  0.48388019465E+03  0.00000000000E+00 0.  1.
        -13    1    3    3    0    0  0.12505904713E+04 -0.38256822781E+03 -0.49910444508E+01  0.13078072818E+04  0.00000000000E+00 0. -1.
         22    1    1    2    0    0 -0.16950208092E+04  0.57359581276E+03  0.11051742980E+03  0.17928529785E+04  0.00000000000E+00 0. -1.
<mgrwt>
<rscale>  0 0.35826326E+04</rscale>
<asrwt>0</asrwt>
<pdfrwt beam="1">  1        1 0.28472896E+00 0.35826326E+04</pdfrwt>
<pdfrwt beam="2">  1       -1 0.26673880E+00 0.35826326E+04</pdfrwt>
<totfact> 0.16540751E-01</totfact>
</mgrwt>
</event>
<event>
 6    1  0.9562506E-007  0.1878034E+04  0.7818608E-02  0.8665868E-01
         -1   -1    0    0    0  501 -0.00000000000E+00  0.00000000000E+00  0.78666877952E+03  0.78666877952E+03  0.00000000000E+00 0.  1.
          1   -1    0    0  501    0  0.00000000000E+00 -0.00000000000E+00 -0.11208687991E+04  0.11208687991E+04  0.00000000000E+00 0. -1.
         23    2    1    2    0    0  0.92796704489E+03 -0.12779455281E+03 -0.15043286503E+03  0.95295670139E+03  0.89678000156E+02 0.  0.
         11    1    3    3    0    0  0.74421936473E+03 -0.70853657244E+02 -0.10132980949E+03  0.75442059482E+03  0.00000000000E+00 0. -1.
        -11    1    3    3    0    0  0.18374768015E+03 -0.56940895563E+02 -0.49103055538E+02  0.19853610657E+03  0.00000000000E+00 0.  1.
         22    1    1    2    0    0 -0.92796704489E+03  0.12779455281E+03 -0.18376715457E+03  0.95458087726E+03  0.00000000000E+00 0. -1.
<mgrwt>
<rscale>  0 0.18780335E+04</rscale>
<asrwt>0</asrwt>
<pdfrwt beam="1">  1        1 0.17244135E+00 0.18780335E+04</pdfrwt>
<pdfrwt beam="2">  1       -1 0.12102597E+00 0.18780335E+04</pdfrwt>
<totfact> 0.69504877E+00</totfact>
</mgrwt>
</event>
<event>
 6    1  0.9562506E-007  0.7782975E+04  0.7818608E-02  0.7501669E-01
         -1   -1    0    0    0  501 -0.00000000000E+00  0.00000000000E+00  0.39039337196E+04  0.39039337196E+04  0.00000000000E+00 0.  1.
          1   -1    0    0  501    0  0.00000000000E+00 -0.00000000000E+00 -0.38790805389E+04  0.38790805389E+04  0.00000000000E+00 0. -1.
         23    2    1    2    0    0 -0.80036810102E+00 -0.70920128037E+03 -0.38133242976E+04  0.38798650875E+04  0.94571676206E+02 0.  0.
         13    1    3    3    0    0  0.44903738131E+02 -0.42940497427E+03 -0.22536216494E+04  0.22946057431E+04  0.00000000000E+00 0. -1.
        -13    1    3    3    0    0 -0.45704106232E+02 -0.27979630610E+03 -0.15597026482E+04  0.15852593444E+04  0.00000000000E+00 0.  1.
         22    1    1    2    0    0  0.80036810102E+00  0.70920128037E+03  0.38381774783E+04  0.39031491710E+04  0.00000000000E+00 0.  1.
<mgrwt>
<rscale>  0 0.77829746E+04</rscale>
<asrwt>0</asrwt>
<pdfrwt beam="1">  1        1 0.59678162E+00 0.77829746E+04</pdfrwt>
<pdfrwt beam="2">  1       -1 0.60060519E+00 0.77829746E+04</pdfrwt>
<totfact> 0.32366536E-05</totfact>
</mgrwt>
</event>
<event>
 6    1  0.9562506E-007  0.2343708E+04  0.7818608E-02  0.8460884E-01
         -2   -1    0    0    0  501 -0.00000000000E+00  0.00000000000E+00  0.93434772946E+03  0.93434772946E+03  0.00000000000E+00 0.  1.
          2   -1    0    0  501    0  0.00000000000E+00 -0.00000000000E+00 -0.14697335687E+04  0.14697335687E+04  0.00000000000E+00 0. -1.
         23    2    1    2    0    0 -0.42140741524E+03  0.51915632145E+03  0.71714804911E+03  0.98424023761E+03  0.85557146169E+02 0.  0.
         13    1    3    3    0    0 -0.57179390883E+02  0.37526411061E+02  0.96819390654E+02  0.11853990330E+03  0.00000000000E+00 0.  1.
        -13    1    3    3    0    0 -0.36422802436E+03  0.48162991039E+03  0.62032865846E+03  0.86570033431E+03  0.00000000000E+00 0. -1.
         22    1    1    2    0    0  0.42140741524E+03 -0.51915632145E+03 -0.12525338883E+04  0.14198410605E+04  0.00000000000E+00 0. -1.
<mgrwt>
<rscale>  0 0.23437084E+04</rscale>
<asrwt>0</asrwt>
<pdfrwt beam="1">  1        2 0.22611286E+00 0.23437084E+04</pdfrwt>
<pdfrwt beam="2">  1       -2 0.14374581E+00 0.23437084E+04</pdfrwt>
<totfact> 0.39996922E+00</totfact>
</mgrwt>
</event>
<event>
 6    1  0.9562506E-007  0.3165406E+04  0.7818608E-02  0.8198014E-01
          2   -1    0    0  501    0  0.00000000000E+00  0.00000000000E+00  0.19269535541E+04  0.19269535541E+04  0.00000000000E+00 0. -1.
         -2   -1    0    0    0  501 -0.00000000000E+00 -0.00000000000E+00 -0.12999529765E+04  0.12999529765E+04  0.00000000000E+00 0.  1.
         23    2    1    2    0    0  0.52590947727E+03 -0.59119469648E+03 -0.10820781099E+04  0.13435473223E+04  0.90191040983E+02 0.  0.
         11    1    3    3    0    0  0.11423598515E+03 -0.79091536580E+02 -0.20501769026E+03  0.24766425818E+03  0.00000000000E+00 0. -1.
        -11    1    3    3    0    0  0.41167349213E+03 -0.51210315990E+03 -0.87706041968E+03  0.10958830641E+04  0.00000000000E+00 0.  1.
         22    1    1    2    0    0 -0.52590947727E+03  0.59119469648E+03  0.17090786875E+04  0.18833592083E+04  0.00000000000E+00 0. -1.
<mgrwt>
<rscale>  0 0.31654061E+04</rscale>
<asrwt>0</asrwt>
<pdfrwt beam="1">  1        2 0.29645439E+00 0.31654061E+04</pdfrwt>
<pdfrwt beam="2">  1       -2 0.19999277E+00 0.31654061E+04</pdfrwt>
<totfact> 0.82411656E-01</totfact>
</mgrwt>
</event>
<event>
 6    1  0.9562506E-007  0.9801220E+03  0.7818608E-02  0.9330619E-01
         -1   -1    0    0    0  501 -0.00000000000E+00  0.00000000000E+00  0.40272524001E+03  0.40272524001E+03  0.00000000000E+00 0.  1.
          1   -1    0    0  501    0  0.00000000000E+00 -0.00000000000E+00 -0.59633651987E+03  0.59633651987E+03  0.00000000000E+00 0. -1.
         23    2    1    2    0    0 -0.14331343480E+03 -0.84168390794E+02 -0.56297641589E+03  0.59402637585E+03  0.91114388307E+02 0.  0.
         11    1    3    3    0    0 -0.86960428386E+02 -0.69519825981E+02 -0.22463025312E+03  0.25070674687E+03  0.00000000000E+00 0. -1.
        -11    1    3    3    0    0 -0.56353006410E+02 -0.14648564813E+02 -0.33834616277E+03  0.34331962898E+03  0.00000000000E+00 0.  1.
         22    1    1    2    0    0  0.14331343480E+03  0.84168390794E+02  0.36936513603E+03  0.40503538403E+03  0.00000000000E+00 0.  1.
<mgrwt>
<rscale>  0 0.98012197E+03</rscale>
<asrwt>0</asrwt>
<pdfrwt beam="1">  1        1 0.91744079E-01 0.98012197E+03</pdfrwt>
<pdfrwt beam="2">  1       -1 0.61957730E-01 0.98012197E+03</pdfrwt>
<totfact> 0.91660591E+01</totfact>
</mgrwt>
</event>
<event>
 6    1  0.9562506E-007  0.1896549E+04  0.7818608E-02  0.8656576E-01
          1   -1    0    0  501    0  0.00000000000E+00  0.00000000000E+00  0.15345755637E+04  0.15345755637E+04  0.00000000000E+00 0. -1.
         -1   -1    0    0    0  501 -0.00000000000E+00 -0.00000000000E+00 -0.58597587572E+03  0.58597587572E+03  0.00000000000E+00 0.  1.
         23    2    1    2    0    0  0.74617541574E+03  0.57954825553E+03  0.41993111487E+03  0.10378952651E+04  0.90722150390E+02 0.  0.
         13    1    3    3    0    0  0.25624897316E+03  0.18695641053E+03  0.95855476667E+02  0.33136763283E+03  0.00000000000E+00 0. -1.
        -13    1    3    3    0    0  0.48992644258E+03  0.39259184499E+03  0.32407563820E+03  0.70652763228E+03  0.00000000000E+00 0.  1.
         22    1    1    2    0    0 -0.74617541574E+03 -0.57954825553E+03  0.52866857307E+03  0.10826561743E+04  0.00000000000E+00 0.  1.
<mgrwt>
<rscale>  0 0.18965487E+04</rscale>
<asrwt>0</asrwt>
<pdfrwt beam="1">  1        1 0.23608855E+00 0.18965487E+04</pdfrwt>
<pdfrwt beam="2">  1       -1 0.90150136E-01 0.18965487E+04</pdfrwt>
<totfact> 0.69724709E+00</totfact>
</mgrwt>
</event>
<event>
 6    1  0.9562506E-007  0.4752268E+04  0.7818608E-02  0.7867901E-01
          2   -1    0    0  501    0  0.00000000000E+00  0.00000000000E+00  0.16568437088E+04  0.16568437088E+04  0.00000000000E+00 0. -1.
         -2   -1    0    0    0  501 -0.00000000000E+00 -0.00000000000E+00 -0.34076919970E+04  0.34076919970E+04  0.00000000000E+00 0.  1.
         23    2    1    2    0    0  0.16981491073E+04  0.14575523754E+04 -0.17241177581E+04  0.28264821231E+04  0.90828579395E+02 0.  0.
         13    1    3    3    0    0  0.14159487713E+04  0.11701320582E+04 -0.14061256717E+04  0.23132897270E+04  0.00000000000E+00 0. -1.
        -13    1    3    3    0    0  0.28220033595E+03  0.28742031728E+03 -0.31799208644E+03  0.51319239612E+03  0.00000000000E+00 0.  1.
         22    1    1    2    0    0 -0.16981491073E+04 -0.14575523754E+04 -0.26730530136E+02  0.22380535827E+04  0.00000000000E+00 0. -1.
<mgrwt>
<rscale>  0 0.47522681E+04</rscale>
<asrwt>0</asrwt>
<pdfrwt beam="1">  1        2 0.25489904E+00 0.47522681E+04</pdfrwt>
<pdfrwt beam="2">  1       -2 0.52426030E+00 0.47522681E+04</pdfrwt>
<totfact> 0.91451971E-03</totfact>
</mgrwt>
</event>
<event>
 6    1  0.9562506E-007  0.1752718E+04  0.7818608E-02  0.8731856E-01
         -3   -1    0    0    0  501 -0.00000000000E+00  0.00000000000E+00  0.77430852225E+03  0.77430852225E+03  0.00000000000E+00 0.  1.
          3   -1    0    0  501    0  0.00000000000E+00 -0.00000000000E+00 -0.99185951105E+03  0.99185951105E+03  0.00000000000E+00 0. -1.
         23    2    1    2    0    0  0.43292990586E+03 -0.40935426129E+03  0.53526722153E+03  0.80609799813E+03  0.91015215874E+02 0.  0.
         11    1    3    3    0    0  0.40217649816E+03 -0.36042770025E+03  0.51077213076E+03  0.74333184537E+03  0.00000000000E+00 0.  1.
        -11    1    3    3    0    0  0.30753407700E+02 -0.48926561042E+02  0.24495090768E+02  0.62766152760E+02  0.00000000000E+00 0. -1.
         22    1    1    2    0    0 -0.43292990586E+03  0.40935426129E+03 -0.75281821034E+03  0.96007003517E+03  0.00000000000E+00 0. -1.
<mgrwt>
<rscale>  0 0.17527182E+04</rscale>
<asrwt>0</asrwt>
<pdfrwt beam="1">  1        3 0.15259377E+00 0.17527182E+04</pdfrwt>
<pdfrwt beam="2">  1       -3 0.11912439E+00 0.17527182E+04</pdfrwt>
<totfact> 0.44166684E-01</totfact>
</mgrwt>
</event>
<event>
 6    1  0.9562506E-007  0.2393152E+04  0.7818608E-02  0.8442072E-01
          2   -1    0    0  501    0  0.00000000000E+00  0.00000000000E+00  0.25898575419E+04  0.25898575419E+04  0.00000000000E+00 0. -1.
         -2   -1    0    0    0  501 -0.00000000000E+00 -0.00000000000E+00 -0.55284687566E+03  0.55284687566E+03  0.00000000000E+00 0.  1.
         23    2    1    2    0    0  0.71053823793E+03  0.85957216381E+03  0.45740917530E+03  0.12090886950E+04  0.94569690456E+02 0.  0.
         11    1    3    3    0    0  0.29841170776E+03  0.34925512458E+03  0.13904389315E+03  0.47996030419E+03  0.00000000000E+00 0. -1.
        -11    1    3    3    0    0  0.41212653017E+03  0.51031703923E+03  0.31836528215E+03  0.72912839080E+03  0.00000000000E+00 0.  1.
         22    1    1    2    0    0 -0.71053823793E+03 -0.85957216381E+03  0.15796014909E+04  0.19336157225E+04  0.00000000000E+00 0. -1.
<mgrwt>
<rscale>  0 0.23931524E+04</rscale>
<asrwt>0</asrwt>
<pdfrwt beam="1">  1        2 0.39843962E+00 0.23931524E+04</pdfrwt>
<pdfrwt beam="2">  1       -2 0.85053367E-01 0.23931524E+04</pdfrwt>
<totfact> 0.33397608E+00</totfact>
</mgrwt>
</event>
<event>
 6    1  0.9562506E-007  0.1580809E+04  0.7818608E-02  0.8832425E-01
          1   -1    0    0  501    0  0.00000000000E+00  0.00000000000E+00  0.12125472378E+04  0.12125472378E+04  0.00000000000E+00 0. -1.
         -1   -1    0    0    0  501 -0.00000000000E+00 -0.00000000000E+00 -0.51522863066E+03  0.51522863066E+03  0.00000000000E+00 0.  1.
         23    2    1    2    0    0 -0.29112476103E+03 -0.47279401927E+02  0.11479801900E+04  0.11891806302E+04  0.96452507122E+02 0.  0.
         13    1    3    3    0    0 -0.25175538776E+03 -0.68945625351E+02  0.10392714631E+04  0.10715500215E+04  0.00000000000E+00 0.  1.
        -13    1    3    3    0    0 -0.39369373266E+02  0.21666223424E+02  0.10870872693E+03  0.11763060869E+03  0.00000000000E+00 0. -1.
         22    1    1    2    0    0  0.29112476103E+03  0.47279401927E+02 -0.45066158294E+03  0.53859523825E+03  0.00000000000E+00 0.  1.
<mgrwt>
<rscale>  0 0.15808087E+04</rscale>
<asrwt>0</asrwt>
<pdfrwt beam="1">  1        1 0.18654573E+00 0.15808087E+04</pdfrwt>
<pdfrwt beam="2">  1       -1 0.79265943E-01 0.15808087E+04</pdfrwt>
<totfact> 0.15996629E+01</totfact>
</mgrwt>
</event>
<event>
 6    1  0.9562506E-007  0.7965719E+03  0.7818608E-02  0.9564992E-01
         -1   -1    0    0    0  501 -0.00000000000E+00  0.00000000000E+00  0.47457470360E+03  0.47457470360E+03  0.00000000000E+00 0.  1.
          1   -1    0    0  501    0  0.00000000000E+00 -0.00000000000E+00 -0.33426073494E+03  0.33426073494E+03  0.00000000000E+00 0. -1.
         23    2    1    2    0    0 -0.15621660171E+03 -0.35638723489E+03  0.12438454078E+03  0.41938809355E+03  0.94865015601E+02 0.  0.
         13    1    3    3    0    0 -0.12187760475E+03 -0.24712104162E+03  0.42984358570E+02  0.27887383318E+03  0.00000000000E+00 0.  1.
        -13    1    3    3    0    0 -0.34338996964E+02 -0.10926619327E+03  0.81400182208E+02  0.14051426037E+03  0.00000000000E+00 0. -1.
         22    1    1    2    0    0  0.15621660171E+03  0.35638723489E+03  0.15929427888E+02  0.38944734499E+03  0.00000000000E+00 0. -1.
<mgrwt>
<rscale>  0 0.79657188E+03</rscale>
<asrwt>0</asrwt>
<pdfrwt beam="1">  1        1 0.51424728E-01 0.79657188E+03</pdfrwt>
<pdfrwt beam="2">  1       -1 0.73011494E-01 0.79657188E+03</pdfrwt>
<totfact> 0.14570091E+02</totfact>
</mgrwt>
</event>
<event>
 6    1  0.9767339E-007  0.2934789E+04  0.7818608E-02  0.8262601E-01
         -3   -1    0    0    0  501 -0.00000000000E+00  0.00000000000E+00  0.17946904642E+04  0.17946904642E+04  0.00000000000E+00 0.  1.
          3   -1    0    0  501    0  0.00000000000E+00 -0.00000000000E+00 -0.11997871346E+04  0.11997871346E+04  0.00000000000E+00 0. -1.
         23    2    1    2    0    0  0.94939235588E+03  0.45165992285E+02 -0.84104206676E+03  0.12724656960E+04  0.91822530521E+02 0.  0.
         13    1    3    3    0    0  0.34489611663E+03  0.51904598020E+02 -0.34329699666E+03  0.48938762395E+03  0.00000000000E+00 0.  1.
        -13    1    3    3    0    0  0.60449623925E+03 -0.67386057358E+01 -0.49774507010E+03  0.78307807202E+03  0.00000000000E+00 0. -1.
         22    1    1    2    0    0 -0.94939235588E+03 -0.45165992285E+02  0.14359453963E+04  0.17220119028E+04  0.00000000000E+00 0.  1.
<mgrwt>
<rscale>  0 0.29347889E+04</rscale>
<asrwt>0</asrwt>
<pdfrwt beam="1">  1        3 0.18458264E+00 0.29347889E+04</pdfrwt>
<pdfrwt beam="2">  1       -3 0.27610622E+00 0.29347889E+04</pdfrwt>
<totfact> 0.21421977E-02</totfact>
</mgrwt>
</event>
<event>
 6    1  0.9562506E-007  0.1547690E+04  0.7818608E-02  0.8853345E-01
         -2   -1    0    0    0  501 -0.00000000000E+00  0.00000000000E+00  0.20648738041E+03  0.20648738041E+03  0.00000000000E+00 0.  1.
          2   -1    0    0  501    0  0.00000000000E+00 -0.00000000000E+00 -0.29001087040E+04  0.29001087040E+04  0.00000000000E+00 0. -1.
         23    2    1    2    0    0  0.49037641468E+03 -0.52248866165E+03 -0.77813998554E+03  0.10614720818E+04  0.88077884521E+02 0.  0.
         13    1    3    3    0    0  0.42681559489E+02 -0.85314070803E+02 -0.86426374887E+02  0.12872344182E+03  0.00000000000E+00 0. -1.
        -13    1    3    3    0    0  0.44769485519E+03 -0.43717459084E+03 -0.69171361066E+03  0.93274863999E+03  0.00000000000E+00 0.  1.
         22    1    1    2    0    0 -0.49037641468E+03  0.52248866165E+03 -0.19154813381E+04  0.20451240026E+04  0.00000000000E+00 0. -1.
<mgrwt>
<rscale>  0 0.15476897E+04</rscale>
<asrwt>0</asrwt>
<pdfrwt beam="1">  1        2 0.44617057E+00 0.15476897E+04</pdfrwt>
<pdfrwt beam="2">  1       -2 0.31767289E-01 0.15476897E+04</pdfrwt>
<totfact> 0.17911925E+01</totfact>
</mgrwt>
</event>
<event>
 6    1  0.9562506E-007  0.4908320E+04  0.7818608E-02  0.7842807E-01
         -1   -1    0    0    0  501 -0.00000000000E+00  0.00000000000E+00  0.17155709892E+04  0.17155709892E+04  0.00000000000E+00 0.  1.
          1   -1    0    0  501    0  0.00000000000E+00 -0.00000000000E+00 -0.35107265554E+04  0.35107265554E+04  0.00000000000E+00 0. -1.
         23    2    1    2    0    0 -0.21626523671E+04 -0.36644647886E+03  0.27200675118E+03  0.22122457320E+04  0.93248180663E+02 0.  0.
         11    1    3    3    0    0 -0.10148136046E+04 -0.18173407002E+03  0.17373337717E+03  0.10454937640E+04  0.00000000000E+00 0.  1.
        -11    1    3    3    0    0 -0.11478387625E+04 -0.18471240883E+03  0.98273374011E+02  0.11667519680E+04  0.00000000000E+00 0. -1.
         22    1    1    2    0    0  0.21626523671E+04  0.36644647886E+03 -0.20671623173E+04  0.30140518126E+04  0.00000000000E+00 0. -1.
<mgrwt>
<rscale>  0 0.49083197E+04</rscale>
<asrwt>0</asrwt>
<pdfrwt beam="1">  1        1 0.54011177E+00 0.49083197E+04</pdfrwt>
<pdfrwt beam="2">  1       -1 0.26393400E+00 0.49083197E+04</pdfrwt>
<totfact> 0.10069936E-02</totfact>
</mgrwt>
</event>
<event>
 6    1  0.9562506E-007  0.6731069E+03  0.7818608E-02  0.9764361E-01
         -1   -1    0    0    0  501 -0.00000000000E+00  0.00000000000E+00  0.31544944037E+03  0.31544944037E+03  0.00000000000E+00 0.  1.
          1   -1    0    0  501    0  0.00000000000E+00 -0.00000000000E+00 -0.35906929518E+03  0.35906929518E+03  0.00000000000E+00 0. -1.
         23    2    1    2    0    0  0.57715138892E+02 -0.21405271814E+03  0.22340666552E+03  0.32745567794E+03  0.90371895084E+02 0.  0.
         13    1    3    3    0    0  0.60158022584E+02 -0.60998348988E+02  0.92022896083E+02  0.12572986783E+03  0.00000000000E+00 0.  1.
        -13    1    3    3    0    0 -0.24428836920E+01 -0.15305436915E+03  0.13138376943E+03  0.20172581012E+03  0.00000000000E+00 0. -1.
         22    1    1    2    0    0 -0.57715138892E+02  0.21405271814E+03 -0.26702652033E+03  0.34706305761E+03  0.00000000000E+00 0. -1.
<mgrwt>
<rscale>  0 0.67310685E+03</rscale>
<asrwt>0</asrwt>
<pdfrwt beam="1">  1        1 0.55241430E-01 0.67310685E+03</pdfrwt>
<pdfrwt beam="2">  1       -1 0.48530683E-01 0.67310685E+03</pdfrwt>
<totfact> 0.29816436E+02</totfact>
</mgrwt>
</event>
<event>
 6    1  0.9562506E-007  0.2328854E+04  0.7818608E-02  0.8466630E-01
         -1   -1    0    0    0  501 -0.00000000000E+00  0.00000000000E+00  0.12798231369E+04  0.12798231369E+04  0.00000000000E+00 0.  1.
          1   -1    0    0  501    0  0.00000000000E+00 -0.00000000000E+00 -0.10594358586E+04  0.10594358586E+04  0.00000000000E+00 0. -1.
         23    2    1    2    0    0  0.21718963720E+02 -0.84495243922E+03 -0.69123971708E+03  0.10960855898E+04  0.95785884582E+02 0.  0.
         13    1    3    3    0    0 -0.14374502172E+02 -0.39562253307E+03 -0.27057244509E+03  0.47951356918E+03  0.00000000000E+00 0.  1.
        -13    1    3    3    0    0  0.36093465891E+02 -0.44932990615E+03 -0.42066727199E+03  0.61657202058E+03  0.00000000000E+00 0. -1.
         22    1    1    2    0    0 -0.21718963720E+02  0.84495243922E+03  0.91162699539E+03  0.12431734057E+04  0.00000000000E+00 0.  1.
<mgrwt>
<rscale>  0 0.23288542E+04</rscale>
<asrwt>0</asrwt>
<pdfrwt beam="1">  1        1 0.16299013E+00 0.23288542E+04</pdfrwt>
<pdfrwt beam="2">  1       -1 0.19689587E+00 0.23288542E+04</pdfrwt>
<totfact> 0.19406955E+00</totfact>
</mgrwt>
</event>
<event>
 6    1  0.9562506E-007  0.2978634E+04  0.7818608E-02  0.8249858E-01
          2   -1    0    0  501    0  0.00000000000E+00  0.00000000000E+00  0.10200206811E+04  0.10200206811E+04  0.00000000000E+00 0. -1.
         -2   -1    0    0    0  501 -0.00000000000E+00 -0.00000000000E+00 -0.21745300071E+04  0.21745300071E+04  0.00000000000E+00 0.  1.
         23    2    1    2    0    0 -0.10365275579E+04 -0.40154067097E+02 -0.17218370449E+04  0.20122383488E+04  0.91534889791E+02 0.  0.
         11    1    3    3    0    0 -0.40424395125E+03  0.15728816831E+02 -0.60962132073E+03  0.73164111590E+03  0.00000000000E+00 0.  1.
        -11    1    3    3    0    0 -0.63228360665E+03 -0.55882883928E+02 -0.11122157241E+04  0.12805972329E+04  0.00000000000E+00 0. -1.
         22    1    1    2    0    0  0.10365275579E+04  0.40154067097E+02  0.56732771881E+03  0.11823123394E+04  0.00000000000E+00 0. -1.
<mgrwt>
<rscale>  0 0.29786343E+04</rscale>
<asrwt>0</asrwt>
<pdfrwt beam="1">  1        2 0.15692626E+00 0.29786343E+04</pdfrwt>
<pdfrwt beam="2">  1       -2 0.33454308E+00 0.29786343E+04</pdfrwt>
<totfact> 0.40780486E-01</totfact>
</mgrwt>
</event>
<event>
 6    1  0.9562506E-007  0.2394186E+04  0.7818608E-02  0.8441683E-01
         -1   -1    0    0    0  501 -0.00000000000E+00  0.00000000000E+00  0.18302182196E+04  0.18302182196E+04  0.00000000000E+00 0.  1.
          1   -1    0    0  501    0  0.00000000000E+00 -0.00000000000E+00 -0.78298418378E+03  0.78298418378E+03  0.00000000000E+00 0. -1.
         23    2    1    2    0    0 -0.77806390287E+03 -0.70325958963E+03 -0.10186104950E+03  0.10574463163E+04  0.88654109357E+02 0.  0.
         11    1    3    3    0    0 -0.47949594902E+03 -0.48745845002E+03 -0.79618872552E+02  0.68838308410E+03  0.00000000000E+00 0. -1.
        -11    1    3    3    0    0 -0.29856795385E+03 -0.21580113962E+03 -0.22242176950E+02  0.36906323220E+03  0.00000000000E+00 0.  1.
         22    1    1    2    0    0  0.77806390287E+03  0.70325958963E+03  0.11490950853E+04  0.15557560871E+04  0.00000000000E+00 0. -1.
<mgrwt>
<rscale>  0 0.23941862E+04</rscale>
<asrwt>0</asrwt>
<pdfrwt beam="1">  1        1 0.12045911E+00 0.23941862E+04</pdfrwt>
<pdfrwt beam="2">  1       -1 0.28157203E+00 0.23941862E+04</pdfrwt>
<totfact> 0.89206032E-01</totfact>
</mgrwt>
</event>
<event>
 6    1  0.9562506E-007  0.1889586E+04  0.7818608E-02  0.8660058E-01
          1   -1    0    0  501    0  0.00000000000E+00  0.00000000000E+00  0.85773875438E+03  0.85773875438E+03  0.00000000000E+00 0. -1.
         -1   -1    0    0    0  501 -0.00000000000E+00 -0.00000000000E+00 -0.10406822976E+04  0.10406822976E+04  0.00000000000E+00 0.  1.
         23    2    1    2    0    0  0.24771504736E+03 -0.86297657386E+03  0.19664693224E+03  0.92364916029E+03  0.91468265677E+02 0.  0.
         11    1    3    3    0    0  0.99098061687E+02 -0.25026847696E+03  0.92538524046E+02  0.28463681213E+03  0.00000000000E+00 0. -1.
        -11    1    3    3    0    0  0.14861698568E+03 -0.61270809690E+03  0.10410840819E+03  0.63901234816E+03  0.00000000000E+00 0.  1.
         22    1    1    2    0    0 -0.24771504736E+03  0.86297657386E+03 -0.37959047543E+03  0.97477189166E+03  0.00000000000E+00 0.  1.
<mgrwt>
<rscale>  0 0.18895857E+04</rscale>
<asrwt>0</asrwt>
<pdfrwt beam="1">  1        1 0.13195981E+00 0.18895857E+04</pdfrwt>
<pdfrwt beam="2">  1       -1 0.16010497E+00 0.18895857E+04</pdfrwt>
<totfact> 0.53895213E+00</totfact>
</mgrwt>
</event>
<event>
 6    1  0.9562506E-007  0.2660368E+04  0.7818608E-02  0.8347980E-01
         -2   -1    0    0    0  501 -0.00000000000E+00  0.00000000000E+00  0.76500813994E+03  0.76500813994E+03  0.00000000000E+00 0.  1.
          2   -1    0    0  501    0  0.00000000000E+00 -0.00000000000E+00 -0.23129020167E+04  0.23129020167E+04  0.00000000000E+00 0. -1.
         23    2    1    2    0    0  0.36463518059E+03  0.11739541231E+04 -0.19161198133E+03  0.12474381744E+04  0.90883163694E+02 0.  0.
         11    1    3    3    0    0  0.40209187658E+01  0.92919204297E+02 -0.12091652720E+02  0.93788881966E+02  0.00000000000E+00 0.  1.
        -11    1    3    3    0    0  0.36061426183E+03  0.10810349188E+04 -0.17952032861E+03  0.11536492924E+04  0.00000000000E+00 0. -1.
         22    1    1    2    0    0 -0.36463518059E+03 -0.11739541231E+04 -0.13562818954E+04  0.18304719823E+04  0.00000000000E+00 0. -1.
<mgrwt>
<rscale>  0 0.26603675E+04</rscale>
<asrwt>0</asrwt>
<pdfrwt beam="1">  1        2 0.35583107E+00 0.26603675E+04</pdfrwt>
<pdfrwt beam="2">  1       -2 0.11769356E+00 0.26603675E+04</pdfrwt>
<totfact> 0.21856296E+00</totfact>
</mgrwt>
</event>
<event>
 6    1  0.9562506E-007  0.1676006E+04  0.7818608E-02  0.8775168E-01
         -2   -1    0    0    0  501 -0.00000000000E+00  0.00000000000E+00  0.71121319840E+03  0.71121319840E+03  0.00000000000E+00 0.  1.
          2   -1    0    0  501    0  0.00000000000E+00 -0.00000000000E+00 -0.98739618092E+03  0.98739618092E+03  0.00000000000E+00 0. -1.
         23    2    1    2    0    0  0.67785179560E+03  0.28373604747E+03 -0.54136328465E+03  0.91738611157E+03  0.92378949400E+02 0.  0.
         13    1    3    3    0    0  0.31347847873E+03  0.10887936705E+03 -0.19352052741E+03  0.38415318263E+03  0.00000000000E+00 0.  1.
        -13    1    3    3    0    0  0.36437331687E+03  0.17485668042E+03 -0.34784275725E+03  0.53323292894E+03  0.00000000000E+00 0. -1.
         22    1    1    2    0    0 -0.67785179560E+03 -0.28373604747E+03  0.26518030214E+03  0.78122326775E+03  0.00000000000E+00 0.  1.
<mgrwt>
<rscale>  0 0.16760062E+04</rscale>
<asrwt>0</asrwt>
<pdfrwt beam="1">  1        2 0.15190710E+00 0.16760062E+04</pdfrwt>
<pdfrwt beam="2">  1       -2 0.10941742E+00 0.16760062E+04</pdfrwt>
<totfact> 0.16285638E+01</totfact>
</mgrwt>
</event>
<event>
 6    1  0.9562506E-007  0.4014645E+04  0.7818608E-02  0.8001599E-01
         -2   -1    0    0    0  501 -0.00000000000E+00  0.00000000000E+00  0.10324786819E+04  0.10324786819E+04  0.00000000000E+00 0.  1.
          2   -1    0    0  501    0  0.00000000000E+00 -0.00000000000E+00 -0.39025927518E+04  0.39025927518E+04  0.00000000000E+00 0. -1.
         23    2    1    2    0    0  0.18483251981E+04 -0.76054447739E+03 -0.16507851027E+04  0.25938117151E+04  0.89631567030E+02 0.  0.
         13    1    3    3    0    0  0.37982967393E+03 -0.19372230511E+03 -0.36773008178E+03  0.56304913262E+03  0.00000000000E+00 0.  1.
        -13    1    3    3    0    0  0.14684955242E+04 -0.56682217228E+03 -0.12830550209E+04  0.20307625824E+04  0.00000000000E+00 0. -1.
         22    1    1    2    0    0 -0.18483251981E+04  0.76054447739E+03 -0.12193289672E+04  0.23412597187E+04  0.00000000000E+00 0.  1.
<mgrwt>
<rscale>  0 0.40146451E+04</rscale>
<asrwt>0</asrwt>
<pdfrwt beam="1">  1        2 0.60039888E+00 0.40146451E+04</pdfrwt>
<pdfrwt beam="2">  1       -2 0.15884287E+00 0.40146451E+04</pdfrwt>
<totfact> 0.82557991E-02</totfact>
</mgrwt>
</event>
<event>
 6    1  0.9562506E-007  0.6047981E+04  0.7818608E-02  0.7684481E-01
         -2   -1    0    0    0  501 -0.00000000000E+00  0.00000000000E+00  0.32382976828E+04  0.32382976828E+04  0.00000000000E+00 0.  1.
          2   -1    0    0  501    0  0.00000000000E+00 -0.00000000000E+00 -0.28238659169E+04  0.28238659169E+04  0.00000000000E+00 0. -1.
         23    2    1    2    0    0 -0.22519370054E+03  0.15817454341E+04  0.27798893702E+04  0.32076898305E+04  0.94118631053E+02 0.  0.
         11    1    3    3    0    0 -0.28581601557E+02  0.49367966018E+03  0.83191590347E+03  0.96779160219E+03  0.00000000000E+00 0. -1.
        -11    1    3    3    0    0 -0.19661209899E+03  0.10880657739E+04  0.19479734668E+04  0.22398982283E+04  0.00000000000E+00 0.  1.
         22    1    1    2    0    0  0.22519370054E+03 -0.15817454341E+04 -0.23654576043E+04  0.28544737692E+04  0.00000000000E+00 0. -1.
<mgrwt>
<rscale>  0 0.60479810E+04</rscale>
<asrwt>0</asrwt>
<pdfrwt beam="1">  1        2 0.43444091E+00 0.60479810E+04</pdfrwt>
<pdfrwt beam="2">  1       -2 0.49819964E+00 0.60479810E+04</pdfrwt>
<totfact> 0.25673248E-03</totfact>
</mgrwt>
</event>
<event>
 6    1  0.9562506E-007  0.2784176E+04  0.7818608E-02  0.8308198E-01
          1   -1    0    0  501    0  0.00000000000E+00  0.00000000000E+00  0.10907089257E+04  0.10907089257E+04  0.00000000000E+00 0. -1.
         -1   -1    0    0    0  501 -0.00000000000E+00 -0.00000000000E+00 -0.17767430975E+04  0.17767430975E+04  0.00000000000E+00 0.  1.
         23    2    1    2    0    0  0.24714761214E+03 -0.53861626130E+03  0.95228167468E+03  0.11252499018E+04  0.90319070681E+02 0.  0.
         11    1    3    3    0    0  0.21324458738E+03 -0.44983033148E+03  0.73087014313E+03  0.88430297256E+03  0.00000000000E+00 0.  1.
        -11    1    3    3    0    0  0.33903024761E+02 -0.88785929812E+02  0.22141153156E+03  0.24094692928E+03  0.00000000000E+00 0. -1.
         22    1    1    2    0    0 -0.24714761214E+03  0.53861626130E+03 -0.16383158465E+04  0.17422021214E+04  0.00000000000E+00 0.  1.
<mgrwt>
<rscale>  0 0.27841764E+04</rscale>
<asrwt>0</asrwt>
<pdfrwt beam="1">  1        1 0.16780138E+00 0.27841764E+04</pdfrwt>
<pdfrwt beam="2">  1       -1 0.27334509E+00 0.27841764E+04</pdfrwt>
<totfact> 0.54899790E-01</totfact>
</mgrwt>
</event>
<event>
 6    1  0.9562506E-007  0.1379866E+04  0.7818608E-02  0.8968523E-01
         -1   -1    0    0    0  501 -0.00000000000E+00  0.00000000000E+00  0.64389183513E+03  0.64389183513E+03  0.00000000000E+00 0.  1.
          1   -1    0    0  501    0  0.00000000000E+00 -0.00000000000E+00 -0.73926644480E+03  0.73926644480E+03  0.00000000000E+00 0. -1.
         23    2    1    2    0    0 -0.21621204872E+02  0.35275487967E+03  0.54214187241E+03  0.65423390351E+03  0.95920326572E+02 0.  0.
         11    1    3    3    0    0 -0.17947005608E+01  0.91778615739E+02  0.74053725512E+02  0.11794273831E+03  0.00000000000E+00 0. -1.
        -11    1    3    3    0    0 -0.19826504312E+02  0.26097626393E+03  0.46808814689E+03  0.53629116520E+03  0.00000000000E+00 0.  1.
         22    1    1    2    0    0  0.21621204872E+02 -0.35275487967E+03 -0.63751648207E+03  0.72892437642E+03  0.00000000000E+00 0. -1.
<mgrwt>
<rscale>  0 0.13798661E+04</rscale>
<asrwt>0</asrwt>
<pdfrwt beam="1">  1        1 0.11373330E+00 0.13798661E+04</pdfrwt>
<pdfrwt beam="2">  1       -1 0.99060283E-01 0.13798661E+04</pdfrwt>
<totfact> 0.23835305E+01</totfact>
</mgrwt>
</event>
<event>
 6    1  0.9562506E-007  0.2723552E+04  0.7818608E-02  0.8327403E-01
          1   -1    0    0  501    0  0.00000000000E+00  0.00000000000E+00  0.32166053382E+04  0.32166053382E+04  0.00000000000E+00 0. -1.
         -1   -1    0    0    0  501 -0.00000000000E+00 -0.00000000000E+00 -0.57651913529E+03  0.57651913529E+03  0.00000000000E+00 0.  1.
         23    2    1    2    0    0  0.34056197526E+03  0.66640882310E+03  0.29034811579E+04  0.29997392702E+04  0.90275559136E+02 0.  0.
         13    1    3    3    0    0  0.15987069251E+03  0.36250681751E+03  0.13782608728E+04  0.14340756133E+04  0.00000000000E+00 0. -1.
        -13    1    3    3    0    0  0.18069128275E+03  0.30390200558E+03  0.15252202851E+04  0.15656636569E+04  0.00000000000E+00 0.  1.
         22    1    1    2    0    0 -0.34056197526E+03 -0.66640882310E+03 -0.26339495497E+03  0.79338520329E+03  0.00000000000E+00 0.  1.
<mgrwt>
<rscale>  0 0.27235525E+04</rscale>
<asrwt>0</asrwt>
<pdfrwt beam="1">  1        1 0.49486235E+00 0.27235525E+04</pdfrwt>
<pdfrwt beam="2">  1       -1 0.88695253E-01 0.27235525E+04</pdfrwt>
<totfact> 0.44881837E-01</totfact>
</mgrwt>
</event>
<event>
 6    1  0.9562506E-007  0.3146999E+04  0.7818608E-02  0.8202957E-01
         -1   -1    0    0    0  501 -0.00000000000E+00  0.00000000000E+00  0.29791512050E+04  0.29791512050E+04  0.00000000000E+00 0.  1.
          1   -1    0    0  501    0  0.00000000000E+00 -0.00000000000E+00 -0.83107576584E+03  0.83107576584E+03  0.00000000000E+00 0. -1.
         23    2    1    2    0    0 -0.23786020700E+03 -0.85441161386E+03  0.26466951263E+04  0.27927702021E+04  0.89295161565E+02 0.  0.
         13    1    3    3    0    0 -0.10492552986E+03 -0.51156331858E+03  0.14737719256E+04  0.15635568696E+04  0.00000000000E+00 0.  1.
        -13    1    3    3    0    0 -0.13293467715E+03 -0.34284829528E+03  0.11729232007E+04  0.12292133325E+04  0.00000000000E+00 0. -1.
         22    1    1    2    0    0  0.23786020700E+03  0.85441161386E+03 -0.49861968713E+03  0.10174567688E+04  0.00000000000E+00 0. -1.
<mgrwt>
<rscale>  0 0.31469988E+04</rscale>
<asrwt>0</asrwt>
<pdfrwt beam="1">  1        1 0.12785781E+00 0.31469988E+04</pdfrwt>
<pdfrwt beam="2">  1       -1 0.45833095E+00 0.31469988E+04</pdfrwt>
<totfact> 0.49469755E-02</totfact>
</mgrwt>
</event>
<event>
 6    1  0.9562506E-007  0.2624175E+04  0.7818608E-02  0.8360036E-01
          1   -1    0    0  501    0  0.00000000000E+00  0.00000000000E+00  0.36194521152E+04  0.36194521152E+04  0.00000000000E+00 0. -1.
         -1   -1    0    0    0  501 -0.00000000000E+00 -0.00000000000E+00 -0.47564465353E+03  0.47564465353E+03  0.00000000000E+00 0.  1.
         23    2    1    2    0    0  0.75045844157E+02 -0.12333955536E+04  0.89284061991E+03  0.15272672975E+04  0.92111644923E+02 0.  0.
         11    1    3    3    0    0  0.55882213358E+01 -0.42738697162E+03  0.26143890918E+03  0.50104007321E+03  0.00000000000E+00 0.  1.
        -11    1    3    3    0    0  0.69457622821E+02 -0.80600858201E+03  0.63140171073E+03  0.10262272243E+04  0.00000000000E+00 0. -1.
         22    1    1    2    0    0 -0.75045844157E+02  0.12333955536E+04  0.22509668418E+04  0.25678294712E+04  0.00000000000E+00 0. -1.
<mgrwt>
<rscale>  0 0.26241746E+04</rscale>
<asrwt>0</asrwt>
<pdfrwt beam="1">  1        1 0.55683877E+00 0.26241746E+04</pdfrwt>
<pdfrwt beam="2">  1       -1 0.73176103E-01 0.26241746E+04</pdfrwt>
<totfact> 0.33210993E-01</totfact>
</mgrwt>
</event>
<event>
 6    1  0.9562506E-007  0.1964635E+04  0.7818608E-02  0.8623336E-01
          2   -1    0    0  501    0  0.00000000000E+00  0.00000000000E+00  0.25894264623E+04  0.25894264623E+04  0.00000000000E+00 0. -1.
         -2   -1    0    0    0  501 -0.00000000000E+00 -0.00000000000E+00 -0.37264915419E+03  0.37264915419E+03  0.00000000000E+00 0.  1.
         23    2    1    2    0    0 -0.14927204835E+02  0.37949474713E+03  0.24731655367E+04  0.25038464072E+04  0.91978119170E+02 0.  0.
         11    1    3    3    0    0 -0.46459228558E+02  0.12475910635E+03  0.92970664176E+03  0.93918993514E+03  0.00000000000E+00 0. -1.
        -11    1    3    3    0    0  0.31532023724E+02  0.25473564078E+03  0.15434588950E+04  0.15646564721E+04  0.00000000000E+00 0.  1.
         22    1    1    2    0    0  0.14927204835E+02 -0.37949474713E+03 -0.25638822855E+03  0.45822920933E+03  0.00000000000E+00 0.  1.
<mgrwt>
<rscale>  0 0.19646349E+04</rscale>
<asrwt>0</asrwt>
<pdfrwt beam="1">  1        2 0.39837329E+00 0.19646349E+04</pdfrwt>
<pdfrwt beam="2">  1       -2 0.57330641E-01 0.19646349E+04</pdfrwt>
<totfact> 0.82066195E+00</totfact>
</mgrwt>
</event>
<event>
 6    1  0.9562506E-007  0.1382465E+04  0.7818608E-02  0.8966610E-01
         -1   -1    0    0    0  501 -0.00000000000E+00  0.00000000000E+00  0.73107226532E+03  0.73107226532E+03  0.00000000000E+00 0.  1.
          1   -1    0    0  501    0  0.00000000000E+00 -0.00000000000E+00 -0.65356406856E+03  0.65356406856E+03  0.00000000000E+00 0. -1.
         23    2    1    2    0    0  0.33451895197E+03  0.21345755407E+03  0.60209218482E+03  0.72687086112E+03  0.91428623023E+02 0.  0.
         11    1    3    3    0    0  0.22413958599E+02  0.17118553998E+02  0.10018598483E+03  0.10408007488E+03  0.00000000000E+00 0.  1.
        -11    1    3    3    0    0  0.31210499337E+03  0.19633900007E+03  0.50190620000E+03  0.62279078624E+03  0.00000000000E+00 0. -1.
         22    1    1    2    0    0 -0.33451895197E+03 -0.21345755407E+03 -0.52458398807E+03  0.65776547276E+03  0.00000000000E+00 0. -1.
<mgrwt>
<rscale>  0 0.13824653E+04</rscale>
<asrwt>0</asrwt>
<pdfrwt beam="1">  1        1 0.10054832E+00 0.13824653E+04</pdfrwt>
<pdfrwt beam="2">  1       -1 0.11247266E+00 0.13824653E+04</pdfrwt>
<totfact> 0.21361828E+01</totfact>
</mgrwt>
</event>
<event>
 6    1  0.9562506E-007  0.1541821E+04  0.7818608E-02  0.8857109E-01
          1   -1    0    0  501    0  0.00000000000E+00  0.00000000000E+00  0.49839971882E+03  0.49839971882E+03  0.00000000000E+00 0. -1.
         -1   -1    0    0    0  501 -0.00000000000E+00 -0.00000000000E+00 -0.11924217989E+04  0.11924217989E+04  0.00000000000E+00 0.  1.
         23    2    1    2    0    0 -0.36320111785E+03  0.21280363459E+03  0.35576663722E+03  0.55977917109E+03  0.97889638514E+02 0.  0.
         11    1    3    3    0    0 -0.21399676843E+03  0.16770814459E+03  0.18663919147E+03  0.32977996672E+03  0.00000000000E+00 0. -1.
        -11    1    3    3    0    0 -0.14920434942E+03  0.45095490004E+02  0.16912744575E+03  0.22999920437E+03  0.00000000000E+00 0.  1.
         22    1    1    2    0    0  0.36320111785E+03 -0.21280363459E+03 -0.10497887173E+04  0.11310423466E+04  0.00000000000E+00 0.  1.
<mgrwt>
<rscale>  0 0.15418206E+04</rscale>
<asrwt>0</asrwt>
<pdfrwt beam="1">  1        1 0.76676881E-01 0.15418206E+04</pdfrwt>
<pdfrwt beam="2">  1       -1 0.18344951E+00 0.15418206E+04</pdfrwt>
<totfact> 0.84370083E+00</totfact>
</mgrwt>
</event>
<event>
 6    1  0.9562506E-007  0.2314897E+04  0.7818608E-02  0.8472070E-01
          2   -1    0    0  501    0  0.00000000000E+00  0.00000000000E+00  0.10844594220E+04  0.10844594220E+04  0.00000000000E+00 0. -1.
         -2   -1    0    0    0  501 -0.00000000000E+00 -0.00000000000E+00 -0.12353502116E+04  0.12353502116E+04  0.00000000000E+00 0.  1.
         23    2    1    2    0    0  0.78839164945E+02  0.86721814562E+03 -0.83732457771E+03  0.12109930249E+04  0.84313296785E+02 0.  0.
         11    1    3    3    0    0  0.42699214881E+02  0.25505174151E+03 -0.20349229292E+03  0.32906492836E+03  0.00000000000E+00 0.  1.
        -11    1    3    3    0    0  0.36139950064E+02  0.61216640412E+03 -0.63383228478E+03  0.88192809659E+03  0.00000000000E+00 0. -1.
         22    1    1    2    0    0 -0.78839164945E+02 -0.86721814562E+03  0.68643378814E+03  0.11088166086E+04  0.00000000000E+00 0. -1.
<mgrwt>
<rscale>  0 0.23148971E+04</rscale>
<asrwt>0</asrwt>
<pdfrwt beam="1">  1        2 0.16683991E+00 0.23148971E+04</pdfrwt>
<pdfrwt beam="2">  1       -2 0.19005388E+00 0.23148971E+04</pdfrwt>
<totfact> 0.31233713E+00</totfact>
</mgrwt>
</event>
<event>
 6    1  0.9562506E-007  0.4694441E+04  0.7818608E-02  0.7877453E-01
         -1   -1    0    0    0  501 -0.00000000000E+00  0.00000000000E+00  0.21137138370E+04  0.21137138370E+04  0.00000000000E+00 0.  1.
          1   -1    0    0  501    0  0.00000000000E+00 -0.00000000000E+00 -0.26065227915E+04  0.26065227915E+04  0.00000000000E+00 0. -1.
         23    2    1    2    0    0 -0.10949243864E+04 -0.10052194283E+04  0.15789916943E+04  0.21703967436E+04  0.89898514826E+02 0.  0.
         13    1    3    3    0    0 -0.67423264610E+03 -0.60289426289E+03  0.10217015469E+04  0.13645311298E+04  0.00000000000E+00 0. -1.
        -13    1    3    3    0    0 -0.42069174034E+03 -0.40232516536E+03  0.55729014731E+03  0.80586561371E+03  0.00000000000E+00 0.  1.
         22    1    1    2    0    0  0.10949243864E+04  0.10052194283E+04 -0.20718006487E+04  0.25498398850E+04  0.00000000000E+00 0. -1.
<mgrwt>
<rscale>  0 0.46944407E+04</rscale>
<asrwt>0</asrwt>
<pdfrwt beam="1">  1        1 0.40100351E+00 0.46944407E+04</pdfrwt>
<pdfrwt beam="2">  1       -1 0.32518674E+00 0.46944407E+04</pdfrwt>
<totfact> 0.19119330E-02</totfact>
</mgrwt>
</event>
<event>
 6    1  0.9562506E-007  0.3079724E+04  0.7818608E-02  0.8221325E-01
          2   -1    0    0  501    0  0.00000000000E+00  0.00000000000E+00  0.24706186160E+04  0.24706186160E+04  0.00000000000E+00 0. -1.
         -2   -1    0    0    0  501 -0.00000000000E+00 -0.00000000000E+00 -0.95974957258E+03  0.95974957258E+03  0.00000000000E+00 0.  1.
         23    2    1    2    0    0 -0.93986449585E+03  0.12084449580E+04  0.92422257444E+03  0.17909052988E+04  0.97313591731E+02 0.  0.
         13    1    3    3    0    0 -0.36202680232E+03  0.48334379941E+03  0.41894007853E+03  0.73497987961E+03  0.00000000000E+00 0.  1.
        -13    1    3    3    0    0 -0.57783769353E+03  0.72510115864E+03  0.50528249590E+03  0.10559254192E+04  0.00000000000E+00 0. -1.
         22    1    1    2    0    0  0.93986449585E+03 -0.12084449580E+04  0.58664646894E+03  0.16394628897E+04  0.00000000000E+00 0. -1.
<mgrwt>
<rscale>  0 0.30797241E+04</rscale>
<asrwt>0</asrwt>
<pdfrwt beam="1">  1        2 0.38009517E+00 0.30797241E+04</pdfrwt>
<pdfrwt beam="2">  1       -2 0.14765378E+00 0.30797241E+04</pdfrwt>
<totfact> 0.96158639E-01</totfact>
</mgrwt>
</event>
<event>
 6    1  0.9562506E-007  0.1109278E+04  0.7818608E-02  0.9196196E-01
         -1   -1    0    0    0  501 -0.00000000000E+00  0.00000000000E+00  0.13852025392E+03  0.13852025392E+03  0.00000000000E+00 0.  1.
          1   -1    0    0  501    0  0.00000000000E+00 -0.00000000000E+00 -0.22207883139E+04  0.22207883139E+04  0.00000000000E+00 0. -1.
         23    2    1    2    0    0  0.39465859485E+03 -0.38443754102E+03 -0.10262634495E+04  0.11682194164E+04  0.89287779050E+02 0.  0.
         11    1    3    3    0    0  0.15544653046E+03 -0.10801949483E+03 -0.41215752759E+03  0.45354786147E+03  0.00000000000E+00 0. -1.
        -11    1    3    3    0    0  0.23921206439E+03 -0.27641804618E+03 -0.61410592194E+03  0.71467155489E+03  0.00000000000E+00 0.  1.
         22    1    1    2    0    0 -0.39465859485E+03  0.38443754102E+03 -0.10560046105E+04  0.11910891515E+04  0.00000000000E+00 0.  1.
<mgrwt>
<rscale>  0 0.11092775E+04</rscale>
<asrwt>0</asrwt>
<pdfrwt beam="1">  1        1 0.34165972E+00 0.11092775E+04</pdfrwt>
<pdfrwt beam="2">  1       -1 0.21310809E-01 0.11092775E+04</pdfrwt>
<totfact> 0.38796394E+01</totfact>
</mgrwt>
</event>
<event>
 6    1  0.9562506E-007  0.4806333E+04  0.7818608E-02  0.7859097E-01
          2   -1    0    0  501    0  0.00000000000E+00  0.00000000000E+00  0.38390690168E+04  0.38390690168E+04  0.00000000000E+00 0. -1.
         -2   -1    0    0    0  501 -0.00000000000E+00 -0.00000000000E+00 -0.15043252437E+04  0.15043252437E+04  0.00000000000E+00 0.  1.
         23    2    1    2    0    0  0.82345593181E+03  0.22500799597E+04  0.13585158764E+04  0.27561253523E+04  0.98600580846E+02 0.  0.
         13    1    3    3    0    0  0.39730751228E+03  0.12209270598E+04  0.74582455027E+03  0.14848469296E+04  0.00000000000E+00 0.  1.
        -13    1    3    3    0    0  0.42614841953E+03  0.10291528999E+04  0.61269132612E+03  0.12712784226E+04  0.00000000000E+00 0. -1.
         22    1    1    2    0    0 -0.82345593181E+03 -0.22500799597E+04  0.97622789672E+03  0.25872689081E+04  0.00000000000E+00 0.  1.
<mgrwt>
<rscale>  0 0.48063327E+04</rscale>
<asrwt>0</asrwt>
<pdfrwt beam="1">  1        2 0.59062600E+00 0.48063327E+04</pdfrwt>
<pdfrwt beam="2">  1       -2 0.23143465E+00 0.48063327E+04</pdfrwt>
<totfact> 0.28284172E-02</totfact>
</mgrwt>
</event>
<event>
 6    1  0.9562506E-007  0.2564420E+04  0.7818608E-02  0.8380388E-01
          2   -1    0    0  501    0  0.00000000000E+00  0.00000000000E+00  0.25748492720E+04  0.25748492720E+04  0.00000000000E+00 0. -1.
         -2   -1    0    0    0  501 -0.00000000000E+00 -0.00000000000E+00 -0.63850828481E+03  0.63850828481E+03  0.00000000000E+00 0.  1.
         23    2    1    2    0    0 -0.75388307769E+03 -0.30295079044E+03 -0.27085711496E+03  0.86137066519E+03  0.92070461456E+02 0.  0.
         13    1    3    3    0    0 -0.39787028464E+03 -0.20503304143E+03 -0.12883586188E+03  0.46576602579E+03  0.00000000000E+00 0. -1.
        -13    1    3    3    0    0 -0.35601279305E+03 -0.97917749009E+02 -0.14202125308E+03  0.39560463940E+03  0.00000000000E+00 0.  1.
         22    1    1    2    0    0  0.75388307769E+03  0.30295079044E+03  0.22071981022E+04  0.23519868917E+04  0.00000000000E+00 0. -1.
<mgrwt>
<rscale>  0 0.25644201E+04</rscale>
<asrwt>0</asrwt>
<pdfrwt beam="1">  1        2 0.39613065E+00 0.25644201E+04</pdfrwt>
<pdfrwt beam="2">  1       -2 0.98232045E-01 0.25644201E+04</pdfrwt>
<totfact> 0.24060283E+00</totfact>
</mgrwt>
</event>
<event>
 6    1  0.9562506E-007  0.3485917E+04  0.7818608E-02  0.8117135E-01
          2   -1    0    0  501    0  0.00000000000E+00  0.00000000000E+00  0.19649455279E+04  0.19649455279E+04  0.00000000000E+00 0. -1.
         -2   -1    0    0    0  501 -0.00000000000E+00 -0.00000000000E+00 -0.15460505336E+04  0.15460505336E+04  0.00000000000E+00 0.  1.
         23    2    1    2    0    0 -0.20315233051E+03  0.14789797231E+04 -0.69391712648E+03  0.16490071499E+04  0.95140480846E+02 0.  0.
         11    1    3    3    0    0 -0.14961908319E+03  0.74349809789E+03 -0.35951840285E+03  0.83930255189E+03  0.00000000000E+00 0. -1.
        -11    1    3    3    0    0 -0.53533247324E+02  0.73548162523E+03 -0.33439872363E+03  0.80970459797E+03  0.00000000000E+00 0.  1.
         22    1    1    2    0    0  0.20315233051E+03 -0.14789797231E+04  0.11128121208E+04  0.18619889116E+04  0.00000000000E+00 0. -1.
<mgrwt>
<rscale>  0 0.34859174E+04</rscale>
<asrwt>0</asrwt>
<pdfrwt beam="1">  1        2 0.30229931E+00 0.34859174E+04</pdfrwt>
<pdfrwt beam="2">  1       -2 0.23785393E+00 0.34859174E+04</pdfrwt>
<totfact> 0.43912546E-01</totfact>
</mgrwt>
</event>
<event>
 6    1  0.9562506E-007  0.2509940E+04  0.7818608E-02  0.8399453E-01
          1   -1    0    0  501    0  0.00000000000E+00  0.00000000000E+00  0.20704612993E+04  0.20704612993E+04  0.00000000000E+00 0. -1.
         -1   -1    0    0    0  501 -0.00000000000E+00 -0.00000000000E+00 -0.76067577826E+03  0.76067577826E+03  0.00000000000E+00 0.  1.
         23    2    1    2    0    0  0.10714985621E+04  0.51203073419E+03  0.11068486637E+04  0.16263682161E+04  0.98361418774E+02 0.  0.
         11    1    3    3    0    0  0.60762488985E+03  0.28296123537E+03  0.69015311936E+03  0.96207400736E+03  0.00000000000E+00 0.  1.
        -11    1    3    3    0    0  0.46387367229E+03  0.22906949883E+03  0.41669554433E+03  0.66429420876E+03  0.00000000000E+00 0. -1.
         22    1    1    2    0    0 -0.10714985621E+04 -0.51203073419E+03  0.20293685735E+03  0.12047688614E+04  0.00000000000E+00 0. -1.
<mgrwt>
<rscale>  0 0.25099400E+04</rscale>
<asrwt>0</asrwt>
<pdfrwt beam="1">  1        1 0.31853250E+00 0.25099400E+04</pdfrwt>
<pdfrwt beam="2">  1       -1 0.11702704E+00 0.25099400E+04</pdfrwt>
<totfact> 0.15588212E+00</totfact>
</mgrwt>
</event>
<event>
 6    1  0.9562506E-007  0.1995125E+04  0.7818608E-02  0.8608903E-01
          4   -1    0    0  501    0  0.00000000000E+00  0.00000000000E+00  0.15591337895E+04  0.15591337895E+04  0.00000000000E+00 0. -1.
         -4   -1    0    0    0  501 -0.00000000000E+00 -0.00000000000E+00 -0.63825904010E+03  0.63825904010E+03  0.00000000000E+00 0.  1.
         23    2    1    2    0    0 -0.39300470942E+02 -0.90772127909E+03  0.12963173767E+02  0.91294513635E+03  0.88308156943E+02 0.  0.
         11    1    3    3    0    0 -0.28880033030E+02 -0.17415097148E+03 -0.25147782694E+02  0.17831160408E+03  0.00000000000E+00 0.  1.
        -11    1    3    3    0    0 -0.10420437912E+02 -0.73357030762E+03  0.38110956460E+02  0.73463353228E+03  0.00000000000E+00 0. -1.
         22    1    1    2    0    0  0.39300470942E+02  0.90772127909E+03  0.90791157565E+03  0.12844476933E+04  0.00000000000E+00 0.  1.
<mgrwt>
<rscale>  0 0.19951253E+04</rscale>
<asrwt>0</asrwt>
<pdfrwt beam="1">  1        4 0.23986673E+00 0.19951253E+04</pdfrwt>
<pdfrwt beam="2">  1       -4 0.98193700E-01 0.19951253E+04</pdfrwt>
<totfact> 0.11713534E-01</totfact>
</mgrwt>
</event>
<event>
 6    1  0.9562506E-007  0.1963284E+04  0.7818608E-02  0.8623982E-01
          1   -1    0    0  501    0  0.00000000000E+00  0.00000000000E+00  0.84367139491E+03  0.84367139491E+03  0.00000000000E+00 0. -1.
         -1   -1    0    0    0  501 -0.00000000000E+00 -0.00000000000E+00 -0.11421756382E+04  0.11421756382E+04  0.00000000000E+00 0.  1.
         23    2    1    2    0    0 -0.22386555373E+03 -0.74377928133E+03  0.45402180614E+03  0.90435784658E+03  0.91672835320E+02 0.  0.
         13    1    3    3    0    0 -0.26786010106E+02 -0.21884824795E+03  0.10841305903E+03  0.24569378774E+03  0.00000000000E+00 0. -1.
        -13    1    3    3    0    0 -0.19707954363E+03 -0.52493103338E+03  0.34560874711E+03  0.65866405884E+03  0.00000000000E+00 0.  1.
         22    1    1    2    0    0  0.22386555373E+03  0.74377928133E+03 -0.75252604940E+03  0.10814891865E+04  0.00000000000E+00 0.  1.
<mgrwt>
<rscale>  0 0.19632839E+04</rscale>
<asrwt>0</asrwt>
<pdfrwt beam="1">  1        1 0.12979560E+00 0.19632839E+04</pdfrwt>
<pdfrwt beam="2">  1       -1 0.17571933E+00 0.19632839E+04</pdfrwt>
<totfact> 0.42166527E+00</totfact>
</mgrwt>
</event>
<event>
 6    1  0.9562506E-007  0.3386661E+04  0.7818608E-02  0.8141188E-01
         -1   -1    0    0    0  501 -0.00000000000E+00  0.00000000000E+00  0.67811809500E+03  0.67811809500E+03  0.00000000000E+00 0.  1.
          1   -1    0    0  501    0  0.00000000000E+00 -0.00000000000E+00 -0.42284212113E+04  0.42284212113E+04  0.00000000000E+00 0. -1.
         23    2    1    2    0    0  0.18512902792E+03  0.15615088503E+03 -0.42026967912E+04  0.42106417829E+04  0.90487839276E+02 0.  0.
         13    1    3    3    0    0  0.17986489786E+03  0.11845577310E+03 -0.32107050391E+04  0.32179201357E+04  0.00000000000E+00 0.  1.
        -13    1    3    3    0    0  0.52641300564E+01  0.37695111930E+02 -0.99199175211E+03  0.99272164719E+03  0.00000000000E+00 0. -1.
         22    1    1    2    0    0 -0.18512902792E+03 -0.15615088503E+03  0.65239367497E+03  0.69589752335E+03  0.00000000000E+00 0.  1.
<mgrwt>
<rscale>  0 0.33866614E+04</rscale>
<asrwt>0</asrwt>
<pdfrwt beam="1">  1        1 0.65052633E+00 0.33866614E+04</pdfrwt>
<pdfrwt beam="2">  1       -1 0.10432586E+00 0.33866614E+04</pdfrwt>
<totfact> 0.42235949E-02</totfact>
</mgrwt>
</event>
<event>
 6    1  0.9562506E-007  0.2169546E+04  0.7818608E-02  0.8531212E-01
          1   -1    0    0  501    0  0.00000000000E+00  0.00000000000E+00  0.12924744902E+04  0.12924744902E+04  0.00000000000E+00 0. -1.
         -1   -1    0    0    0  501 -0.00000000000E+00 -0.00000000000E+00 -0.91044907631E+03  0.91044907631E+03  0.00000000000E+00 0.  1.
         23    2    1    2    0    0  0.10176953550E+04  0.34322424609E+03  0.33364947429E+03  0.11278203388E+04  0.84557827819E+02 0.  0.
         13    1    3    3    0    0  0.29732751196E+03  0.98663270404E+02  0.13797608031E+03  0.34230905486E+03  0.00000000000E+00 0.  1.
        -13    1    3    3    0    0  0.72036784302E+03  0.24456097568E+03  0.19567339398E+03  0.78551128394E+03  0.00000000000E+00 0. -1.
         22    1    1    2    0    0 -0.10176953550E+04 -0.34322424609E+03  0.48375939579E+02  0.10751032277E+04  0.00000000000E+00 0.  1.
<mgrwt>
<rscale>  0 0.21695458E+04</rscale>
<asrwt>0</asrwt>
<pdfrwt beam="1">  1        1 0.19884223E+00 0.21695458E+04</pdfrwt>
<pdfrwt beam="2">  1       -1 0.14006909E+00 0.21695458E+04</pdfrwt>
<totfact> 0.35050500E+00</totfact>
</mgrwt>
</event>
<event>
 6    1  0.9562506E-007  0.2176812E+04  0.7818608E-02  0.8528142E-01
          2   -1    0    0  501    0  0.00000000000E+00  0.00000000000E+00  0.36385895655E+04  0.36385895655E+04  0.00000000000E+00 0. -1.
         -2   -1    0    0    0  501 -0.00000000000E+00 -0.00000000000E+00 -0.32557321130E+03  0.32557321130E+03  0.00000000000E+00 0.  1.
         23    2    1    2    0    0  0.73230275641E+03 -0.76647089333E+03  0.20905407057E+04  0.23460800631E+04  0.99931290017E+02 0.  0.
         11    1    3    3    0    0  0.49490959636E+03 -0.44906383746E+03  0.12944862139E+04  0.14568076045E+04  0.00000000000E+00 0. -1.
        -11    1    3    3    0    0  0.23739316005E+03 -0.31740705587E+03  0.79605449185E+03  0.88927245856E+03  0.00000000000E+00 0.  1.
         22    1    1    2    0    0 -0.73230275641E+03  0.76647089333E+03  0.12224756485E+04  0.16180827138E+04  0.00000000000E+00 0.  1.
<mgrwt>
<rscale>  0 0.21768117E+04</rscale>
<asrwt>0</asrwt>
<pdfrwt beam="1">  1        2 0.55978298E+00 0.21768117E+04</pdfrwt>
<pdfrwt beam="2">  1       -2 0.50088189E-01 0.21768117E+04</pdfrwt>
<totfact> 0.22460955E+00</totfact>
</mgrwt>
</event>
<event>
 6    1  0.9562506E-007  0.1220193E+04  0.7818608E-02  0.9095363E-01
         -1   -1    0    0    0  501 -0.00000000000E+00  0.00000000000E+00  0.33720792524E+03  0.33720792524E+03  0.00000000000E+00 0.  1.
          1   -1    0    0  501    0  0.00000000000E+00 -0.00000000000E+00 -0.11038224138E+04  0.11038224138E+04  0.00000000000E+00 0. -1.
         23    2    1    2    0    0  0.47126314556E+03 -0.11865058727E+03  0.43410187889E+02  0.49641036748E+03  0.91498056259E+02 0.  0.
         13    1    3    3    0    0  0.41164018747E+02 -0.15829011290E+02  0.31200091971E+02  0.54022956017E+02  0.00000000000E+00 0. -1.
        -13    1    3    3    0    0  0.43009912682E+03 -0.10282157598E+03  0.12210095919E+02  0.44238741146E+03  0.00000000000E+00 0.  1.
         22    1    1    2    0    0 -0.47126314556E+03  0.11865058727E+03 -0.81002467650E+03  0.94461997161E+03  0.00000000000E+00 0. -1.
<mgrwt>
<rscale>  0 0.12201929E+04</rscale>
<asrwt>0</asrwt>
<pdfrwt beam="1">  1        1 0.16981883E+00 0.12201929E+04</pdfrwt>
<pdfrwt beam="2">  1       -1 0.51878143E-01 0.12201929E+04</pdfrwt>
<totfact> 0.46547869E+01</totfact>
</mgrwt>
</event>
<event>
 6    1  0.9562506E-007  0.2999895E+04  0.7818608E-02  0.8243761E-01
         -1   -1    0    0    0  501 -0.00000000000E+00  0.00000000000E+00  0.14402417965E+04  0.14402417965E+04  0.00000000000E+00 0.  1.
          1   -1    0    0  501    0  0.00000000000E+00 -0.00000000000E+00 -0.15621285908E+04  0.15621285908E+04  0.00000000000E+00 0. -1.
         23    2    1    2    0    0  0.31380948005E+03  0.59331574560E+03 -0.14019751915E+04  0.15569893759E+04  0.90451729097E+02 0.  0.
         13    1    3    3    0    0  0.14160035875E+03  0.21283881323E+03 -0.45240142178E+03  0.51963262835E+03  0.00000000000E+00 0.  1.
        -13    1    3    3    0    0  0.17220912131E+03  0.38047693237E+03 -0.94957376971E+03  0.10373567475E+04  0.00000000000E+00 0. -1.
         22    1    1    2    0    0 -0.31380948005E+03 -0.59331574560E+03  0.12800883971E+04  0.14453810115E+04  0.00000000000E+00 0.  1.
<mgrwt>
<rscale>  0 0.29998953E+04</rscale>
<asrwt>0</asrwt>
<pdfrwt beam="1">  1        1 0.24032748E+00 0.29998953E+04</pdfrwt>
<pdfrwt beam="2">  1       -1 0.22157566E+00 0.29998953E+04</pdfrwt>
<totfact> 0.54167019E-01</totfact>
</mgrwt>
</event>
<event>
 6    1  0.9562506E-007  0.2691397E+04  0.7818608E-02  0.8337802E-01
         -2   -1    0    0    0  501 -0.00000000000E+00  0.00000000000E+00  0.11889003911E+04  0.11889003911E+04  0.00000000000E+00 0.  1.
          2   -1    0    0  501    0  0.00000000000E+00 -0.00000000000E+00 -0.15231758732E+04  0.15231758732E+04  0.00000000000E+00 0. -1.
         23    2    1    2    0    0  0.12783352138E+04 -0.29908979540E+03 -0.45752235733E+03  0.13934461354E+04  0.93647210924E+02 0.  0.
         11    1    3    3    0    0  0.23521025225E+03 -0.84617008102E+02 -0.63124432804E+02  0.25781503998E+03  0.00000000000E+00 0.  1.
        -11    1    3    3    0    0  0.10431249616E+04 -0.21447278730E+03 -0.39439792453E+03  0.11356310954E+04  0.00000000000E+00 0. -1.
         22    1    1    2    0    0 -0.12783352138E+04  0.29908979540E+03  0.12324687527E+03  0.13186301289E+04  0.00000000000E+00 0.  1.
<mgrwt>
<rscale>  0 0.26913970E+04</rscale>
<asrwt>0</asrwt>
<pdfrwt beam="1">  1        2 0.23433475E+00 0.26913970E+04</pdfrwt>
<pdfrwt beam="2">  1       -2 0.18290775E+00 0.26913970E+04</pdfrwt>
<totfact> 0.18726986E+00</totfact>
</mgrwt>
</event>
<event>
 6    1  0.9562506E-007  0.3599270E+04  0.7818608E-02  0.8090659E-01
          2   -1    0    0  501    0  0.00000000000E+00  0.00000000000E+00  0.18938258476E+04  0.18938258476E+04  0.00000000000E+00 0. -1.
         -2   -1    0    0    0  501 -0.00000000000E+00 -0.00000000000E+00 -0.17101290721E+04  0.17101290721E+04  0.00000000000E+00 0.  1.
         23    2    1    2    0    0  0.95129670354E+03 -0.13672021599E+04  0.77126001271E+03  0.18377619173E+04  0.91212351681E+02 0.  0.
         13    1    3    3    0    0  0.59121352898E+03 -0.92488557405E+03  0.51326393758E+03  0.12117700407E+04  0.00000000000E+00 0. -1.
        -13    1    3    3    0    0  0.36008317456E+03 -0.44231658585E+03  0.25799607512E+03  0.62599187654E+03  0.00000000000E+00 0.  1.
         22    1    1    2    0    0 -0.95129670354E+03  0.13672021599E+04 -0.58756323727E+03  0.17661930025E+04  0.00000000000E+00 0.  1.
<mgrwt>
<rscale>  0 0.35992703E+04</rscale>
<asrwt>0</asrwt>
<pdfrwt beam="1">  1        2 0.29135782E+00 0.35992703E+04</pdfrwt>
<pdfrwt beam="2">  1       -2 0.26309678E+00 0.35992703E+04</pdfrwt>
<totfact> 0.33321573E-01</totfact>
</mgrwt>
</event>
<event>
 6    1  0.9562506E-007  0.1511857E+04  0.7818608E-02  0.8876606E-01
          1   -1    0    0  501    0  0.00000000000E+00  0.00000000000E+00  0.24647396027E+04  0.24647396027E+04  0.00000000000E+00 0. -1.
         -1   -1    0    0    0  501 -0.00000000000E+00 -0.00000000000E+00 -0.23184097676E+03  0.23184097676E+03  0.00000000000E+00 0.  1.
         23    2    1    2    0    0 -0.42746603151E+03  0.23983606403E+03  0.10097013057E+03  0.50903225884E+03  0.93114593780E+02 0.  0.
         13    1    3    3    0    0 -0.31909358226E+03  0.13587579840E+03  0.49777961433E+02  0.35037236231E+03  0.00000000000E+00 0.  1.
        -13    1    3    3    0    0 -0.10837244925E+03  0.10396026563E+03  0.51192169139E+02  0.15865989653E+03  0.00000000000E+00 0. -1.
         22    1    1    2    0    0  0.42746603151E+03 -0.23983606403E+03  0.21319284954E+04  0.21875483206E+04  0.00000000000E+00 0. -1.
<mgrwt>
<rscale>  0 0.15118567E+04</rscale>
<asrwt>0</asrwt>
<pdfrwt beam="1">  1        1 0.37919069E+00 0.15118567E+04</pdfrwt>
<pdfrwt beam="2">  1       -1 0.35667844E-01 0.15118567E+04</pdfrwt>
<totfact> 0.10413469E+01</totfact>
</mgrwt>
</event>
<event>
 6    1  0.9562506E-007  0.2904067E+04  0.7818608E-02  0.8271669E-01
         -1   -1    0    0    0  501 -0.00000000000E+00  0.00000000000E+00  0.15742915911E+04  0.15742915911E+04  0.00000000000E+00 0.  1.
          1   -1    0    0  501    0  0.00000000000E+00 -0.00000000000E+00 -0.13392696559E+04  0.13392696559E+04  0.00000000000E+00 0. -1.
         23    2    1    2    0    0  0.55620652590E+02 -0.10533280164E+04  0.11167374835E+04  0.15387827647E+04  0.90311809266E+02 0.  0.
         11    1    3    3    0    0  0.62919630965E+02 -0.54016002049E+03  0.53191547651E+03  0.76070086227E+03  0.00000000000E+00 0. -1.
        -11    1    3    3    0    0 -0.72989783750E+01 -0.51316799592E+03  0.58482200695E+03  0.77808190246E+03  0.00000000000E+00 0.  1.
         22    1    1    2    0    0 -0.55620652590E+02  0.10533280164E+04 -0.88171554834E+03  0.13747784823E+04  0.00000000000E+00 0. -1.
<mgrwt>
<rscale>  0 0.29040668E+04</rscale>
<asrwt>0</asrwt>
<pdfrwt beam="1">  1        1 0.20604148E+00 0.29040668E+04</pdfrwt>
<pdfrwt beam="2">  1       -1 0.24219871E+00 0.29040668E+04</pdfrwt>
<totfact> 0.57067827E-01</totfact>
</mgrwt>
</event>
<event>
 6    1  0.9562506E-007  0.4261493E+04  0.7818608E-02  0.7953777E-01
          1   -1    0    0  501    0  0.00000000000E+00  0.00000000000E+00  0.17861767456E+04  0.17861767456E+04  0.00000000000E+00 0. -1.
         -1   -1    0    0    0  501 -0.00000000000E+00 -0.00000000000E+00 -0.25417867171E+04  0.25417867171E+04  0.00000000000E+00 0.  1.
         23    2    1    2    0    0 -0.20102606967E+04  0.67866297332E+03 -0.19007447682E+03  0.21321579395E+04  0.90761623577E+02 0.  0.
         11    1    3    3    0    0 -0.85506313423E+03  0.28611777627E+03 -0.35819235774E+02  0.90237429212E+03  0.00000000000E+00 0.  1.
        -11    1    3    3    0    0 -0.11551975624E+04  0.39254519705E+03 -0.15425524105E+03  0.12297836474E+04  0.00000000000E+00 0. -1.
         22    1    1    2    0    0  0.20102606967E+04 -0.67866297332E+03 -0.56553549475E+03  0.21958055232E+04  0.00000000000E+00 0.  1.
<mgrwt>
<rscale>  0 0.42614928E+04</rscale>
<asrwt>0</asrwt>
<pdfrwt beam="1">  1        1 0.27479642E+00 0.42614928E+04</pdfrwt>
<pdfrwt beam="2">  1       -1 0.39104411E+00 0.42614928E+04</pdfrwt>
<totfact> 0.26252380E-02</totfact>
</mgrwt>
</event>
<event>
 6    1  0.9562506E-007  0.4247607E+04  0.7818608E-02  0.7956378E-01
         -2   -1    0    0    0  501 -0.00000000000E+00  0.00000000000E+00  0.15513553554E+04  0.15513553554E+04  0.00000000000E+00 0.  1.
          2   -1    0    0  501    0  0.00000000000E+00 -0.00000000000E+00 -0.29074847904E+04  0.29074847904E+04  0.00000000000E+00 0. -1.
         23    2    1    2    0    0 -0.74705379232E+03 -0.13105900129E+04 -0.22462377075E+04  0.27072613473E+04  0.89132561400E+02 0.  0.
         13    1    3    3    0    0 -0.52186410021E+03 -0.83318437559E+03 -0.14828155970E+04  0.17791235026E+04  0.00000000000E+00 0.  1.
        -13    1    3    3    0    0 -0.22518969212E+03 -0.47740563735E+03 -0.76342211049E+03  0.92813784472E+03  0.00000000000E+00 0. -1.
         22    1    1    2    0    0  0.74705379232E+03  0.13105900129E+04  0.89010827252E+03  0.17515787985E+04  0.00000000000E+00 0.  1.
<mgrwt>
<rscale>  0 0.42476074E+04</rscale>
<asrwt>0</asrwt>
<pdfrwt beam="1">  1        2 0.44730535E+00 0.42476074E+04</pdfrwt>
<pdfrwt beam="2">  1       -2 0.23867005E+00 0.42476074E+04</pdfrwt>
<totfact> 0.11600296E-01</totfact>
</mgrwt>
</event>
<event>
 6    1  0.9562506E-007  0.3110617E+04  0.7818608E-02  0.8212830E-01
         -2   -1    0    0    0  501 -0.00000000000E+00  0.00000000000E+00  0.68215495511E+03  0.68215495511E+03  0.00000000000E+00 0.  1.
          2   -1    0    0  501    0  0.00000000000E+00 -0.00000000000E+00 -0.35460915562E+04  0.35460915562E+04  0.00000000000E+00 0. -1.
         23    2    1    2    0    0  0.94583601851E+03 -0.99082071862E+03 -0.43564654133E+03  0.14402500829E+04  0.90558942449E+02 0.  0.
         13    1    3    3    0    0  0.28690884135E+03 -0.29830144196E+03 -0.88390817918E+02  0.42321787558E+03  0.00000000000E+00 0.  1.
        -13    1    3    3    0    0  0.65892717715E+03 -0.69251927666E+03 -0.34725572341E+03  0.10170322073E+04  0.00000000000E+00 0. -1.
         22    1    1    2    0    0 -0.94583601851E+03  0.99082071862E+03 -0.24282900598E+04  0.27879964284E+04  0.00000000000E+00 0. -1.
<mgrwt>
<rscale>  0 0.31106166E+04</rscale>
<asrwt>0</asrwt>
<pdfrwt beam="1">  1        2 0.54555254E+00 0.31106166E+04</pdfrwt>
<pdfrwt beam="2">  1       -2 0.10494692E+00 0.31106166E+04</pdfrwt>
<totfact> 0.47044872E-01</totfact>
</mgrwt>
</event>
<event>
 6    1  0.9562506E-007  0.6096697E+04  0.7818608E-02  0.7678527E-01
          1   -1    0    0  501    0  0.00000000000E+00  0.00000000000E+00  0.17963622362E+04  0.17963622362E+04  0.00000000000E+00 0. -1.
         -1   -1    0    0    0  501 -0.00000000000E+00 -0.00000000000E+00 -0.51729154159E+04  0.51729154159E+04  0.00000000000E+00 0.  1.
         23    2    1    2    0    0 -0.83900527908E+03 -0.28927307144E+04 -0.22202584534E+04  0.37430045175E+04  0.93350814178E+02 0.  0.
         11    1    3    3    0    0 -0.28095433582E+03 -0.10569420556E+04 -0.85292336028E+03  0.13869174836E+04  0.00000000000E+00 0. -1.
        -11    1    3    3    0    0 -0.55805094327E+03 -0.18357886587E+04 -0.13673350931E+04  0.23560870340E+04  0.00000000000E+00 0.  1.
         22    1    1    2    0    0  0.83900527908E+03  0.28927307144E+04 -0.11562947263E+04  0.32262731345E+04  0.00000000000E+00 0.  1.
<mgrwt>
<rscale>  0 0.60966974E+04</rscale>
<asrwt>0</asrwt>
<pdfrwt beam="1">  1        1 0.27636343E+00 0.60966974E+04</pdfrwt>
<pdfrwt beam="2">  1       -1 0.79583312E+00 0.60966974E+04</pdfrwt>
<totfact> 0.20310338E-04</totfact>
</mgrwt>
</event>
<event>
 6    1  0.9562506E-007  0.3296559E+04  0.7818608E-02  0.8163772E-01
          2   -1    0    0  501    0  0.00000000000E+00  0.00000000000E+00  0.23406587082E+04  0.23406587082E+04  0.00000000000E+00 0. -1.
         -2   -1    0    0    0  501 -0.00000000000E+00 -0.00000000000E+00 -0.11607096270E+04  0.11607096270E+04  0.00000000000E+00 0.  1.
         23    2    1    2    0    0  0.15498406658E+04 -0.17416473205E+03  0.27894749694E+02  0.15624076274E+04  0.89442908050E+02 0.  0.
         11    1    3    3    0    0  0.23737568461E+03  0.55882712975E+01  0.43114011951E+01  0.23748059416E+03  0.00000000000E+00 0.  1.
        -11    1    3    3    0    0  0.13124649812E+04 -0.17975300335E+03  0.23583348499E+02  0.13249270333E+04  0.00000000000E+00 0. -1.
         22    1    1    2    0    0 -0.15498406658E+04  0.17416473205E+03  0.11520543315E+04  0.19389607077E+04  0.00000000000E+00 0.  1.
<mgrwt>
<rscale>  0 0.32965589E+04</rscale>
<asrwt>0</asrwt>
<pdfrwt beam="1">  1        2 0.36010134E+00 0.32965589E+04</pdfrwt>
<pdfrwt beam="2">  1       -2 0.17857071E+00 0.32965589E+04</pdfrwt>
<totfact> 0.66615724E-01</totfact>
</mgrwt>
</event>
<event>
 6    1  0.9562506E-007  0.1788825E+04  0.7818608E-02  0.8712265E-01
         -1   -1    0    0    0  501 -0.00000000000E+00  0.00000000000E+00  0.57155184759E+03  0.57155184759E+03  0.00000000000E+00 0.  1.
          1   -1    0    0  501    0  0.00000000000E+00 -0.00000000000E+00 -0.13996517056E+04  0.13996517056E+04  0.00000000000E+00 0. -1.
         23    2    1    2    0    0  0.40989029663E+03 -0.45321286308E+03 -0.11314497024E+04  0.12889769906E+04  0.88720339813E+02 0.  0.
         13    1    3    3    0    0  0.34426693860E+03 -0.39526887807E+03 -0.10241469271E+04  0.11504929984E+04  0.00000000000E+00 0.  1.
        -13    1    3    3    0    0  0.65623358032E+02 -0.57943985013E+02 -0.10730277526E+03  0.13848399221E+03  0.00000000000E+00 0. -1.
         22    1    1    2    0    0 -0.40989029663E+03  0.45321286308E+03  0.30334984443E+03  0.68222656255E+03  0.00000000000E+00 0.  1.
<mgrwt>
<rscale>  0 0.17888248E+04</rscale>
<asrwt>0</asrwt>
<pdfrwt beam="1">  1        1 0.21533103E+00 0.17888248E+04</pdfrwt>
<pdfrwt beam="2">  1       -1 0.87931054E-01 0.17888248E+04</pdfrwt>
<totfact> 0.92312917E+00</totfact>
</mgrwt>
</event>
<event>
 6    1  0.9562506E-007  0.1061818E+04  0.7818608E-02  0.9243227E-01
         -1   -1    0    0    0  501 -0.00000000000E+00  0.00000000000E+00  0.16279063061E+03  0.16279063061E+03  0.00000000000E+00 0.  1.
          1   -1    0    0  501    0  0.00000000000E+00 -0.00000000000E+00 -0.17314524956E+04  0.17314524956E+04  0.00000000000E+00 0. -1.
         23    2    1    2    0    0  0.11170216302E+03 -0.31255982208E+03 -0.15202626978E+04  0.15588128131E+04  0.92345547602E+02 0.  0.
         11    1    3    3    0    0  0.26187141413E+02 -0.11800357775E+03 -0.75390927157E+03  0.76353768768E+03  0.00000000000E+00 0. -1.
        -11    1    3    3    0    0  0.85515021608E+02 -0.19455624433E+03 -0.76635342624E+03  0.79527512538E+03  0.00000000000E+00 0.  1.
         22    1    1    2    0    0 -0.11170216302E+03  0.31255982208E+03 -0.48399167189E+02  0.33543031316E+03  0.00000000000E+00 0.  1.
<mgrwt>
<rscale>  0 0.10618178E+04</rscale>
<asrwt>0</asrwt>
<pdfrwt beam="1">  1        1 0.26637731E+00 0.10618178E+04</pdfrwt>
<pdfrwt beam="2">  1       -1 0.25044712E-01 0.10618178E+04</pdfrwt>
<totfact> 0.63345612E+01</totfact>
</mgrwt>
</event>
<event>
 6    1  0.9562506E-007  0.2822189E+04  0.7818608E-02  0.8296413E-01
          2   -1    0    0  501    0  0.00000000000E+00  0.00000000000E+00  0.81248069682E+03  0.81248069682E+03  0.00000000000E+00 0. -1.
         -2   -1    0    0    0  501 -0.00000000000E+00 -0.00000000000E+00 -0.24507501567E+04  0.24507501567E+04  0.00000000000E+00 0.  1.
         23    2    1    2    0    0 -0.10083706431E+04  0.97412486847E+03 -0.64804023892E+03  0.15467564076E+04  0.82271623810E+02 0.  0.
         13    1    3    3    0    0 -0.65810876877E+03  0.62056956757E+03 -0.37608230185E+03  0.97961810798E+03  0.00000000000E+00 0. -1.
        -13    1    3    3    0    0 -0.35026187433E+03  0.35355530090E+03 -0.27195793707E+03  0.56713829966E+03  0.00000000000E+00 0.  1.
         22    1    1    2    0    0  0.10083706431E+04 -0.97412486847E+03 -0.99022922091E+03  0.17164744458E+04  0.00000000000E+00 0.  1.
<mgrwt>
<rscale>  0 0.28221887E+04</rscale>
<asrwt>0</asrwt>
<pdfrwt beam="1">  1        2 0.12499703E+00 0.28221887E+04</pdfrwt>
<pdfrwt beam="2">  1       -2 0.37703848E+00 0.28221887E+04</pdfrwt>
<totfact> 0.30653931E-01</totfact>
</mgrwt>
</event>
<event>
 6    1  0.9562506E-007  0.3693759E+04  0.7818608E-02  0.8069346E-01
         -1   -1    0    0    0  501 -0.00000000000E+00  0.00000000000E+00  0.27383568506E+04  0.27383568506E+04  0.00000000000E+00 0.  1.
          1   -1    0    0  501    0  0.00000000000E+00 -0.00000000000E+00 -0.12456246392E+04  0.12456246392E+04  0.00000000000E+00 0. -1.
         23    2    1    2    0    0 -0.24813511823E+03 -0.12689673401E+04 -0.67390263734E+03  0.14608572926E+04  0.90056191240E+02 0.  0.
         11    1    3    3    0    0 -0.13262935852E+03 -0.50964457090E+03 -0.24025927241E+03  0.57883732893E+03  0.00000000000E+00 0. -1.
        -11    1    3    3    0    0 -0.11550575971E+03 -0.75932276916E+03 -0.43364336493E+03  0.88201996363E+03  0.00000000000E+00 0.  1.
         22    1    1    2    0    0  0.24813511823E+03  0.12689673401E+04  0.21666348487E+04  0.25231241973E+04  0.00000000000E+00 0.  1.
<mgrwt>
<rscale>  0 0.36937595E+04</rscale>
<asrwt>0</asrwt>
<pdfrwt beam="1">  1        1 0.19163456E+00 0.36937595E+04</pdfrwt>
<pdfrwt beam="2">  1       -1 0.42128567E+00 0.36937595E+04</pdfrwt>
<totfact> 0.40558793E-02</totfact>
</mgrwt>
</event>
<event>
 6    1  0.9562506E-007  0.1488910E+04  0.7818608E-02  0.8891861E-01
         -1   -1    0    0    0  501 -0.00000000000E+00  0.00000000000E+00  0.14174359600E+04  0.14174359600E+04  0.00000000000E+00 0.  1.
          1   -1    0    0  501    0  0.00000000000E+00 -0.00000000000E+00 -0.39099720549E+03  0.39099720549E+03  0.00000000000E+00 0. -1.
         23    2    1    2    0    0 -0.28734734675E+03  0.35661394001E+03 -0.19348921117E+03  0.50537282868E+03  0.90673156077E+02 0.  0.
         11    1    3    3    0    0 -0.80839444426E+02  0.44471783157E+02 -0.30768078023E+02  0.97259600541E+02  0.00000000000E+00 0.  1.
        -11    1    3    3    0    0 -0.20650790233E+03  0.31214215686E+03 -0.16272113315E+03  0.40811322814E+03  0.00000000000E+00 0. -1.
         22    1    1    2    0    0  0.28734734675E+03 -0.35661394001E+03  0.12199279657E+04  0.13030603368E+04  0.00000000000E+00 0.  1.
<mgrwt>
<rscale>  0 0.14889103E+04</rscale>
<asrwt>0</asrwt>
<pdfrwt beam="1">  1        1 0.60153417E-01 0.14889103E+04</pdfrwt>
<pdfrwt beam="2">  1       -1 0.21806707E+00 0.14889103E+04</pdfrwt>
<totfact> 0.67896942E+00</totfact>
</mgrwt>
</event>
<event>
 6    1  0.9562506E-007  0.2393189E+04  0.7818608E-02  0.8442058E-01
          1   -1    0    0  501    0  0.00000000000E+00  0.00000000000E+00  0.14951919325E+04  0.14951919325E+04  0.00000000000E+00 0. -1.
         -1   -1    0    0    0  501 -0.00000000000E+00 -0.00000000000E+00 -0.95762856647E+03  0.95762856647E+03  0.00000000000E+00 0.  1.
         23    2    1    2    0    0  0.60444282533E+03  0.16336398501E+03  0.13121505709E+04  0.14568163531E+04  0.92389638823E+02 0.  0.
         11    1    3    3    0    0  0.52760241616E+03  0.16505231901E+03  0.10984596008E+04  0.12297235755E+04  0.00000000000E+00 0. -1.
        -11    1    3    3    0    0  0.76840409172E+02 -0.16883340017E+01  0.21369097008E+03  0.22709277762E+03  0.00000000000E+00 0.  1.
         22    1    1    2    0    0 -0.60444282533E+03 -0.16336398501E+03 -0.77458720483E+03  0.99600414586E+03  0.00000000000E+00 0.  1.
<mgrwt>
<rscale>  0 0.23931891E+04</rscale>
<asrwt>0</asrwt>
<pdfrwt beam="1">  1        1 0.23002953E+00 0.23931891E+04</pdfrwt>
<pdfrwt beam="2">  1       -1 0.14732747E+00 0.23931891E+04</pdfrwt>
<totfact> 0.21645152E+00</totfact>
</mgrwt>
</event>
<event>
 6    1  0.9562506E-007  0.2722514E+04  0.7818608E-02  0.8327737E-01
         -2   -1    0    0    0  501 -0.00000000000E+00  0.00000000000E+00  0.87908401115E+03  0.87908401115E+03  0.00000000000E+00 0.  1.
          2   -1    0    0  501    0  0.00000000000E+00 -0.00000000000E+00 -0.21078993727E+04  0.21078993727E+04  0.00000000000E+00 0. -1.
         23    2    1    2    0    0 -0.85394294806E+03  0.89040798873E+03 -0.12422791337E+04  0.17531980629E+04  0.91657279752E+02 0.  0.
         11    1    3    3    0    0 -0.72495272883E+03  0.71593788957E+03 -0.99332367277E+03  0.14229600977E+04  0.00000000000E+00 0. -1.
        -11    1    3    3    0    0 -0.12899021922E+03  0.17447009915E+03 -0.24895546095E+03  0.33023796524E+03  0.00000000000E+00 0.  1.
         22    1    1    2    0    0  0.85394294806E+03 -0.89040798873E+03  0.13463772170E+02  0.12337853209E+04  0.00000000000E+00 0.  1.
<mgrwt>
<rscale>  0 0.27225140E+04</rscale>
<asrwt>0</asrwt>
<pdfrwt beam="1">  1        2 0.32429221E+00 0.27225140E+04</pdfrwt>
<pdfrwt beam="2">  1       -2 0.13524370E+00 0.27225140E+04</pdfrwt>
<totfact> 0.20001275E+00</totfact>
</mgrwt>
</event>
<event>
 6    1  0.9562506E-007  0.4486879E+04  0.7818608E-02  0.7912938E-01
         -2   -1    0    0    0  501 -0.00000000000E+00  0.00000000000E+00  0.11958989095E+04  0.11958989095E+04  0.00000000000E+00 0.  1.
          2   -1    0    0  501    0  0.00000000000E+00 -0.00000000000E+00 -0.42085665427E+04  0.42085665427E+04  0.00000000000E+00 0. -1.
         23    2    1    2    0    0 -0.55684354424E+03  0.14684578553E+04  0.42106092325E+03  0.16286297825E+04  0.93270906204E+02 0.  0.
         13    1    3    3    0    0 -0.36164049597E+03  0.10246200876E+04  0.25474161281E+03  0.11160302243E+04  0.00000000000E+00 0.  1.
        -13    1    3    3    0    0 -0.19520304827E+03  0.44383776765E+03  0.16631931044E+03  0.51259955821E+03  0.00000000000E+00 0. -1.
         22    1    1    2    0    0  0.55684354424E+03 -0.14684578553E+04 -0.34337285565E+04  0.37758356697E+04  0.00000000000E+00 0. -1.
<mgrwt>
<rscale>  0 0.44868787E+04</rscale>
<asrwt>0</asrwt>
<pdfrwt beam="1">  1        2 0.64747176E+00 0.44868787E+04</pdfrwt>
<pdfrwt beam="2">  1       -2 0.18398445E+00 0.44868787E+04</pdfrwt>
<totfact> 0.29348252E-02</totfact>
</mgrwt>
</event>
<event>
 6    1  0.9562506E-007  0.9774032E+03  0.7818608E-02  0.9333682E-01
         -2   -1    0    0    0  501 -0.00000000000E+00  0.00000000000E+00  0.68867803365E+03  0.68867803365E+03  0.00000000000E+00 0.  1.
          2   -1    0    0  501    0  0.00000000000E+00 -0.00000000000E+00 -0.34679379338E+03  0.34679379338E+03  0.00000000000E+00 0. -1.
         23    2    1    2    0    0 -0.36879509114E+03 -0.29185401546E+03  0.47835958456E+02  0.48080708358E+03  0.87741592833E+02 0.  0.
         11    1    3    3    0    0 -0.21334561518E+03 -0.21309073012E+03  0.54468882036E+02  0.30641617107E+03  0.00000000000E+00 0. -1.
        -11    1    3    3    0    0 -0.15544947595E+03 -0.78763285337E+02 -0.66329235792E+01  0.17439091251E+03  0.00000000000E+00 0.  1.
         22    1    1    2    0    0  0.36879509114E+03  0.29185401546E+03  0.29404828182E+03  0.55466474345E+03  0.00000000000E+00 0.  1.
<mgrwt>
<rscale>  0 0.97740323E+03</rscale>
<asrwt>0</asrwt>
<pdfrwt beam="1">  1        2 0.53352891E-01 0.97740323E+03</pdfrwt>
<pdfrwt beam="2">  1       -2 0.10595047E+00 0.97740323E+03</pdfrwt>
<totfact> 0.67135304E+01</totfact>
</mgrwt>
</event>
<event>
 6    1  0.9562506E-007  0.1055274E+04  0.7818608E-02  0.9249916E-01
          1   -1    0    0  501    0  0.00000000000E+00  0.00000000000E+00  0.76708415128E+03  0.76708415128E+03  0.00000000000E+00 0. -1.
         -1   -1    0    0    0  501 -0.00000000000E+00 -0.00000000000E+00 -0.36293389797E+03  0.36293389797E+03  0.00000000000E+00 0.  1.
         23    2    1    2    0    0  0.20499020805E+03 -0.26041361875E+03  0.63784972441E+03  0.72449162469E+03  0.90551670821E+02 0.  0.
         11    1    3    3    0    0  0.15385217880E+03 -0.14068275378E+03  0.33123898085E+03  0.39138394521E+03  0.00000000000E+00 0. -1.
        -11    1    3    3    0    0  0.51138029246E+02 -0.11973086497E+03  0.30661074357E+03  0.33310767948E+03  0.00000000000E+00 0.  1.
         22    1    1    2    0    0 -0.20499020805E+03  0.26041361875E+03 -0.23369947110E+03  0.40552642456E+03  0.00000000000E+00 0.  1.
<mgrwt>
<rscale>  0 0.10552741E+04</rscale>
<asrwt>0</asrwt>
<pdfrwt beam="1">  1        1 0.11801295E+00 0.10552741E+04</pdfrwt>
<pdfrwt beam="2">  1       -1 0.55835985E-01 0.10552741E+04</pdfrwt>
<totfact> 0.76643326E+01</totfact>
</mgrwt>
</event>
<event>
 6    1  0.9562506E-007  0.1103781E+04  0.7818608E-02  0.9201514E-01
         -3   -1    0    0    0  501 -0.00000000000E+00  0.00000000000E+00  0.24805430049E+04  0.24805430049E+04  0.00000000000E+00 0.  1.
          3   -1    0    0  501    0  0.00000000000E+00 -0.00000000000E+00 -0.12278891516E+03  0.12278891516E+03  0.00000000000E+00 0. -1.
         23    2    1    2    0    0  0.41387354074E+03  0.33855005577E+03  0.90093565904E+03  0.10514854753E+04  0.89605776096E+02 0.  0.
         11    1    3    3    0    0  0.26655569433E+03  0.16221644272E+03  0.53743718407E+03  0.62145381107E+03  0.00000000000E+00 0.  1.
        -11    1    3    3    0    0  0.14731784641E+03  0.17633361305E+03  0.36349847497E+03  0.43003166426E+03  0.00000000000E+00 0. -1.
         22    1    1    2    0    0 -0.41387354074E+03 -0.33855005577E+03  0.14568184307E+04  0.15518464447E+04  0.00000000000E+00 0.  1.
<mgrwt>
<rscale>  0 0.11037811E+04</rscale>
<asrwt>0</asrwt>
<pdfrwt beam="1">  1        3 0.18890604E-01 0.11037811E+04</pdfrwt>
<pdfrwt beam="2">  1       -3 0.38162196E+00 0.11037811E+04</pdfrwt>
<totfact> 0.90470624E-01</totfact>
</mgrwt>
</event>
<event>
 6    1  0.9562506E-007  0.2221849E+04  0.7818608E-02  0.8509389E-01
         -1   -1    0    0    0  501 -0.00000000000E+00  0.00000000000E+00  0.11702826235E+04  0.11702826235E+04  0.00000000000E+00 0.  1.
          1   -1    0    0  501    0  0.00000000000E+00 -0.00000000000E+00 -0.10545767921E+04  0.10545767921E+04  0.00000000000E+00 0. -1.
         23    2    1    2    0    0 -0.55128812672E+02  0.78515016652E+03 -0.72431296154E+03  0.10737158353E+04  0.93469025121E+02 0.  0.
         13    1    3    3    0    0 -0.51982351836E+02  0.57477092790E+03 -0.47476306855E+03  0.74730432604E+03  0.00000000000E+00 0. -1.
        -13    1    3    3    0    0 -0.31464608365E+01  0.21037923862E+03 -0.24954989299E+03  0.32641150921E+03  0.00000000000E+00 0.  1.
         22    1    1    2    0    0  0.55128812672E+02 -0.78515016652E+03  0.84001879297E+03  0.11511435803E+04  0.00000000000E+00 0.  1.
<mgrwt>
<rscale>  0 0.22218487E+04</rscale>
<asrwt>0</asrwt>
<pdfrwt beam="1">  1        1 0.16224258E+00 0.22218487E+04</pdfrwt>
<pdfrwt beam="2">  1       -1 0.18004348E+00 0.22218487E+04</pdfrwt>
<totfact> 0.25979442E+00</totfact>
</mgrwt>
</event>
<event>
 6    1  0.9562506E-007  0.2863554E+04  0.7818608E-02  0.8283805E-01
         -1   -1    0    0    0  501 -0.00000000000E+00  0.00000000000E+00  0.31003203589E+04  0.31003203589E+04  0.00000000000E+00 0.  1.
          1   -1    0    0  501    0  0.00000000000E+00 -0.00000000000E+00 -0.66121708506E+03  0.66121708506E+03  0.00000000000E+00 0. -1.
         23    2    1    2    0    0 -0.32732781665E+03 -0.12712401621E+04  0.19681216305E+04  0.23668981510E+04  0.74223008814E+02 0.  0.
         13    1    3    3    0    0 -0.24671639851E+03 -0.94106990076E+03  0.15151388469E+04  0.18005908100E+04  0.00000000000E+00 0.  1.
        -13    1    3    3    0    0 -0.80611418146E+02 -0.33017026136E+03  0.45298278359E+03  0.56630734098E+03  0.00000000000E+00 0. -1.
         22    1    1    2    0    0  0.32732781665E+03  0.12712401621E+04  0.47098164334E+03  0.13946392930E+04  0.00000000000E+00 0. -1.
<mgrwt>
<rscale>  0 0.28635536E+04</rscale>
<asrwt>0</asrwt>
<pdfrwt beam="1">  1        1 0.10172571E+00 0.28635536E+04</pdfrwt>
<pdfrwt beam="2">  1       -1 0.47697236E+00 0.28635536E+04</pdfrwt>
<totfact> 0.54002073E-02</totfact>
</mgrwt>
</event>
<event>
 6    1  0.9562506E-007  0.1440520E+04  0.7818608E-02  0.8924999E-01
         -4   -1    0    0    0  501 -0.00000000000E+00  0.00000000000E+00  0.42066330510E+03  0.42066330510E+03  0.00000000000E+00 0.  1.
          4   -1    0    0  501    0  0.00000000000E+00 -0.00000000000E+00 -0.12332297873E+04  0.12332297873E+04  0.00000000000E+00 0. -1.
         23    2    1    2    0    0 -0.87271530863E+02 -0.62050707612E+03 -0.80871622010E+03  0.10272670667E+04  0.92791971504E+02 0.  0.
         11    1    3    3    0    0  0.84204138231E+01 -0.16756166753E+03 -0.17459441017E+03  0.24213843944E+03  0.00000000000E+00 0.  1.
        -11    1    3    3    0    0 -0.95691944686E+02 -0.45294540858E+03 -0.63412180994E+03  0.78512862721E+03  0.00000000000E+00 0. -1.
         22    1    1    2    0    0  0.87271530863E+02  0.62050707612E+03 -0.38502621030E+01  0.62662602574E+03  0.00000000000E+00 0.  1.
<mgrwt>
<rscale>  0 0.14405201E+04</rscale>
<asrwt>0</asrwt>
<pdfrwt beam="1">  1        4 0.18972766E+00 0.14405201E+04</pdfrwt>
<pdfrwt beam="2">  1       -4 0.64717432E-01 0.14405201E+04</pdfrwt>
<totfact> 0.66550277E-01</totfact>
</mgrwt>
</event>
<event>
 6    1  0.9562506E-007  0.2027628E+04  0.7818608E-02  0.8593811E-01
          1   -1    0    0  501    0  0.00000000000E+00  0.00000000000E+00  0.14640419629E+04  0.14640419629E+04  0.00000000000E+00 0. -1.
         -1   -1    0    0    0  501 -0.00000000000E+00 -0.00000000000E+00 -0.70204205771E+03  0.70204205771E+03  0.00000000000E+00 0.  1.
         23    2    1    2    0    0 -0.36887065802E+03 -0.80330908591E+03  0.90777431551E+03  0.12701927166E+04  0.89242812659E+02 0.  0.
         13    1    3    3    0    0 -0.93962688348E+02 -0.29490048960E+03  0.34507073663E+03  0.46353974894E+03  0.00000000000E+00 0.  1.
        -13    1    3    3    0    0 -0.27490796967E+03 -0.50840859631E+03  0.56270357888E+03  0.80665296769E+03  0.00000000000E+00 0. -1.
         22    1    1    2    0    0  0.36887065802E+03  0.80330908591E+03 -0.14577441032E+03  0.89589130399E+03  0.00000000000E+00 0. -1.
<mgrwt>
<rscale>  0 0.20276282E+04</rscale>
<asrwt>0</asrwt>
<pdfrwt beam="1">  1        1 0.22523722E+00 0.20276282E+04</pdfrwt>
<pdfrwt beam="2">  1       -1 0.10800647E+00 0.20276282E+04</pdfrwt>
<totfact> 0.51100001E+00</totfact>
</mgrwt>
</event>
<event>
 6    1  0.9562506E-007  0.2701175E+04  0.7818608E-02  0.8334624E-01
          2   -1    0    0  501    0  0.00000000000E+00  0.00000000000E+00  0.78872163267E+03  0.78872163267E+03  0.00000000000E+00 0. -1.
         -2   -1    0    0    0  501 -0.00000000000E+00 -0.00000000000E+00 -0.23127133097E+04  0.23127133097E+04  0.00000000000E+00 0.  1.
         23    2    1    2    0    0 -0.21049190857E+03  0.63570924483E+03  0.58171123171E+03  0.89181555719E+03  0.92271032368E+02 0.  0.
         13    1    3    3    0    0 -0.19227859698E+03  0.58849544407E+03  0.50043894200E+03  0.79607605241E+03  0.00000000000E+00 0.  1.
        -13    1    3    3    0    0 -0.18213311589E+02  0.47213800757E+02  0.81272289707E+02  0.95739504778E+02  0.00000000000E+00 0. -1.
         22    1    1    2    0    0  0.21049190857E+03 -0.63570924483E+03 -0.21057029088E+04  0.22096193852E+04  0.00000000000E+00 0.  1.
<mgrwt>
<rscale>  0 0.27011753E+04</rscale>
<asrwt>0</asrwt>
<pdfrwt beam="1">  1        2 0.12134179E+00 0.27011753E+04</pdfrwt>
<pdfrwt beam="2">  1       -2 0.35580204E+00 0.27011753E+04</pdfrwt>
<totfact> 0.44031220E-01</totfact>
</mgrwt>
</event>
<event>
 6    1  0.9562506E-007  0.4236445E+04  0.7818608E-02  0.7958476E-01
          2   -1    0    0  501    0  0.00000000000E+00  0.00000000000E+00  0.19596743666E+04  0.19596743666E+04  0.00000000000E+00 0. -1.
         -2   -1    0    0    0  501 -0.00000000000E+00 -0.00000000000E+00 -0.22895977063E+04  0.22895977063E+04  0.00000000000E+00 0.  1.
         23    2    1    2    0    0  0.63019282245E+03 -0.13862331675E+04 -0.16407320706E+04  0.22400421415E+04  0.83676042694E+02 0.  0.
         11    1    3    3    0    0  0.31809755015E+03 -0.79284323887E+03 -0.89648877839E+03  0.12383370230E+04  0.00000000000E+00 0.  1.
        -11    1    3    3    0    0  0.31209527230E+03 -0.59338992860E+03 -0.74424329224E+03  0.10017051185E+04  0.00000000000E+00 0. -1.
         22    1    1    2    0    0 -0.63019282245E+03  0.13862331675E+04  0.13108087310E+04  0.20092299314E+04  0.00000000000E+00 0. -1.
<mgrwt>
<rscale>  0 0.42364447E+04</rscale>
<asrwt>0</asrwt>
<pdfrwt beam="1">  1        2 0.30148836E+00 0.42364447E+04</pdfrwt>
<pdfrwt beam="2">  1       -2 0.35224580E+00 0.42364447E+04</pdfrwt>
<totfact> 0.81986009E-02</totfact>
</mgrwt>
</event>
<event>
 6    1  0.9562506E-007  0.4003683E+04  0.7818608E-02  0.8003804E-01
         -2   -1    0    0    0  501 -0.00000000000E+00  0.00000000000E+00  0.26076359304E+04  0.26076359304E+04  0.00000000000E+00 0.  1.
          2   -1    0    0  501    0  0.00000000000E+00 -0.00000000000E+00 -0.15367825421E+04  0.15367825421E+04  0.00000000000E+00 0. -1.
         23    2    1    2    0    0  0.24755376440E+03 -0.19222530812E+04  0.10500245479E+04  0.22061786485E+04  0.91284737880E+02 0.  0.
         13    1    3    3    0    0  0.40660576449E+02 -0.51325911758E+03  0.31490570248E+03  0.60353442794E+03  0.00000000000E+00 0.  1.
        -13    1    3    3    0    0  0.20689318795E+03 -0.14089939637E+04  0.73511884545E+03  0.16026442206E+04  0.00000000000E+00 0. -1.
         22    1    1    2    0    0 -0.24755376440E+03  0.19222530812E+04  0.20828840450E+02  0.19382398240E+04  0.00000000000E+00 0. -1.
<mgrwt>
<rscale>  0 0.40036830E+04</rscale>
<asrwt>0</asrwt>
<pdfrwt beam="1">  1        2 0.23642808E+00 0.40036830E+04</pdfrwt>
<pdfrwt beam="2">  1       -2 0.40117476E+00 0.40036830E+04</pdfrwt>
<totfact> 0.69562304E-02</totfact>
</mgrwt>
</event>
<event>
 6    1  0.9562506E-007  0.1352730E+04  0.7818608E-02  0.8988764E-01
          2   -1    0    0  501    0  0.00000000000E+00  0.00000000000E+00  0.78937229756E+03  0.78937229756E+03  0.00000000000E+00 0. -1.
         -2   -1    0    0    0  501 -0.00000000000E+00 -0.00000000000E+00 -0.57953630258E+03  0.57953630258E+03  0.00000000000E+00 0.  1.
         23    2    1    2    0    0  0.12014683566E+03 -0.33052891184E+03  0.68635424222E+03  0.77666349579E+03  0.91866295202E+02 0.  0.
         11    1    3    3    0    0  0.95023551488E+02 -0.15944785555E+03  0.29112617152E+03  0.34526445186E+03  0.00000000000E+00 0.  1.
        -11    1    3    3    0    0  0.25123284174E+02 -0.17108105629E+03  0.39522807071E+03  0.43139904393E+03  0.00000000000E+00 0. -1.
         22    1    1    2    0    0 -0.12014683566E+03  0.33052891184E+03 -0.47651824724E+03  0.59224510436E+03  0.00000000000E+00 0.  1.
<mgrwt>
<rscale>  0 0.13527304E+04</rscale>
<asrwt>0</asrwt>
<pdfrwt beam="1">  1        2 0.12144189E+00 0.13527304E+04</pdfrwt>
<pdfrwt beam="2">  1       -2 0.89159432E-01 0.13527304E+04</pdfrwt>
<totfact> 0.36993623E+01</totfact>
</mgrwt>
</event>
<event>
 6    1  0.9562506E-007  0.3761071E+04  0.7818608E-02  0.8054561E-01
         -2   -1    0    0    0  501 -0.00000000000E+00  0.00000000000E+00  0.84185984749E+03  0.84185984749E+03  0.00000000000E+00 0.  1.
          2   -1    0    0  501    0  0.00000000000E+00 -0.00000000000E+00 -0.42007165013E+04  0.42007165013E+04  0.00000000000E+00 0. -1.
         23    2    1    2    0    0 -0.12093798525E+04  0.14356867158E+04 -0.15601564795E+04  0.24427459138E+04  0.95516414914E+02 0.  0.
         11    1    3    3    0    0 -0.11161848406E+04  0.12951245371E+04 -0.13941247090E+04  0.22060824711E+04  0.00000000000E+00 0.  1.
        -11    1    3    3    0    0 -0.93195011927E+02  0.14056217863E+03 -0.16603177053E+03  0.23666344275E+03  0.00000000000E+00 0. -1.
         22    1    1    2    0    0  0.12093798525E+04 -0.14356867158E+04 -0.17987001743E+04  0.25998304349E+04  0.00000000000E+00 0.  1.
<mgrwt>
<rscale>  0 0.37610714E+04</rscale>
<asrwt>0</asrwt>
<pdfrwt beam="1">  1        2 0.64626410E+00 0.37610714E+04</pdfrwt>
<pdfrwt beam="2">  1       -2 0.12951690E+00 0.37610714E+04</pdfrwt>
<totfact> 0.81538241E-02</totfact>
</mgrwt>
</event>
<event>
 6    1  0.9562506E-007  0.2496241E+04  0.7818608E-02  0.8404326E-01
          2   -1    0    0  501    0  0.00000000000E+00  0.00000000000E+00  0.25329134536E+04  0.25329134536E+04  0.00000000000E+00 0. -1.
         -2   -1    0    0    0  501 -0.00000000000E+00 -0.00000000000E+00 -0.61502490271E+03  0.61502490271E+03  0.00000000000E+00 0.  1.
         23    2    1    2    0    0  0.50006845513E+03 -0.86870029807E+03  0.25863212956E+02  0.10068011475E+04  0.90944912452E+02 0.  0.
         11    1    3    3    0    0  0.90017988341E+02 -0.23510511936E+03  0.85683767837E+01  0.25189496314E+03  0.00000000000E+00 0. -1.
        -11    1    3    3    0    0  0.41005046679E+03 -0.63359517871E+03  0.17294836172E+02  0.75490618434E+03  0.00000000000E+00 0.  1.
         22    1    1    2    0    0 -0.50006845513E+03  0.86870029807E+03  0.18920253379E+04  0.21411372089E+04  0.00000000000E+00 0.  1.
<mgrwt>
<rscale>  0 0.24962411E+04</rscale>
<asrwt>0</asrwt>
<pdfrwt beam="1">  1        2 0.38967899E+00 0.24962411E+04</pdfrwt>
<pdfrwt beam="2">  1       -2 0.94619217E-01 0.24962411E+04</pdfrwt>
<totfact> 0.27954478E+00</totfact>
</mgrwt>
</event>
<event>
 6    1  0.9562506E-007  0.2879220E+04  0.7818608E-02  0.8279087E-01
          2   -1    0    0  501    0  0.00000000000E+00  0.00000000000E+00  0.26969406212E+04  0.26969406212E+04  0.00000000000E+00 0. -1.
         -2   -1    0    0    0  501 -0.00000000000E+00 -0.00000000000E+00 -0.76845502877E+03  0.76845502877E+03  0.00000000000E+00 0.  1.
         23    2    1    2    0    0 -0.78882034392E+03 -0.95684433018E+03  0.18418603148E+04  0.22222976868E+04  0.91482144122E+02 0.  0.
         13    1    3    3    0    0 -0.20945964719E+03 -0.19367611884E+03  0.42301880618E+03  0.51022415974E+03  0.00000000000E+00 0.  1.
        -13    1    3    3    0    0 -0.57936069673E+03 -0.76316821134E+03  0.14188415086E+04  0.17120735271E+04  0.00000000000E+00 0. -1.
         22    1    1    2    0    0  0.78882034392E+03  0.95684433018E+03  0.86625277675E+02  0.12430979631E+04  0.00000000000E+00 0.  1.
<mgrwt>
<rscale>  0 0.28792204E+04</rscale>
<asrwt>0</asrwt>
<pdfrwt beam="1">  1        2 0.41491394E+00 0.28792204E+04</pdfrwt>
<pdfrwt beam="2">  1       -2 0.11822385E+00 0.28792204E+04</pdfrwt>
<totfact> 0.12699055E+00</totfact>
</mgrwt>
</event>
<event>
 6    1  0.9562506E-007  0.2862388E+04  0.7818608E-02  0.8284157E-01
          2   -1    0    0  501    0  0.00000000000E+00  0.00000000000E+00  0.12956572571E+04  0.12956572571E+04  0.00000000000E+00 0. -1.
         -2   -1    0    0    0  501 -0.00000000000E+00 -0.00000000000E+00 -0.15809094960E+04  0.15809094960E+04  0.00000000000E+00 0.  1.
         23    2    1    2    0    0 -0.10685883587E+04 -0.94398418396E+03 -0.24950360003E+03  0.14502900671E+04  0.90011179958E+02 0.  0.
         13    1    3    3    0    0 -0.34845559701E+03 -0.27140514079E+03 -0.45442973278E+02  0.44401251937E+03  0.00000000000E+00 0. -1.
        -13    1    3    3    0    0 -0.72013276165E+03 -0.67257904316E+03 -0.20406062675E+03  0.10062775477E+04  0.00000000000E+00 0.  1.
         22    1    1    2    0    0  0.10685883587E+04  0.94398418396E+03 -0.35748638877E+02  0.14262766860E+04  0.00000000000E+00 0.  1.
<mgrwt>
<rscale>  0 0.28623884E+04</rscale>
<asrwt>0</asrwt>
<pdfrwt beam="1">  1        2 0.19933189E+00 0.28623884E+04</pdfrwt>
<pdfrwt beam="2">  1       -2 0.24321685E+00 0.28623884E+04</pdfrwt>
<totfact> 0.10185992E+00</totfact>
</mgrwt>
</event>
<event>
 6    1  0.9562506E-007  0.2287066E+04  0.7818608E-02  0.8483038E-01
         -2   -1    0    0    0  501 -0.00000000000E+00  0.00000000000E+00  0.18087813093E+04  0.18087813093E+04  0.00000000000E+00 0.  1.
          2   -1    0    0  501    0  0.00000000000E+00 -0.00000000000E+00 -0.72295526917E+03  0.72295526917E+03  0.00000000000E+00 0. -1.
         23    2    1    2    0    0 -0.35651128897E+03  0.41102247510E+03  0.16549647973E+04  0.17443620175E+04  0.88603574329E+02 0.  0.
         11    1    3    3    0    0 -0.16207077627E+03  0.24388297681E+03  0.80723796436E+03  0.85870773492E+03  0.00000000000E+00 0.  1.
        -11    1    3    3    0    0 -0.19444051270E+03  0.16713949829E+03  0.84772683298E+03  0.88565428257E+03  0.00000000000E+00 0. -1.
         22    1    1    2    0    0  0.35651128897E+03 -0.41102247510E+03 -0.56913875727E+03  0.78737456094E+03  0.00000000000E+00 0. -1.
<mgrwt>
<rscale>  0 0.22870662E+04</rscale>
<asrwt>0</asrwt>
<pdfrwt beam="1">  1        2 0.11122389E+00 0.22870662E+04</pdfrwt>
<pdfrwt beam="2">  1       -2 0.27827405E+00 0.22870662E+04</pdfrwt>
<totfact> 0.15398912E+00</totfact>
</mgrwt>
</event>
<event>
 6    1  0.9562506E-007  0.1230802E+04  0.7818608E-02  0.9086315E-01
         -1   -1    0    0    0  501 -0.00000000000E+00  0.00000000000E+00  0.29751415480E+03  0.29751415480E+03  0.00000000000E+00 0.  1.
          1   -1    0    0  501    0  0.00000000000E+00 -0.00000000000E+00 -0.12729423970E+04  0.12729423970E+04  0.00000000000E+00 0. -1.
         23    2    1    2    0    0  0.52401947082E+03  0.30955444885E+03 -0.40944202212E+03  0.73933636560E+03  0.92493942555E+02 0.  0.
         13    1    3    3    0    0  0.29879634711E+03  0.22870107502E+03 -0.25426433390E+03  0.45412970642E+03  0.00000000000E+00 0. -1.
        -13    1    3    3    0    0  0.22522312371E+03  0.80853373823E+02 -0.15517768822E+03  0.28520665917E+03  0.00000000000E+00 0.  1.
         22    1    1    2    0    0 -0.52401947082E+03 -0.30955444885E+03 -0.56598622006E+03  0.83112018619E+03  0.00000000000E+00 0. -1.
<mgrwt>
<rscale>  0 0.12308020E+04</rscale>
<asrwt>0</asrwt>
<pdfrwt beam="1">  1        1 0.19583729E+00 0.12308020E+04</pdfrwt>
<pdfrwt beam="2">  1       -1 0.45771408E-01 0.12308020E+04</pdfrwt>
<totfact> 0.44300171E+01</totfact>
</mgrwt>
</event>
<event>
 6    1  0.9562506E-007  0.1791996E+04  0.7818608E-02  0.8710568E-01
         -2   -1    0    0    0  501 -0.00000000000E+00  0.00000000000E+00  0.64082780518E+03  0.64082780518E+03  0.00000000000E+00 0.  1.
          2   -1    0    0  501    0  0.00000000000E+00 -0.00000000000E+00 -0.12527735937E+04  0.12527735937E+04  0.00000000000E+00 0. -1.
         23    2    1    2    0    0  0.44346593078E+03 -0.45188150925E+03  0.36005028751E+03  0.73358618262E+03  0.87484556510E+02 0.  0.
         13    1    3    3    0    0  0.37316734209E+03 -0.40300337650E+03  0.33893099219E+03  0.64539894959E+03  0.00000000000E+00 0. -1.
        -13    1    3    3    0    0  0.70298588696E+02 -0.48878132750E+02  0.21119295317E+02  0.88187233024E+02  0.00000000000E+00 0.  1.
         22    1    1    2    0    0 -0.44346593078E+03  0.45188150925E+03 -0.97199607603E+03  0.11600152163E+04  0.00000000000E+00 0. -1.
<mgrwt>
<rscale>  0 0.17919957E+04</rscale>
<asrwt>0</asrwt>
<pdfrwt beam="1">  1        2 0.19273440E+00 0.17919957E+04</pdfrwt>
<pdfrwt beam="2">  1       -2 0.98588894E-01 0.17919957E+04</pdfrwt>
<totfact> 0.14222176E+01</totfact>
</mgrwt>
</event>
<event>
 6    1  0.9562506E-007  0.4571498E+04  0.7818608E-02  0.7898238E-01
         -2   -1    0    0    0  501 -0.00000000000E+00  0.00000000000E+00  0.26092116785E+04  0.26092116785E+04  0.00000000000E+00 0.  1.
          2   -1    0    0  501    0  0.00000000000E+00 -0.00000000000E+00 -0.20023855274E+04  0.20023855274E+04  0.00000000000E+00 0. -1.
         23    2    1    2    0    0 -0.22356262723E+04 -0.38529714602E+03  0.29281117917E+02  0.22706493240E+04  0.92261848531E+02 0.  0.
         11    1    3    3    0    0 -0.18683447369E+04 -0.29334936102E+03  0.47586437198E+01  0.18912399499E+04  0.00000000000E+00 0.  1.
        -11    1    3    3    0    0 -0.36728153546E+03 -0.91947785000E+02  0.24522474197E+02  0.37940937416E+03  0.00000000000E+00 0. -1.
         22    1    1    2    0    0  0.22356262723E+04  0.38529714602E+03  0.57754503325E+03  0.23409478819E+04  0.00000000000E+00 0.  1.
<mgrwt>
<rscale>  0 0.45714977E+04</rscale>
<asrwt>0</asrwt>
<pdfrwt beam="1">  1        2 0.30805931E+00 0.45714977E+04</pdfrwt>
<pdfrwt beam="2">  1       -2 0.40141718E+00 0.45714977E+04</pdfrwt>
<totfact> 0.36466355E-02</totfact>
</mgrwt>
</event>
<event>
 6    1  0.9562506E-007  0.4250902E+04  0.7818608E-02  0.7955760E-01
          3   -1    0    0  501    0  0.00000000000E+00  0.00000000000E+00  0.17084118921E+04  0.17084118921E+04  0.00000000000E+00 0. -1.
         -3   -1    0    0    0  501 -0.00000000000E+00 -0.00000000000E+00 -0.26442927638E+04  0.26442927638E+04  0.00000000000E+00 0.  1.
         23    2    1    2    0    0  0.55449310987E+03  0.20063055319E+04 -0.90350280717E+03  0.22709330942E+04  0.89973880881E+02 0.  0.
         11    1    3    3    0    0  0.34714679906E+03  0.12572167941E+04 -0.61335360535E+03  0.14412867906E+04  0.00000000000E+00 0.  1.
        -11    1    3    3    0    0  0.20734631082E+03  0.74908873782E+03 -0.29014920182E+03  0.82964630358E+03  0.00000000000E+00 0. -1.
         22    1    1    2    0    0 -0.55449310987E+03 -0.20063055319E+04 -0.32378064546E+02  0.20817715618E+04  0.00000000000E+00 0. -1.
<mgrwt>
<rscale>  0 0.42509016E+04</rscale>
<asrwt>0</asrwt>
<pdfrwt beam="1">  1        3 0.26283260E+00 0.42509016E+04</pdfrwt>
<pdfrwt beam="2">  1       -3 0.40681427E+00 0.42509016E+04</pdfrwt>
<totfact> 0.12026418E-03</totfact>
</mgrwt>
</event>
<event>
 6    1  0.9562506E-007  0.3083325E+04  0.7818608E-02  0.8220329E-01
         -1   -1    0    0    0  501 -0.00000000000E+00  0.00000000000E+00  0.20405473964E+04  0.20405473964E+04  0.00000000000E+00 0.  1.
          1   -1    0    0  501    0  0.00000000000E+00 -0.00000000000E+00 -0.11647479751E+04  0.11647479751E+04  0.00000000000E+00 0. -1.
         23    2    1    2    0    0 -0.56674959338E+03  0.11589438245E+04 -0.43672555722E+03  0.13648938639E+04  0.88601113302E+02 0.  0.
         11    1    3    3    0    0 -0.95357472917E+02  0.15784998046E+03 -0.90783565099E+02  0.20555125800E+03  0.00000000000E+00 0. -1.
        -11    1    3    3    0    0 -0.47139212046E+03  0.10010938441E+04 -0.34594199212E+03  0.11593426059E+04  0.00000000000E+00 0.  1.
         22    1    1    2    0    0  0.56674959338E+03 -0.11589438245E+04  0.13125249785E+04  0.18404015076E+04  0.00000000000E+00 0.  1.
<mgrwt>
<rscale>  0 0.30833251E+04</rscale>
<asrwt>0</asrwt>
<pdfrwt beam="1">  1        1 0.17919200E+00 0.30833251E+04</pdfrwt>
<pdfrwt beam="2">  1       -1 0.31393037E+00 0.30833251E+04</pdfrwt>
<totfact> 0.25693745E-01</totfact>
</mgrwt>
</event>
<event>
 6    1  0.9562506E-007  0.2425776E+04  0.7818608E-02  0.8429916E-01
         -1   -1    0    0    0  501 -0.00000000000E+00  0.00000000000E+00  0.81735398765E+03  0.81735398765E+03  0.00000000000E+00 0.  1.
          1   -1    0    0  501    0  0.00000000000E+00 -0.00000000000E+00 -0.17998293062E+04  0.17998293062E+04  0.00000000000E+00 0. -1.
         23    2    1    2    0    0  0.46535658764E+03 -0.15538890210E+01  0.71459540743E+03  0.85746507287E+03  0.89669318304E+02 0.  0.
         11    1    3    3    0    0  0.12846840611E+03  0.25029306405E+02  0.14645081932E+03  0.19641395069E+03  0.00000000000E+00 0. -1.
        -11    1    3    3    0    0  0.33688818152E+03 -0.26583195426E+02  0.56814458812E+03  0.66105112218E+03  0.00000000000E+00 0.  1.
         22    1    1    2    0    0 -0.46535658764E+03  0.15538890210E+01 -0.16970707260E+04  0.17597182210E+04  0.00000000000E+00 0. -1.
<mgrwt>
<rscale>  0 0.24257763E+04</rscale>
<asrwt>0</asrwt>
<pdfrwt beam="1">  1        1 0.27689681E+00 0.24257763E+04</pdfrwt>
<pdfrwt beam="2">  1       -1 0.12574677E+00 0.24257763E+04</pdfrwt>
<totfact> 0.20088373E+00</totfact>
</mgrwt>
</event>
<event>
 6    1  0.9562506E-007  0.2153462E+04  0.7818608E-02  0.8538052E-01
          1   -1    0    0  501    0  0.00000000000E+00  0.00000000000E+00  0.22082442932E+04  0.22082442932E+04  0.00000000000E+00 0. -1.
         -1   -1    0    0    0  501 -0.00000000000E+00 -0.00000000000E+00 -0.52500970880E+03  0.52500970880E+03  0.00000000000E+00 0.  1.
         23    2    1    2    0    0 -0.96162153013E+03  0.24763534605E+03  0.13650298273E+04  0.16905203354E+04  0.92267780965E+02 0.  0.
         11    1    3    3    0    0 -0.44953563144E+03  0.15176366121E+03  0.70182323321E+03  0.84715426191E+03  0.00000000000E+00 0. -1.
        -11    1    3    3    0    0 -0.51208589869E+03  0.95871684840E+02  0.66320659405E+03  0.84336607354E+03  0.00000000000E+00 0.  1.
         22    1    1    2    0    0  0.96162153013E+03 -0.24763534605E+03  0.31820475709E+03  0.10427336665E+04  0.00000000000E+00 0.  1.
<mgrwt>
<rscale>  0 0.21534620E+04</rscale>
<asrwt>0</asrwt>
<pdfrwt beam="1">  1        1 0.33972989E+00 0.21534620E+04</pdfrwt>
<pdfrwt beam="2">  1       -1 0.80770725E-01 0.21534620E+04</pdfrwt>
<totfact> 0.30082655E+00</totfact>
</mgrwt>
</event>
<event>
 6    1  0.9562506E-007  0.2692114E+04  0.7818608E-02  0.8337568E-01
         -2   -1    0    0    0  501 -0.00000000000E+00  0.00000000000E+00  0.12981512432E+04  0.12981512432E+04  0.00000000000E+00 0.  1.
          2   -1    0    0  501    0  0.00000000000E+00 -0.00000000000E+00 -0.13957308653E+04  0.13957308653E+04  0.00000000000E+00 0. -1.
         23    2    1    2    0    0  0.11732726743E+04 -0.36339442639E+03 -0.59730264911E+03  0.13678551928E+04  0.75053956553E+02 0.  0.
         13    1    3    3    0    0  0.90595628261E+03 -0.30663432023E+03 -0.44340646991E+03  0.10542251609E+04  0.00000000000E+00 0.  1.
        -13    1    3    3    0    0  0.26731639171E+03 -0.56760106163E+02 -0.15389617921E+03  0.31363003189E+03  0.00000000000E+00 0. -1.
         22    1    1    2    0    0 -0.11732726743E+04  0.36339442639E+03  0.49972302705E+03  0.13260269157E+04  0.00000000000E+00 0.  1.
<mgrwt>
<rscale>  0 0.26921142E+04</rscale>
<asrwt>0</asrwt>
<pdfrwt beam="1">  1        2 0.21472782E+00 0.26921142E+04</pdfrwt>
<pdfrwt beam="2">  1       -2 0.19971558E+00 0.26921142E+04</pdfrwt>
<totfact> 0.17065505E+00</totfact>
</mgrwt>
</event>
<event>
 6    1  0.9562506E-007  0.1073283E+04  0.7818608E-02  0.9231631E-01
         -2   -1    0    0    0  501 -0.00000000000E+00  0.00000000000E+00  0.50370205438E+03  0.50370205438E+03  0.00000000000E+00 0.  1.
          2   -1    0    0  501    0  0.00000000000E+00 -0.00000000000E+00 -0.57173498939E+03  0.57173498939E+03  0.00000000000E+00 0. -1.
         23    2    1    2    0    0  0.20114635780E+03  0.48648765271E+03  0.45951450862E+02  0.53680680537E+03  0.94445312024E+02 0.  0.
         11    1    3    3    0    0  0.65912975192E+02  0.26591522653E+03  0.47636650092E+02  0.27807315303E+03  0.00000000000E+00 0. -1.
        -11    1    3    3    0    0  0.13523338261E+03  0.22057242617E+03 -0.16851992302E+01  0.25873365235E+03  0.00000000000E+00 0.  1.
         22    1    1    2    0    0 -0.20114635780E+03 -0.48648765271E+03 -0.11398438586E+03  0.53863023840E+03  0.00000000000E+00 0. -1.
<mgrwt>
<rscale>  0 0.10732830E+04</rscale>
<asrwt>0</asrwt>
<pdfrwt beam="1">  1        2 0.87959230E-01 0.10732830E+04</pdfrwt>
<pdfrwt beam="2">  1       -2 0.77492623E-01 0.10732830E+04</pdfrwt>
<totfact> 0.77657289E+01</totfact>
</mgrwt>
</event>
<event>
 6    1  0.9562506E-007  0.8087123E+03  0.7818608E-02  0.9547491E-01
         -1   -1    0    0    0  501 -0.00000000000E+00  0.00000000000E+00  0.14250348902E+03  0.14250348902E+03  0.00000000000E+00 0.  1.
          1   -1    0    0  501    0  0.00000000000E+00 -0.00000000000E+00 -0.11473677794E+04  0.11473677794E+04  0.00000000000E+00 0. -1.
         23    2    1    2    0    0  0.20586297194E+03  0.11387827061E+03  0.41560529626E+01  0.25378735434E+03  0.95094293795E+02 0.  0.
         11    1    3    3    0    0  0.11666697473E+03  0.11595223565E+03  0.39150458288E+00  0.16448786345E+03  0.00000000000E+00 0. -1.
        -11    1    3    3    0    0  0.89195997206E+02 -0.20739650412E+01  0.37645483797E+01  0.89299490889E+02  0.00000000000E+00 0.  1.
         22    1    1    2    0    0 -0.20586297194E+03 -0.11387827061E+03 -0.10090203433E+04  0.10360839141E+04  0.00000000000E+00 0. -1.
<mgrwt>
<rscale>  0 0.80871234E+03</rscale>
<asrwt>0</asrwt>
<pdfrwt beam="1">  1        1 0.17651812E+00 0.80871234E+03</pdfrwt>
<pdfrwt beam="2">  1       -1 0.21923614E-01 0.80871234E+03</pdfrwt>
<totfact> 0.20685701E+02</totfact>
</mgrwt>
</event>
<event>
 6    1  0.9562506E-007  0.4603041E+03  0.7818608E-02  0.1024693E+00
          2   -1    0    0  501    0  0.00000000000E+00  0.00000000000E+00  0.36542426464E+04  0.36542426464E+04  0.00000000000E+00 0. -1.
         -2   -1    0    0    0  501 -0.00000000000E+00 -0.00000000000E+00 -0.14495471827E+02  0.14495471827E+02  0.00000000000E+00 0.  1.
         23    2    1    2    0    0  0.19411698860E+03 -0.18592427741E+02  0.27215736808E+04  0.27300850149E+04  0.91508497856E+02 0.  0.
         13    1    3    3    0    0  0.17279997000E+03 -0.18370368487E+02  0.18242042852E+04  0.18324624346E+04  0.00000000000E+00 0.  1.
        -13    1    3    3    0    0  0.21317018596E+02 -0.22205925401E+00  0.89736939554E+03  0.89762258029E+03  0.00000000000E+00 0. -1.
         22    1    1    2    0    0 -0.19411698860E+03  0.18592427741E+02  0.91817349379E+03  0.93865310329E+03  0.00000000000E+00 0.  1.
<mgrwt>
<rscale>  0 0.46030412E+03</rscale>
<asrwt>0</asrwt>
<pdfrwt beam="1">  1        2 0.56219044E+00 0.46030412E+03</pdfrwt>
<pdfrwt beam="2">  1       -2 0.22300755E-02 0.46030412E+03</pdfrwt>
<totfact> 0.50469473E+02</totfact>
</mgrwt>
</event>
<event>
 6    1  0.9562506E-007  0.2806761E+04  0.7818608E-02  0.8301172E-01
          2   -1    0    0  501    0  0.00000000000E+00  0.00000000000E+00  0.20697340197E+04  0.20697340197E+04  0.00000000000E+00 0. -1.
         -2   -1    0    0    0  501 -0.00000000000E+00 -0.00000000000E+00 -0.95156024155E+03  0.95156024155E+03  0.00000000000E+00 0.  1.
         23    2    1    2    0    0 -0.44709843265E+02 -0.53027446498E+03  0.19557683393E+04  0.20289462239E+04  0.91667900440E+02 0.  0.
         11    1    3    3    0    0  0.21881657912E+02 -0.17039068099E+03  0.71320499475E+03  0.73360285963E+03  0.00000000000E+00 0. -1.
        -11    1    3    3    0    0 -0.66591501177E+02 -0.35988378399E+03  0.12425633446E+04  0.12953433642E+04  0.00000000000E+00 0.  1.
         22    1    1    2    0    0  0.44709843265E+02  0.53027446498E+03 -0.83759456120E+03  0.99234803735E+03  0.00000000000E+00 0.  1.
<mgrwt>
<rscale>  0 0.28067608E+04</rscale>
<asrwt>0</asrwt>
<pdfrwt beam="1">  1        2 0.31842062E+00 0.28067608E+04</pdfrwt>
<pdfrwt beam="2">  1       -2 0.14639388E+00 0.28067608E+04</pdfrwt>
<totfact> 0.16977304E+00</totfact>
</mgrwt>
</event>
<event>
 6    1  0.9562506E-007  0.2035486E+04  0.7818608E-02  0.8590207E-01
         -1   -1    0    0    0  501 -0.00000000000E+00  0.00000000000E+00  0.38484063550E+03  0.38484063550E+03  0.00000000000E+00 0.  1.
          1   -1    0    0  501    0  0.00000000000E+00 -0.00000000000E+00 -0.26915050689E+04  0.26915050689E+04  0.00000000000E+00 0. -1.
         23    2    1    2    0    0  0.83364649887E+03 -0.59704344223E+02 -0.28350308619E+03  0.88734754756E+03  0.92090045554E+02 0.  0.
         11    1    3    3    0    0  0.19092039950E+03 -0.10083034622E+02 -0.25018439279E+02  0.19281646412E+03  0.00000000000E+00 0. -1.
        -11    1    3    3    0    0  0.64272609937E+03 -0.49621309601E+02 -0.25848464691E+03  0.69453108344E+03  0.00000000000E+00 0.  1.
         22    1    1    2    0    0 -0.83364649887E+03  0.59704344223E+02 -0.20231613472E+04  0.21889981568E+04  0.00000000000E+00 0. -1.
<mgrwt>
<rscale>  0 0.20354857E+04</rscale>
<asrwt>0</asrwt>
<pdfrwt beam="1">  1        1 0.41407770E+00 0.20354857E+04</pdfrwt>
<pdfrwt beam="2">  1       -1 0.59206252E-01 0.20354857E+04</pdfrwt>
<totfact> 0.26631754E+00</totfact>
</mgrwt>
</event>
<event>
 6    1  0.9562506E-007  0.6485917E+04  0.7818608E-02  0.7632909E-01
          2   -1    0    0  501    0  0.00000000000E+00  0.00000000000E+00  0.27540047122E+04  0.27540047122E+04  0.00000000000E+00 0. -1.
         -2   -1    0    0    0  501 -0.00000000000E+00 -0.00000000000E+00 -0.38187223743E+04  0.38187223743E+04  0.00000000000E+00 0.  1.
         23    2    1    2    0    0  0.23365135956E+04 -0.16119361753E+04  0.10553788450E+04  0.30297843527E+04  0.90192580990E+02 0.  0.
         13    1    3    3    0    0  0.15537272769E+04 -0.10994217992E+04  0.74566306639E+03  0.20442138225E+04  0.00000000000E+00 0.  1.
        -13    1    3    3    0    0  0.78278631871E+03 -0.51251437613E+03  0.30971577863E+03  0.98557053022E+03  0.00000000000E+00 0. -1.
         22    1    1    2    0    0 -0.23365135956E+04  0.16119361753E+04 -0.21200965071E+04  0.35429427339E+04  0.00000000000E+00 0.  1.
<mgrwt>
<rscale>  0 0.64859169E+04</rscale>
<asrwt>0</asrwt>
<pdfrwt beam="1">  1        2 0.42369303E+00 0.64859169E+04</pdfrwt>
<pdfrwt beam="2">  1       -2 0.58749575E+00 0.64859169E+04</pdfrwt>
<totfact> 0.93498327E-04</totfact>
</mgrwt>
</event>
<event>
 6    1  0.9562506E-007  0.1955574E+04  0.7818608E-02  0.8627677E-01
          2   -1    0    0  501    0  0.00000000000E+00  0.00000000000E+00  0.10598263134E+04  0.10598263134E+04  0.00000000000E+00 0. -1.
         -2   -1    0    0    0  501 -0.00000000000E+00 -0.00000000000E+00 -0.90209855782E+03  0.90209855782E+03  0.00000000000E+00 0.  1.
         23    2    1    2    0    0 -0.33581398518E+03 -0.98551548276E+02  0.99375830675E+03  0.10555968275E+04  0.65158650310E+02 0.  0.
         13    1    3    3    0    0 -0.27777022262E+03 -0.10595825615E+03  0.81746082674E+03  0.86984231438E+03  0.00000000000E+00 0. -1.
        -13    1    3    3    0    0 -0.58043762558E+02  0.74067078736E+01  0.17629748000E+03  0.18575451313E+03  0.00000000000E+00 0.  1.
         22    1    1    2    0    0  0.33581398518E+03  0.98551548276E+02 -0.83603055117E+03  0.90632804370E+03  0.00000000000E+00 0.  1.
<mgrwt>
<rscale>  0 0.19555744E+04</rscale>
<asrwt>0</asrwt>
<pdfrwt beam="1">  1        2 0.16305020E+00 0.19555744E+04</pdfrwt>
<pdfrwt beam="2">  1       -2 0.13878439E+00 0.19555744E+04</pdfrwt>
<totfact> 0.79054423E+00</totfact>
</mgrwt>
</event>
<event>
 6    1  0.9562506E-007  0.1443298E+04  0.7818608E-02  0.8923060E-01
          2   -1    0    0  501    0  0.00000000000E+00  0.00000000000E+00  0.41111448042E+03  0.41111448042E+03  0.00000000000E+00 0. -1.
         -2   -1    0    0    0  501 -0.00000000000E+00 -0.00000000000E+00 -0.12667453447E+04  0.12667453447E+04  0.00000000000E+00 0.  1.
         23    2    1    2    0    0  0.51923324542E+03 -0.18093701682E+03 -0.96775505036E+03  0.11166885497E+04  0.90011735009E+02 0.  0.
         11    1    3    3    0    0  0.20546522395E+03 -0.30356607617E+02 -0.40126508748E+03  0.45183088907E+03  0.00000000000E+00 0.  1.
        -11    1    3    3    0    0  0.31376802147E+03 -0.15058040920E+03 -0.56648996287E+03  0.66485766068E+03  0.00000000000E+00 0. -1.
         22    1    1    2    0    0 -0.51923324542E+03  0.18093701682E+03  0.11212418608E+03  0.56117127538E+03  0.00000000000E+00 0. -1.
<mgrwt>
<rscale>  0 0.14432981E+04</rscale>
<asrwt>0</asrwt>
<pdfrwt beam="1">  1        2 0.63248383E-01 0.14432981E+04</pdfrwt>
<pdfrwt beam="2">  1       -2 0.19488390E+00 0.14432981E+04</pdfrwt>
<totfact> 0.10742394E+01</totfact>
</mgrwt>
</event>
<event>
 6    1  0.9562506E-007  0.3390076E+04  0.7818608E-02  0.8140346E-01
         -2   -1    0    0    0  501 -0.00000000000E+00  0.00000000000E+00  0.15992641094E+04  0.15992641094E+04  0.00000000000E+00 0.  1.
          2   -1    0    0  501    0  0.00000000000E+00 -0.00000000000E+00 -0.17965472423E+04  0.17965472423E+04  0.00000000000E+00 0. -1.
         23    2    1    2    0    0 -0.12833570157E+04 -0.69578197381E+03 -0.95918030980E+03  0.17491161483E+04  0.90899113405E+02 0.  0.
         11    1    3    3    0    0 -0.28500817457E+03 -0.13060621010E+03 -0.24347741711E+03  0.39694948587E+03  0.00000000000E+00 0.  1.
        -11    1    3    3    0    0 -0.99834884115E+03 -0.56517576370E+03 -0.71570289269E+03  0.13521666625E+04  0.00000000000E+00 0. -1.
         22    1    1    2    0    0  0.12833570157E+04  0.69578197381E+03  0.76189717691E+03  0.16466952034E+04  0.00000000000E+00 0.  1.
<mgrwt>
<rscale>  0 0.33900758E+04</rscale>
<asrwt>0</asrwt>
<pdfrwt beam="1">  1        2 0.27639188E+00 0.33900758E+04</pdfrwt>
<pdfrwt beam="2">  1       -2 0.24604063E+00 0.33900758E+04</pdfrwt>
<totfact> 0.48848511E-01</totfact>
</mgrwt>
</event>
<event>
 6    1  0.9562506E-007  0.5994843E+03  0.7818608E-02  0.9906477E-01
          2   -1    0    0  501    0  0.00000000000E+00  0.00000000000E+00  0.67079449820E+03  0.67079449820E+03  0.00000000000E+00 0. -1.
         -2   -1    0    0    0  501 -0.00000000000E+00 -0.00000000000E+00 -0.13393872124E+03  0.13393872124E+03  0.00000000000E+00 0.  1.
         23    2    1    2    0    0 -0.13573661089E+03  0.20894510663E+03  0.48186590891E+03  0.54957371892E+03  0.88056988556E+02 0.  0.
         13    1    3    3    0    0 -0.11919339001E+03  0.17976470924E+03  0.33136334379E+03  0.39537840168E+03  0.00000000000E+00 0. -1.
        -13    1    3    3    0    0 -0.16543220880E+02  0.29180397391E+02  0.15050256512E+03  0.15419531723E+03  0.00000000000E+00 0.  1.
         22    1    1    2    0    0  0.13573661089E+03 -0.20894510663E+03  0.54989868047E+02  0.25515950052E+03  0.00000000000E+00 0.  1.
<mgrwt>
<rscale>  0 0.59948430E+03</rscale>
<asrwt>0</asrwt>
<pdfrwt beam="1">  1        2 0.10319915E+00 0.59948430E+03</pdfrwt>
<pdfrwt beam="2">  1       -2 0.20605958E-01 0.59948430E+03</pdfrwt>
<totfact> 0.87949380E+02</totfact>
</mgrwt>
</event>
<event>
 6    1  0.9562506E-007  0.3470749E+04  0.7818608E-02  0.8120757E-01
          2   -1    0    0  501    0  0.00000000000E+00  0.00000000000E+00  0.12586893880E+04  0.12586893880E+04  0.00000000000E+00 0. -1.
         -2   -1    0    0    0  501 -0.00000000000E+00 -0.00000000000E+00 -0.23925870197E+04  0.23925870197E+04  0.00000000000E+00 0.  1.
         23    2    1    2    0    0 -0.84054238252E+03 -0.14176281065E+04 -0.11351248381E+04  0.20031919283E+04  0.89936411194E+02 0.  0.
         13    1    3    3    0    0 -0.53731323490E+03 -0.82093822267E+03 -0.66551877741E+03  0.11855632927E+04  0.00000000000E+00 0. -1.
        -13    1    3    3    0    0 -0.30322914761E+03 -0.59668988387E+03 -0.46960606073E+03  0.81762863560E+03  0.00000000000E+00 0.  1.
         22    1    1    2    0    0  0.84054238252E+03  0.14176281065E+04  0.12272064583E+01  0.16480844794E+04  0.00000000000E+00 0. -1.
<mgrwt>
<rscale>  0 0.34707486E+04</rscale>
<asrwt>0</asrwt>
<pdfrwt beam="1">  1        2 0.19364452E+00 0.34707486E+04</pdfrwt>
<pdfrwt beam="2">  1       -2 0.36809031E+00 0.34707486E+04</pdfrwt>
<totfact> 0.17182871E-01</totfact>
</mgrwt>
</event>
<event>
 6    1  0.9562506E-007  0.1472206E+04  0.7818608E-02  0.8903149E-01
         -2   -1    0    0    0  501 -0.00000000000E+00  0.00000000000E+00  0.22934716312E+03  0.22934716312E+03  0.00000000000E+00 0.  1.
          2   -1    0    0  501    0  0.00000000000E+00 -0.00000000000E+00 -0.23625661033E+04  0.23625661033E+04  0.00000000000E+00 0. -1.
         23    2    1    2    0    0  0.50188215542E+03 -0.53082954633E+03 -0.11840337983E+04  0.13941578077E+04  0.89856843042E+02 0.  0.
         11    1    3    3    0    0  0.33465126161E+03 -0.36846742371E+03 -0.88052561303E+03  0.10114766752E+04  0.00000000000E+00 0. -1.
        -11    1    3    3    0    0  0.16723089381E+03 -0.16236212262E+03 -0.30350818523E+03  0.38268113255E+03  0.00000000000E+00 0.  1.
         22    1    1    2    0    0 -0.50188215542E+03  0.53082954633E+03 -0.94918514189E+03  0.11977554587E+04  0.00000000000E+00 0.  1.
<mgrwt>
<rscale>  0 0.14722063E+04</rscale>
<asrwt>0</asrwt>
<pdfrwt beam="1">  1        2 0.36347170E+00 0.14722063E+04</pdfrwt>
<pdfrwt beam="2">  1       -2 0.35284180E-01 0.14722063E+04</pdfrwt>
<totfact> 0.30565242E+01</totfact>
</mgrwt>
</event>
<event>
 6    1  0.9562506E-007  0.3589396E+04  0.7818608E-02  0.8092925E-01
         -1   -1    0    0    0  501 -0.00000000000E+00  0.00000000000E+00  0.27634408920E+04  0.27634408920E+04  0.00000000000E+00 0.  1.
          1   -1    0    0  501    0  0.00000000000E+00 -0.00000000000E+00 -0.11655547890E+04  0.11655547890E+04  0.00000000000E+00 0. -1.
         23    2    1    2    0    0 -0.15984327046E+04  0.35112807990E+03  0.16026729066E+04  0.22924441379E+04  0.91987172918E+02 0.  0.
         13    1    3    3    0    0 -0.12586604253E+04  0.27450986842E+03  0.13127625672E+04  0.18392735773E+04  0.00000000000E+00 0.  1.
        -13    1    3    3    0    0 -0.33977227932E+03  0.76618211483E+02  0.28991033933E+03  0.45317056058E+03  0.00000000000E+00 0. -1.
         22    1    1    2    0    0  0.15984327046E+04 -0.35112807990E+03 -0.47868036222E+01  0.16365515431E+04  0.00000000000E+00 0. -1.
<mgrwt>
<rscale>  0 0.35893965E+04</rscale>
<asrwt>0</asrwt>
<pdfrwt beam="1">  1        1 0.17931612E+00 0.35893965E+04</pdfrwt>
<pdfrwt beam="2">  1       -1 0.42514475E+00 0.35893965E+04</pdfrwt>
<totfact> 0.44033483E-02</totfact>
</mgrwt>
</event>
<event>
 6    1  0.9562506E-007  0.1073072E+04  0.7818608E-02  0.9231842E-01
          3   -1    0    0  501    0  0.00000000000E+00  0.00000000000E+00  0.97935120026E+03  0.97935120026E+03  0.00000000000E+00 0. -1.
         -3   -1    0    0    0  501 -0.00000000000E+00 -0.00000000000E+00 -0.29394051380E+03  0.29394051380E+03  0.00000000000E+00 0.  1.
         23    2    1    2    0    0 -0.10312280705E+03 -0.50701083202E+03  0.49784338189E+03  0.72295019204E+03  0.84348385593E+02 0.  0.
         13    1    3    3    0    0 -0.96360156756E+02 -0.28881517898E+03  0.26316752110E+03  0.40243835749E+03  0.00000000000E+00 0.  1.
        -13    1    3    3    0    0 -0.67626502956E+01 -0.21819565304E+03  0.23467586079E+03  0.32051183454E+03  0.00000000000E+00 0. -1.
         22    1    1    2    0    0  0.10312280705E+03  0.50701083202E+03  0.18756730456E+03  0.55034152202E+03  0.00000000000E+00 0.  1.
<mgrwt>
<rscale>  0 0.10730722E+04</rscale>
<asrwt>0</asrwt>
<pdfrwt beam="1">  1        3 0.15066941E+00 0.10730722E+04</pdfrwt>
<pdfrwt beam="2">  1       -3 0.45221618E-01 0.10730722E+04</pdfrwt>
<totfact> 0.40576990E+00</totfact>
</mgrwt>
</event>
<event>
 6    1  0.9562506E-007  0.2024750E+04  0.7818608E-02  0.8595136E-01
          2   -1    0    0  501    0  0.00000000000E+00  0.00000000000E+00  0.23148766639E+04  0.23148766639E+04  0.00000000000E+00 0. -1.
         -2   -1    0    0    0  501 -0.00000000000E+00 -0.00000000000E+00 -0.44274645076E+03  0.44274645076E+03  0.00000000000E+00 0.  1.
         23    2    1    2    0    0 -0.78039546118E+03 -0.56820876995E+03  0.53231424905E+03  0.11062645528E+04  0.92652679432E+02 0.  0.
         11    1    3    3    0    0 -0.59631760513E+03 -0.41413892319E+03  0.44084221914E+03  0.84938071326E+03  0.00000000000E+00 0. -1.
        -11    1    3    3    0    0 -0.18407785605E+03 -0.15406984677E+03  0.91472029908E+02  0.25688383956E+03  0.00000000000E+00 0.  1.
         22    1    1    2    0    0  0.78039546118E+03  0.56820876995E+03  0.13398159641E+04  0.16513585618E+04  0.00000000000E+00 0. -1.
<mgrwt>
<rscale>  0 0.20247503E+04</rscale>
<asrwt>0</asrwt>
<pdfrwt beam="1">  1        2 0.35613486E+00 0.20247503E+04</pdfrwt>
<pdfrwt beam="2">  1       -2 0.68114840E-01 0.20247503E+04</pdfrwt>
<totfact> 0.81345980E+00</totfact>
</mgrwt>
</event>
<event>
 6    1  0.9562506E-007  0.2502147E+04  0.7818608E-02  0.8402221E-01
         -2   -1    0    0    0  501 -0.00000000000E+00  0.00000000000E+00  0.63387889172E+03  0.63387889172E+03  0.00000000000E+00 0.  1.
          2   -1    0    0  501    0  0.00000000000E+00 -0.00000000000E+00 -0.24692175419E+04  0.24692175419E+04  0.00000000000E+00 0. -1.
         23    2    1    2    0    0 -0.23803042745E+03  0.33427445067E+03  0.54452748933E+03  0.68810973909E+03  0.92665709049E+02 0.  0.
         13    1    3    3    0    0 -0.49299960463E+02  0.14186989205E+03  0.17262086150E+03  0.22881327364E+03  0.00000000000E+00 0.  1.
        -13    1    3    3    0    0 -0.18873046699E+03  0.19240455863E+03  0.37190662783E+03  0.45929646545E+03  0.00000000000E+00 0. -1.
         22    1    1    2    0    0  0.23803042745E+03 -0.33427445067E+03 -0.23798661395E+04  0.24149866945E+04  0.00000000000E+00 0. -1.
<mgrwt>
<rscale>  0 0.25021470E+04</rscale>
<asrwt>0</asrwt>
<pdfrwt beam="1">  1        2 0.37987963E+00 0.25021470E+04</pdfrwt>
<pdfrwt beam="2">  1       -2 0.97519828E-01 0.25021470E+04</pdfrwt>
<totfact> 0.28342502E+00</totfact>
</mgrwt>
</event>
<event>
 6    1  0.9562506E-007  0.2543825E+04  0.7818608E-02  0.8387537E-01
          3   -1    0    0  501    0  0.00000000000E+00  0.00000000000E+00  0.11377285640E+04  0.11377285640E+04  0.00000000000E+00 0. -1.
         -3   -1    0    0    0  501 -0.00000000000E+00 -0.00000000000E+00 -0.14219217745E+04  0.14219217745E+04  0.00000000000E+00 0.  1.
         23    2    1    2    0    0  0.93366594742E+03  0.78438698687E+03  0.21592961407E+03  0.12416526578E+04  0.89892591295E+02 0.  0.
         13    1    3    3    0    0  0.13848828252E+03  0.12434579559E+03  0.10344213291E+01  0.18612348402E+03  0.00000000000E+00 0.  1.
        -13    1    3    3    0    0  0.79517766490E+03  0.66004119128E+03  0.21489519274E+03  0.10555291738E+04  0.00000000000E+00 0. -1.
         22    1    1    2    0    0 -0.93366594742E+03 -0.78438698687E+03 -0.50012282452E+03  0.13179976806E+04  0.00000000000E+00 0.  1.
<mgrwt>
<rscale>  0 0.25438247E+04</rscale>
<asrwt>0</asrwt>
<pdfrwt beam="1">  1        3 0.17503516E+00 0.25438247E+04</pdfrwt>
<pdfrwt beam="2">  1       -3 0.21875720E+00 0.25438247E+04</pdfrwt>
<totfact> 0.55585947E-02</totfact>
</mgrwt>
</event>
<event>
 6    1  0.9562506E-007  0.3530956E+04  0.7818608E-02  0.8106493E-01
         -2   -1    0    0    0  501 -0.00000000000E+00  0.00000000000E+00  0.16024324965E+04  0.16024324965E+04  0.00000000000E+00 0.  1.
          2   -1    0    0  501    0  0.00000000000E+00 -0.00000000000E+00 -0.19451136127E+04  0.19451136127E+04  0.00000000000E+00 0. -1.
         23    2    1    2    0    0 -0.17615773248E+04  0.71275521793E+02 -0.10387038916E+03  0.17684268230E+04  0.91156454318E+02 0.  0.
         11    1    3    3    0    0 -0.78912901068E+03  0.52694649582E+02 -0.86973331783E+02  0.79565424779E+03  0.00000000000E+00 0. -1.
        -11    1    3    3    0    0 -0.97244831415E+03  0.18580872211E+02 -0.16897057381E+02  0.97277257520E+03  0.00000000000E+00 0.  1.
         22    1    1    2    0    0  0.17615773248E+04 -0.71275521793E+02 -0.23881072702E+03  0.17791192862E+04  0.00000000000E+00 0.  1.
<mgrwt>
<rscale>  0 0.35309564E+04</rscale>
<asrwt>0</asrwt>
<pdfrwt beam="1">  1        2 0.29924824E+00 0.35309564E+04</pdfrwt>
<pdfrwt beam="2">  1       -2 0.24652808E+00 0.35309564E+04</pdfrwt>
<totfact> 0.39662181E-01</totfact>
</mgrwt>
</event>
<event>
 6    1  0.9562506E-007  0.1791458E+04  0.7818608E-02  0.8710855E-01
         -2   -1    0    0    0  501 -0.00000000000E+00  0.00000000000E+00  0.75074647533E+03  0.75074647533E+03  0.00000000000E+00 0.  1.
          2   -1    0    0  501    0  0.00000000000E+00 -0.00000000000E+00 -0.10687103636E+04  0.10687103636E+04  0.00000000000E+00 0. -1.
         23    2    1    2    0    0  0.28485955301E+03  0.81649773648E+03  0.68172119492E+02  0.87240111981E+03  0.92858803312E+02 0.  0.
         11    1    3    3    0    0  0.22248380736E+03  0.50276769009E+03  0.37841073869E+02  0.55109558300E+03  0.00000000000E+00 0.  1.
        -11    1    3    3    0    0  0.62375745651E+02  0.31373004639E+03  0.30331045624E+02  0.32130553681E+03  0.00000000000E+00 0. -1.
         22    1    1    2    0    0 -0.28485955301E+03 -0.81649773648E+03 -0.38613600774E+03  0.94705571910E+03  0.00000000000E+00 0. -1.
<mgrwt>
<rscale>  0 0.17914581E+04</rscale>
<asrwt>0</asrwt>
<pdfrwt beam="1">  1        2 0.16441698E+00 0.17914581E+04</pdfrwt>
<pdfrwt beam="2">  1       -2 0.11549946E+00 0.17914581E+04</pdfrwt>
<totfact> 0.12559577E+01</totfact>
</mgrwt>
</event>
<event>
 6    1  0.9562506E-007  0.2023142E+04  0.7818608E-02  0.8595877E-01
          1   -1    0    0  501    0  0.00000000000E+00  0.00000000000E+00  0.84054355839E+03  0.84054355839E+03  0.00000000000E+00 0. -1.
         -1   -1    0    0    0  501 -0.00000000000E+00 -0.00000000000E+00 -0.12173977414E+04  0.12173977414E+04  0.00000000000E+00 0.  1.
         23    2    1    2    0    0 -0.48317312762E+03  0.80614622830E+03 -0.56359389225E+03  0.10997139094E+04  0.91676575206E+02 0.  0.
         11    1    3    3    0    0 -0.34984451611E+03  0.63714427443E+03 -0.46550262920E+03  0.86315509017E+03  0.00000000000E+00 0. -1.
        -11    1    3    3    0    0 -0.13332861151E+03  0.16900195387E+03 -0.98091263052E+02  0.23655881921E+03  0.00000000000E+00 0.  1.
         22    1    1    2    0    0  0.48317312762E+03 -0.80614622830E+03  0.18673970927E+03  0.95822739038E+03  0.00000000000E+00 0. -1.
<mgrwt>
<rscale>  0 0.20231419E+04</rscale>
<asrwt>0</asrwt>
<pdfrwt beam="1">  1        1 0.12931439E+00 0.20231419E+04</pdfrwt>
<pdfrwt beam="2">  1       -1 0.18729196E+00 0.20231419E+04</pdfrwt>
<totfact> 0.34870402E+00</totfact>
</mgrwt>
</event>
<event>
 6    1  0.9562506E-007  0.1746553E+04  0.7818608E-02  0.8735250E-01
         -1   -1    0    0    0  501 -0.00000000000E+00  0.00000000000E+00  0.86788280563E+03  0.86788280563E+03  0.00000000000E+00 0.  1.
          1   -1    0    0  501    0  0.00000000000E+00 -0.00000000000E+00 -0.87870342942E+03  0.87870342942E+03  0.00000000000E+00 0. -1.
         23    2    1    2    0    0 -0.14374443042E+03 -0.14561417242E+03 -0.85210729928E+03  0.88077492833E+03  0.88383688577E+02 0.  0.
         11    1    3    3    0    0 -0.99357707010E+01 -0.29805129303E+02 -0.28428047724E+03  0.28601128476E+03  0.00000000000E+00 0.  1.
        -11    1    3    3    0    0 -0.13380865972E+03 -0.11580904312E+03 -0.56782682204E+03  0.59476364357E+03  0.00000000000E+00 0. -1.
         22    1    1    2    0    0  0.14374443042E+03  0.14561417242E+03  0.84128667549E+03  0.86581130672E+03  0.00000000000E+00 0.  1.
<mgrwt>
<rscale>  0 0.17465527E+04</rscale>
<asrwt>0</asrwt>
<pdfrwt beam="1">  1        1 0.13518514E+00 0.17465527E+04</pdfrwt>
<pdfrwt beam="2">  1       -1 0.13352043E+00 0.17465527E+04</pdfrwt>
<totfact> 0.85121352E+00</totfact>
</mgrwt>
</event>
<event>
 6    1  0.9562506E-007  0.2371965E+04  0.7818608E-02  0.8450075E-01
         -2   -1    0    0    0  501 -0.00000000000E+00  0.00000000000E+00  0.12436092529E+04  0.12436092529E+04  0.00000000000E+00 0.  1.
          2   -1    0    0  501    0  0.00000000000E+00 -0.00000000000E+00 -0.11310257832E+04  0.11310257832E+04  0.00000000000E+00 0. -1.
         23    2    1    2    0    0 -0.26192771333E+03  0.11504896315E+04  0.15706396177E+03  0.11938678985E+04  0.91754846548E+02 0.  0.
         11    1    3    3    0    0 -0.95402898475E+02  0.32768135146E+03  0.89003686626E+01  0.34140298431E+03  0.00000000000E+00 0. -1.
        -11    1    3    3    0    0 -0.16652481486E+03  0.82280828002E+03  0.14816359311E+03  0.85246491421E+03  0.00000000000E+00 0.  1.
         22    1    1    2    0    0  0.26192771333E+03 -0.11504896315E+04 -0.44480492103E+02  0.11807671376E+04  0.00000000000E+00 0.  1.
<mgrwt>
<rscale>  0 0.23719647E+04</rscale>
<asrwt>0</asrwt>
<pdfrwt beam="1">  1        2 0.17400397E+00 0.23719647E+04</pdfrwt>
<pdfrwt beam="2">  1       -2 0.19132450E+00 0.23719647E+04</pdfrwt>
<totfact> 0.28536333E+00</totfact>
</mgrwt>
</event>
<event>
 6    1  0.9562506E-007  0.2333252E+04  0.7818608E-02  0.8464925E-01
         -1   -1    0    0    0  501 -0.00000000000E+00  0.00000000000E+00  0.11664068895E+04  0.11664068895E+04  0.00000000000E+00 0.  1.
          1   -1    0    0  501    0  0.00000000000E+00 -0.00000000000E+00 -0.11668451646E+04  0.11668451646E+04  0.00000000000E+00 0. -1.
         23    2    1    2    0    0 -0.10660721684E+04 -0.41338132217E+03  0.22455675446E+03  0.11679122971E+04  0.78736344440E+02 0.  0.
         13    1    3    3    0    0 -0.75825943927E+03 -0.32682967266E+03  0.17978947047E+03  0.84504394316E+03  0.00000000000E+00 0.  1.
        -13    1    3    3    0    0 -0.30781272916E+03 -0.86551649509E+02  0.44767283991E+02  0.32286835395E+03  0.00000000000E+00 0. -1.
         22    1    1    2    0    0  0.10660721684E+04  0.41338132217E+03 -0.22499502955E+03  0.11653397570E+04  0.00000000000E+00 0. -1.
<mgrwt>
<rscale>  0 0.23332520E+04</rscale>
<asrwt>0</asrwt>
<pdfrwt beam="1">  1        1 0.17951464E+00 0.23332520E+04</pdfrwt>
<pdfrwt beam="2">  1       -1 0.17944721E+00 0.23332520E+04</pdfrwt>
<totfact> 0.21396845E+00</totfact>
</mgrwt>
</event>
<event>
 6    1  0.9562506E-007  0.2350587E+04  0.7818608E-02  0.8458238E-01
          2   -1    0    0  501    0  0.00000000000E+00  0.00000000000E+00  0.19305775338E+04  0.19305775338E+04  0.00000000000E+00 0. -1.
         -2   -1    0    0    0  501 -0.00000000000E+00 -0.00000000000E+00 -0.71549291069E+03  0.71549291069E+03  0.00000000000E+00 0.  1.
         23    2    1    2    0    0 -0.66673908396E+03  0.62958057288E+03 -0.21589050015E+03  0.94648152148E+03  0.91136483520E+02 0.  0.
         13    1    3    3    0    0 -0.14676263416E+03  0.91691844029E+02 -0.30436847666E+02  0.17570733264E+03  0.00000000000E+00 0. -1.
        -13    1    3    3    0    0 -0.51997644980E+03  0.53788872885E+03 -0.18545365248E+03  0.77077418885E+03  0.00000000000E+00 0.  1.
         22    1    1    2    0    0  0.66673908396E+03 -0.62958057288E+03  0.14309751233E+04  0.16995889230E+04  0.00000000000E+00 0. -1.
<mgrwt>
<rscale>  0 0.23505868E+04</rscale>
<asrwt>0</asrwt>
<pdfrwt beam="1">  1        2 0.29701193E+00 0.23505868E+04</pdfrwt>
<pdfrwt beam="2">  1       -2 0.11007583E+00 0.23505868E+04</pdfrwt>
<totfact> 0.43244765E+00</totfact>
</mgrwt>
</event>
<event>
 6    1  0.9562506E-007  0.2332641E+04  0.7818608E-02  0.8465161E-01
          2   -1    0    0  501    0  0.00000000000E+00  0.00000000000E+00  0.33719807617E+04  0.33719807617E+04  0.00000000000E+00 0. -1.
         -2   -1    0    0    0  501 -0.00000000000E+00 -0.00000000000E+00 -0.40341378510E+03  0.40341378510E+03  0.00000000000E+00 0.  1.
         23    2    1    2    0    0  0.51688022840E+03  0.27858011073E+03 -0.13970343658E+03  0.61214985028E+03  0.10216819659E+03 0.  0.
         11    1    3    3    0    0  0.35244678941E+03  0.18508467534E+03 -0.14291999041E+03  0.42296713829E+03  0.00000000000E+00 0.  1.
        -11    1    3    3    0    0  0.16443343900E+03  0.93495435387E+02  0.32165538290E+01  0.18918271199E+03  0.00000000000E+00 0. -1.
         22    1    1    2    0    0 -0.51688022840E+03 -0.27858011073E+03  0.31082704132E+04  0.31632446965E+04  0.00000000000E+00 0. -1.
<mgrwt>
<rscale>  0 0.23326410E+04</rscale>
<asrwt>0</asrwt>
<pdfrwt beam="1">  1        2 0.51876625E+00 0.23326410E+04</pdfrwt>
<pdfrwt beam="2">  1       -2 0.62063661E-01 0.23326410E+04</pdfrwt>
<totfact> 0.21753978E+00</totfact>
</mgrwt>
</event>
<event>
 6    1  0.9562506E-007  0.1840309E+04  0.7818608E-02  0.8685153E-01
          2   -1    0    0  501    0  0.00000000000E+00  0.00000000000E+00  0.16364082556E+04  0.16364082556E+04  0.00000000000E+00 0. -1.
         -2   -1    0    0    0  501 -0.00000000000E+00 -0.00000000000E+00 -0.51740398329E+03  0.51740398329E+03  0.00000000000E+00 0.  1.
         23    2    1    2    0    0 -0.60900784498E+02  0.50221680690E+03 -0.33541299710E+03  0.61392256094E+03  0.92023939903E+02 0.  0.
         13    1    3    3    0    0 -0.28006042442E+02  0.38385115423E+03 -0.29386988805E+03  0.48423708875E+03  0.00000000000E+00 0. -1.
        -13    1    3    3    0    0 -0.32894742056E+02  0.11836565267E+03 -0.41543109057E+02  0.12968547219E+03  0.00000000000E+00 0.  1.
         22    1    1    2    0    0  0.60900784498E+02 -0.50221680690E+03  0.14544172694E+04  0.15398896779E+04  0.00000000000E+00 0. -1.
<mgrwt>
<rscale>  0 0.18403088E+04</rscale>
<asrwt>0</asrwt>
<pdfrwt beam="1">  1        2 0.25175511E+00 0.18403088E+04</pdfrwt>
<pdfrwt beam="2">  1       -2 0.79600614E-01 0.18403088E+04</pdfrwt>
<totfact> 0.13997806E+01</totfact>
</mgrwt>
</event>
<event>
 6    1  0.9562506E-007  0.1721052E+04  0.7818608E-02  0.8749448E-01
          1   -1    0    0  501    0  0.00000000000E+00  0.00000000000E+00  0.27235974493E+04  0.27235974493E+04  0.00000000000E+00 0. -1.
         -1   -1    0    0    0  501 -0.00000000000E+00 -0.00000000000E+00 -0.27188479694E+03  0.27188479694E+03  0.00000000000E+00 0.  1.
         23    2    1    2    0    0 -0.41878226751E+03 -0.72185378739E+03  0.88092408972E+03  0.12167669271E+04  0.89682914390E+02 0.  0.
         11    1    3    3    0    0 -0.13519483736E+03 -0.22359921533E+03  0.33760676545E+03  0.42691050727E+03  0.00000000000E+00 0.  1.
        -11    1    3    3    0    0 -0.28358743014E+03 -0.49825457206E+03  0.54331732428E+03  0.78985641985E+03  0.00000000000E+00 0. -1.
         22    1    1    2    0    0  0.41878226751E+03  0.72185378739E+03  0.15707885627E+04  0.17787153191E+04  0.00000000000E+00 0. -1.
<mgrwt>
<rscale>  0 0.17210517E+04</rscale>
<asrwt>0</asrwt>
<pdfrwt beam="1">  1        1 0.41901497E+00 0.17210517E+04</pdfrwt>
<pdfrwt beam="2">  1       -1 0.41828432E-01 0.17210517E+04</pdfrwt>
<totfact> 0.50445394E+00</totfact>
</mgrwt>
</event>
<event>
 6    1  0.9562506E-007  0.1607963E+04  0.7818608E-02  0.8815671E-01
          2   -1    0    0  501    0  0.00000000000E+00  0.00000000000E+00  0.13541529629E+04  0.13541529629E+04  0.00000000000E+00 0. -1.
         -2   -1    0    0    0  501 -0.00000000000E+00 -0.00000000000E+00 -0.47733605925E+03  0.47733605925E+03  0.00000000000E+00 0.  1.
         23    2    1    2    0    0  0.55717615513E+03  0.60348685540E+02  0.10924961510E+04  0.12309852591E+04  0.87690572444E+02 0.  0.
         13    1    3    3    0    0  0.16963676992E+03  0.15992184940E+02  0.24966475906E+03  0.30226623299E+03  0.00000000000E+00 0.  1.
        -13    1    3    3    0    0  0.38753938521E+03  0.44356500601E+02  0.84283139195E+03  0.92871902613E+03  0.00000000000E+00 0. -1.
         22    1    1    2    0    0 -0.55717615513E+03 -0.60348685540E+02 -0.21567924735E+03  0.60050376305E+03  0.00000000000E+00 0.  1.
<mgrwt>
<rscale>  0 0.16079627E+04</rscale>
<asrwt>0</asrwt>
<pdfrwt beam="1">  1        2 0.20833122E+00 0.16079627E+04</pdfrwt>
<pdfrwt beam="2">  1       -2 0.73436317E-01 0.16079627E+04</pdfrwt>
<totfact> 0.24655214E+01</totfact>
</mgrwt>
</event>
<event>
 6    1  0.9562506E-007  0.1667931E+04  0.7818608E-02  0.8779869E-01
         -1   -1    0    0    0  501 -0.00000000000E+00  0.00000000000E+00  0.28303360302E+03  0.28303360302E+03  0.00000000000E+00 0.  1.
          1   -1    0    0  501    0  0.00000000000E+00 -0.00000000000E+00 -0.24573001388E+04  0.24573001388E+04  0.00000000000E+00 0. -1.
         23    2    1    2    0    0 -0.40892321095E+03  0.30869156214E+03 -0.15787202030E+02  0.52187894012E+03  0.97978157764E+02 0.  0.
         13    1    3    3    0    0 -0.26287297178E+03  0.15455925714E+03  0.23842076082E+02  0.30587449690E+03  0.00000000000E+00 0. -1.
        -13    1    3    3    0    0 -0.14605023917E+03  0.15413230500E+03 -0.39629278112E+02  0.21600444322E+03  0.00000000000E+00 0.  1.
         22    1    1    2    0    0  0.40892321095E+03 -0.30869156214E+03 -0.21584793337E+04  0.22184548017E+04  0.00000000000E+00 0. -1.
<mgrwt>
<rscale>  0 0.16679311E+04</rscale>
<asrwt>0</asrwt>
<pdfrwt beam="1">  1        1 0.37804619E+00 0.16679311E+04</pdfrwt>
<pdfrwt beam="2">  1       -1 0.43543630E-01 0.16679311E+04</pdfrwt>
<totfact> 0.72169809E+00</totfact>
</mgrwt>
</event>
<event>
 6    1  0.9562506E-007  0.2406581E+04  0.7818608E-02  0.8437044E-01
          1   -1    0    0  501    0  0.00000000000E+00  0.00000000000E+00  0.26169171991E+04  0.26169171991E+04  0.00000000000E+00 0. -1.
         -1   -1    0    0    0  501 -0.00000000000E+00 -0.00000000000E+00 -0.55328780482E+03  0.55328780482E+03  0.00000000000E+00 0.  1.
         23    2    1    2    0    0 -0.38765334655E+03  0.92762056799E+03  0.16695419967E+03  0.10235490396E+04  0.94994191689E+02 0.  0.
         11    1    3    3    0    0 -0.33290267612E+02  0.16501708847E+03  0.14920404950E+02  0.16900147895E+03  0.00000000000E+00 0. -1.
        -11    1    3    3    0    0 -0.35436307893E+03  0.76260347952E+03  0.15203379472E+03  0.85454756065E+03  0.00000000000E+00 0.  1.
         22    1    1    2    0    0  0.38765334655E+03 -0.92762056799E+03  0.18966751946E+04  0.21466559643E+04  0.00000000000E+00 0. -1.
<mgrwt>
<rscale>  0 0.24065813E+04</rscale>
<asrwt>0</asrwt>
<pdfrwt beam="1">  1        1 0.40260264E+00 0.24065813E+04</pdfrwt>
<pdfrwt beam="2">  1       -1 0.85121202E-01 0.24065813E+04</pdfrwt>
<totfact> 0.13722344E+00</totfact>
</mgrwt>
</event>
<event>
 6    1  0.9562506E-007  0.2664114E+04  0.7818608E-02  0.8346744E-01
          2   -1    0    0  501    0  0.00000000000E+00  0.00000000000E+00  0.25649867093E+04  0.25649867093E+04  0.00000000000E+00 0. -1.
         -2   -1    0    0    0  501 -0.00000000000E+00 -0.00000000000E+00 -0.69176792349E+03  0.69176792349E+03  0.00000000000E+00 0.  1.
         23    2    1    2    0    0  0.42057204830E+03  0.10477910289E+04  0.77260674226E+02  0.11353842204E+04  0.91549046634E+02 0.  0.
         11    1    3    3    0    0  0.29367671465E+03  0.61540729095E+03  0.58051692011E+02  0.68435527720E+03  0.00000000000E+00 0.  1.
        -11    1    3    3    0    0  0.12689533365E+03  0.43238373799E+03  0.19208982216E+02  0.45102894317E+03  0.00000000000E+00 0. -1.
         22    1    1    2    0    0 -0.42057204830E+03 -0.10477910289E+04  0.17959581116E+04  0.21213704124E+04  0.00000000000E+00 0.  1.
<mgrwt>
<rscale>  0 0.26641138E+04</rscale>
<asrwt>0</asrwt>
<pdfrwt beam="1">  1        2 0.39461334E+00 0.26641138E+04</pdfrwt>
<pdfrwt beam="2">  1       -2 0.10642584E+00 0.26641138E+04</pdfrwt>
<totfact> 0.19972020E+00</totfact>
</mgrwt>
</event>
<event>
 6    1  0.9562506E-007  0.3276457E+04  0.7818608E-02  0.8168912E-01
          1   -1    0    0  501    0  0.00000000000E+00  0.00000000000E+00  0.26702541021E+04  0.26702541021E+04  0.00000000000E+00 0. -1.
         -1   -1    0    0    0  501 -0.00000000000E+00 -0.00000000000E+00 -0.10050700157E+04  0.10050700157E+04  0.00000000000E+00 0.  1.
         23    2    1    2    0    0 -0.64573921556E+03 -0.15036761886E+04  0.88029493691E+03  0.18603662142E+04  0.89565954750E+02 0.  0.
         13    1    3    3    0    0 -0.54673489152E+03 -0.13403336034E+04  0.76507420627E+03  0.16373001408E+04  0.00000000000E+00 0. -1.
        -13    1    3    3    0    0 -0.99004324037E+02 -0.16334258518E+03  0.11522073064E+03  0.22306607335E+03  0.00000000000E+00 0.  1.
         22    1    1    2    0    0  0.64573921556E+03  0.15036761886E+04  0.78488914958E+03  0.18149579036E+04  0.00000000000E+00 0. -1.
<mgrwt>
<rscale>  0 0.32764568E+04</rscale>
<asrwt>0</asrwt>
<pdfrwt beam="1">  1        1 0.41080832E+00 0.32764568E+04</pdfrwt>
<pdfrwt beam="2">  1       -1 0.15462616E+00 0.32764568E+04</pdfrwt>
<totfact> 0.27491146E-01</totfact>
</mgrwt>
</event>
<event>
 6    1  0.9562506E-007  0.1292031E+04  0.7818608E-02  0.9035909E-01
         -2   -1    0    0    0  501 -0.00000000000E+00  0.00000000000E+00  0.59106242894E+03  0.59106242894E+03  0.00000000000E+00 0.  1.
          2   -1    0    0  501    0  0.00000000000E+00 -0.00000000000E+00 -0.70607757265E+03  0.70607757265E+03  0.00000000000E+00 0. -1.
         23    2    1    2    0    0 -0.14861879265E+03 -0.21882607026E+03  0.53072186976E+03  0.59932291588E+03  0.86889929823E+02 0.  0.
         11    1    3    3    0    0 -0.66539156513E+02 -0.33767749212E+02  0.11778516049E+03  0.13943121698E+03  0.00000000000E+00 0. -1.
        -11    1    3    3    0    0 -0.82079636134E+02 -0.18505832104E+03  0.41293670927E+03  0.45989169890E+03  0.00000000000E+00 0.  1.
         22    1    1    2    0    0  0.14861879265E+03  0.21882607026E+03 -0.64573701347E+03  0.69781708571E+03  0.00000000000E+00 0. -1.
<mgrwt>
<rscale>  0 0.12920308E+04</rscale>
<asrwt>0</asrwt>
<pdfrwt beam="1">  1        2 0.10862732E+00 0.12920308E+04</pdfrwt>
<pdfrwt beam="2">  1       -2 0.90932681E-01 0.12920308E+04</pdfrwt>
<totfact> 0.41027623E+01</totfact>
</mgrwt>
</event>
<event>
 6    1  0.9562506E-007  0.1189825E+04  0.7818608E-02  0.9121810E-01
          1   -1    0    0  501    0  0.00000000000E+00  0.00000000000E+00  0.22525403122E+04  0.22525403122E+04  0.00000000000E+00 0. -1.
         -1   -1    0    0    0  501 -0.00000000000E+00 -0.00000000000E+00 -0.15712069120E+03  0.15712069120E+03  0.00000000000E+00 0.  1.
         23    2    1    2    0    0 -0.41702695887E+02 -0.58437492433E+03  0.89154086453E+03  0.10707968478E+04  0.92345053976E+02 0.  0.
         11    1    3    3    0    0 -0.17397054183E+02 -0.24172769946E+03  0.45280915259E+03  0.51358647456E+03  0.00000000000E+00 0. -1.
        -11    1    3    3    0    0 -0.24305641704E+02 -0.34264722487E+03  0.43873171194E+03  0.55721037319E+03  0.00000000000E+00 0.  1.
         22    1    1    2    0    0  0.41702695887E+02  0.58437492433E+03  0.12038787565E+04  0.13388641557E+04  0.00000000000E+00 0. -1.
<mgrwt>
<rscale>  0 0.11898247E+04</rscale>
<asrwt>0</asrwt>
<pdfrwt beam="1">  1        1 0.34654464E+00 0.11898247E+04</pdfrwt>
<pdfrwt beam="2">  1       -1 0.24172416E-01 0.11898247E+04</pdfrwt>
<totfact> 0.29598041E+01</totfact>
</mgrwt>
</event>
<event>
 6    1  0.9562506E-007  0.3327159E+04  0.7818608E-02  0.8156019E-01
         -1   -1    0    0    0  501 -0.00000000000E+00  0.00000000000E+00  0.79627046944E+03  0.79627046944E+03  0.00000000000E+00 0.  1.
          1   -1    0    0  501    0  0.00000000000E+00 -0.00000000000E+00 -0.34755747681E+04  0.34755747681E+04  0.00000000000E+00 0. -1.
         23    2    1    2    0    0  0.20632991643E+03 -0.15084831791E+03 -0.34495228462E+04  0.34603257613E+04  0.96536309231E+02 0.  0.
         11    1    3    3    0    0  0.94923567940E+02 -0.37064831475E+02 -0.88154128943E+03  0.88741159022E+03  0.00000000000E+00 0. -1.
        -11    1    3    3    0    0  0.11140634849E+03 -0.11378348643E+03 -0.25679815567E+04  0.25729141711E+04  0.00000000000E+00 0.  1.
         22    1    1    2    0    0 -0.20632991643E+03  0.15084831791E+03  0.77021854747E+03  0.81151947623E+03  0.00000000000E+00 0.  1.
<mgrwt>
<rscale>  0 0.33271595E+04</rscale>
<asrwt>0</asrwt>
<pdfrwt beam="1">  1        1 0.53470381E+00 0.33271595E+04</pdfrwt>
<pdfrwt beam="2">  1       -1 0.12250315E+00 0.33271595E+04</pdfrwt>
<totfact> 0.12703754E-01</totfact>
</mgrwt>
</event>
<event>
 6    1  0.9562506E-007  0.1448510E+04  0.7818608E-02  0.8919434E-01
          2   -1    0    0  501    0  0.00000000000E+00  0.00000000000E+00  0.32367385031E+04  0.32367385031E+04  0.00000000000E+00 0. -1.
         -2   -1    0    0    0  501 -0.00000000000E+00 -0.00000000000E+00 -0.16205991764E+03  0.16205991764E+03  0.00000000000E+00 0.  1.
         23    2    1    2    0    0  0.70004399162E+03  0.16028196528E+03  0.17023258115E+04  0.18498942808E+04  0.91890058809E+02 0.  0.
         13    1    3    3    0    0  0.48193787497E+03  0.85876845343E+02  0.12451151340E+04  0.13378903710E+04  0.00000000000E+00 0. -1.
        -13    1    3    3    0    0  0.21810611665E+03  0.74405119939E+02  0.45721067747E+03  0.51200390973E+03  0.00000000000E+00 0.  1.
         22    1    1    2    0    0 -0.70004399162E+03 -0.16028196528E+03  0.13723527739E+04  0.15489041399E+04  0.00000000000E+00 0. -1.
<mgrwt>
<rscale>  0 0.14485104E+04</rscale>
<asrwt>0</asrwt>
<pdfrwt beam="1">  1        2 0.49795972E+00 0.14485104E+04</pdfrwt>
<pdfrwt beam="2">  1       -2 0.24932298E-01 0.14485104E+04</pdfrwt>
<totfact> 0.17351273E+01</totfact>
</mgrwt>
</event>
<event>
 6    1  0.9562506E-007  0.8520008E+03  0.7818608E-02  0.9487655E-01
          2   -1    0    0  501    0  0.00000000000E+00  0.00000000000E+00  0.15395399222E+04  0.15395399222E+04  0.00000000000E+00 0. -1.
         -2   -1    0    0    0  501 -0.00000000000E+00 -0.00000000000E+00 -0.11787700356E+03  0.11787700356E+03  0.00000000000E+00 0.  1.
         23    2    1    2    0    0 -0.29409054903E+03  0.20080848116E+03  0.11565069399E+04  0.12134338290E+04  0.90000323609E+02 0.  0.
         11    1    3    3    0    0 -0.11608498039E+03  0.39049588332E+02  0.48228636728E+03  0.49759494882E+03  0.00000000000E+00 0. -1.
        -11    1    3    3    0    0 -0.17800556864E+03  0.16175889283E+03  0.67422057257E+03  0.71583888016E+03  0.00000000000E+00 0.  1.
         22    1    1    2    0    0  0.29409054903E+03 -0.20080848116E+03  0.26515597878E+03  0.44398309677E+03  0.00000000000E+00 0.  1.
<mgrwt>
<rscale>  0 0.85200083E+03</rscale>
<asrwt>0</asrwt>
<pdfrwt beam="1">  1        2 0.23685228E+00 0.85200083E+03</pdfrwt>
<pdfrwt beam="2">  1       -2 0.18134925E-01 0.85200083E+03</pdfrwt>
<totfact> 0.30749346E+02</totfact>
</mgrwt>
</event>
<event>
 6    1  0.9562506E-007  0.3723688E+04  0.7818608E-02  0.8062733E-01
          2   -1    0    0  501    0  0.00000000000E+00  0.00000000000E+00  0.43160334511E+04  0.43160334511E+04  0.00000000000E+00 0. -1.
         -2   -1    0    0    0  501 -0.00000000000E+00 -0.00000000000E+00 -0.80315931121E+03  0.80315931121E+03  0.00000000000E+00 0.  1.
         23    2    1    2    0    0  0.11804241006E+04  0.49039991402E+03  0.36164353203E+04  0.38367661363E+04  0.90977060558E+02 0.  0.
         13    1    3    3    0    0  0.75193105456E+03  0.31482683311E+03  0.21730341439E+04  0.23209036249E+04  0.00000000000E+00 0. -1.
        -13    1    3    3    0    0  0.42849304604E+03  0.17557308091E+03  0.14434011764E+04  0.15158625114E+04  0.00000000000E+00 0.  1.
         22    1    1    2    0    0 -0.11804241006E+04 -0.49039991402E+03 -0.10356118046E+03  0.12824266260E+04  0.00000000000E+00 0.  1.
<mgrwt>
<rscale>  0 0.37236877E+04</rscale>
<asrwt>0</asrwt>
<pdfrwt beam="1">  1        2 0.66400513E+00 0.37236877E+04</pdfrwt>
<pdfrwt beam="2">  1       -2 0.12356297E+00 0.37236877E+04</pdfrwt>
<totfact> 0.72709457E-02</totfact>
</mgrwt>
</event>
<event>
 6    1  0.9562506E-007  0.2055160E+04  0.7818608E-02  0.8581257E-01
          1   -1    0    0  501    0  0.00000000000E+00  0.00000000000E+00  0.20102683964E+04  0.20102683964E+04  0.00000000000E+00 0. -1.
         -1   -1    0    0    0  501 -0.00000000000E+00 -0.00000000000E+00 -0.52526340094E+03  0.52526340094E+03  0.00000000000E+00 0.  1.
         23    2    1    2    0    0  0.18221699051E+03 -0.96383034880E+03  0.11148558574E+04  0.14871128175E+04  0.80180898046E+02 0.  0.
         13    1    3    3    0    0  0.71854372104E+02 -0.20983239599E+03  0.26810072691E+03  0.34795213028E+03  0.00000000000E+00 0.  1.
        -13    1    3    3    0    0  0.11036261841E+03 -0.75399795281E+03  0.84675513046E+03  0.11391606872E+04  0.00000000000E+00 0. -1.
         22    1    1    2    0    0 -0.18221699051E+03  0.96383034880E+03  0.37014913813E+03  0.10484189799E+04  0.00000000000E+00 0.  1.
<mgrwt>
<rscale>  0 0.20551598E+04</rscale>
<asrwt>0</asrwt>
<pdfrwt beam="1">  1        1 0.30927206E+00 0.20551598E+04</pdfrwt>
<pdfrwt beam="2">  1       -1 0.80809755E-01 0.20551598E+04</pdfrwt>
<totfact> 0.41330836E+00</totfact>
</mgrwt>
</event>
<event>
 6    1  0.9562506E-007  0.3498764E+04  0.7818608E-02  0.8114083E-01
          2   -1    0    0  501    0  0.00000000000E+00  0.00000000000E+00  0.92289115378E+03  0.92289115378E+03  0.00000000000E+00 0. -1.
         -2   -1    0    0    0  501 -0.00000000000E+00 -0.00000000000E+00 -0.33160319544E+04  0.33160319544E+04  0.00000000000E+00 0.  1.
         23    2    1    2    0    0 -0.68036694269E+03 -0.16089747945E+04 -0.11157878217E+04  0.20748229028E+04  0.90601043950E+02 0.  0.
         11    1    3    3    0    0 -0.61199599759E+03 -0.13827117281E+04 -0.94315577346E+03  0.17821261563E+04  0.00000000000E+00 0. -1.
        -11    1    3    3    0    0 -0.68370945096E+02 -0.22626306637E+03 -0.17263204819E+03  0.29269674648E+03  0.00000000000E+00 0.  1.
         22    1    1    2    0    0  0.68036694269E+03  0.16089747945E+04 -0.12773529789E+04  0.21641002053E+04  0.00000000000E+00 0.  1.
<mgrwt>
<rscale>  0 0.34987635E+04</rscale>
<asrwt>0</asrwt>
<pdfrwt beam="1">  1        2 0.14198325E+00 0.34987635E+04</pdfrwt>
<pdfrwt beam="2">  1       -2 0.51015876E+00 0.34987635E+04</pdfrwt>
<totfact> 0.33190740E-02</totfact>
</mgrwt>
</event>
<event>
 6    1  0.9562506E-007  0.2113593E+04  0.7818608E-02  0.8555279E-01
          2   -1    0    0  501    0  0.00000000000E+00  0.00000000000E+00  0.13244680932E+04  0.13244680932E+04  0.00000000000E+00 0. -1.
         -2   -1    0    0    0  501 -0.00000000000E+00 -0.00000000000E+00 -0.84322067508E+03  0.84322067508E+03  0.00000000000E+00 0.  1.
         23    2    1    2    0    0  0.60446723036E+03 -0.72348279329E+03 -0.24445816837E+03  0.97795914226E+03  0.88522895783E+02 0.  0.
         13    1    3    3    0    0  0.45191498086E+03 -0.56439403947E+03 -0.22233641063E+03  0.75643985961E+03  0.00000000000E+00 0.  1.
        -13    1    3    3    0    0  0.15255224950E+03 -0.15908875382E+03 -0.22121757739E+02  0.22151928265E+03  0.00000000000E+00 0. -1.
         22    1    1    2    0    0 -0.60446723036E+03  0.72348279329E+03  0.72570558649E+03  0.11897296260E+04  0.00000000000E+00 0. -1.
<mgrwt>
<rscale>  0 0.21135930E+04</rscale>
<asrwt>0</asrwt>
<pdfrwt beam="1">  1        2 0.20376432E+00 0.21135930E+04</pdfrwt>
<pdfrwt beam="2">  1       -2 0.12972626E+00 0.21135930E+04</pdfrwt>
<totfact> 0.64310706E+00</totfact>
</mgrwt>
</event>
<event>
 6    1  0.9562506E-007  0.1502369E+04  0.7818608E-02  0.8882879E-01
         -2   -1    0    0    0  501 -0.00000000000E+00  0.00000000000E+00  0.86691898855E+03  0.86691898855E+03  0.00000000000E+00 0.  1.
          2   -1    0    0  501    0  0.00000000000E+00 -0.00000000000E+00 -0.65090031168E+03  0.65090031168E+03  0.00000000000E+00 0. -1.
         23    2    1    2    0    0 -0.52649715309E+03  0.27496772609E+03  0.56856056315E+03  0.82710062798E+03  0.89598170872E+02 0.  0.
         11    1    3    3    0    0 -0.19005097968E+03  0.13729605411E+03  0.26183327896E+03  0.35146300989E+03  0.00000000000E+00 0. -1.
        -11    1    3    3    0    0 -0.33644617342E+03  0.13767167198E+03  0.30672728419E+03  0.47563761809E+03  0.00000000000E+00 0.  1.
         22    1    1    2    0    0  0.52649715309E+03 -0.27496772609E+03 -0.35254188629E+03  0.69071867225E+03  0.00000000000E+00 0. -1.
<mgrwt>
<rscale>  0 0.15023686E+04</rscale>
<asrwt>0</asrwt>
<pdfrwt beam="1">  1        2 0.10013851E+00 0.15023686E+04</pdfrwt>
<pdfrwt beam="2">  1       -2 0.13337215E+00 0.15023686E+04</pdfrwt>
<totfact> 0.17637319E+01</totfact>
</mgrwt>
</event>
<event>
 6    1  0.9562506E-007  0.3691941E+04  0.7818608E-02  0.8069750E-01
          2   -1    0    0  501    0  0.00000000000E+00  0.00000000000E+00  0.23338904889E+04  0.23338904889E+04  0.00000000000E+00 0. -1.
         -2   -1    0    0    0  501 -0.00000000000E+00 -0.00000000000E+00 -0.14600541327E+04  0.14600541327E+04  0.00000000000E+00 0.  1.
         23    2    1    2    0    0  0.12405138279E+04 -0.10321870162E+04  0.13558045000E+04  0.21097302988E+04  0.92040740892E+02 0.  0.
         11    1    3    3    0    0  0.28624859781E+03 -0.28238302442E+03  0.36471789767E+03  0.54286055033E+03  0.00000000000E+00 0.  1.
        -11    1    3    3    0    0  0.95426523009E+03 -0.74980399174E+03  0.99108660229E+03  0.15668697485E+04  0.00000000000E+00 0. -1.
         22    1    1    2    0    0 -0.12405138279E+04  0.10321870162E+04 -0.48196814373E+03  0.16842143228E+04  0.00000000000E+00 0.  1.
<mgrwt>
<rscale>  0 0.36919407E+04</rscale>
<asrwt>0</asrwt>
<pdfrwt beam="1">  1        2 0.35906007E+00 0.36919407E+04</pdfrwt>
<pdfrwt beam="2">  1       -2 0.22462371E+00 0.36919407E+04</pdfrwt>
<totfact> 0.32418671E-01</totfact>
</mgrwt>
</event>
<event>
 6    1  0.9562506E-007  0.7178228E+03  0.7818608E-02  0.9687229E-01
          4   -1    0    0  501    0  0.00000000000E+00  0.00000000000E+00  0.20964337706E+03  0.20964337706E+03  0.00000000000E+00 0. -1.
         -4   -1    0    0    0  501 -0.00000000000E+00 -0.00000000000E+00 -0.61445957659E+03  0.61445957659E+03  0.00000000000E+00 0.  1.
         23    2    1    2    0    0 -0.29401877909E+03 -0.18462176668E+03 -0.13479605629E+03  0.38428126598E+03  0.94709426171E+02 0.  0.
         11    1    3    3    0    0 -0.25008177627E+03 -0.10988142392E+03 -0.10117737530E+03  0.29129312285E+03  0.00000000000E+00 0.  1.
        -11    1    3    3    0    0 -0.43937002814E+02 -0.74740342756E+02 -0.33618680996E+02  0.92988143134E+02  0.00000000000E+00 0. -1.
         22    1    1    2    0    0  0.29401877909E+03  0.18462176668E+03 -0.27002014324E+03  0.43982168767E+03  0.00000000000E+00 0.  1.
<mgrwt>
<rscale>  0 0.71782277E+03</rscale>
<asrwt>0</asrwt>
<pdfrwt beam="1">  1        4 0.32252827E-01 0.71782277E+03</pdfrwt>
<pdfrwt beam="2">  1       -4 0.94532243E-01 0.71782277E+03</pdfrwt>
<totfact> 0.17510613E+01</totfact>
</mgrwt>
</event>
<event>
 6    1  0.9562506E-007  0.2624780E+04  0.7818608E-02  0.8359832E-01
          2   -1    0    0  501    0  0.00000000000E+00  0.00000000000E+00  0.40672158165E+04  0.40672158165E+04  0.00000000000E+00 0. -1.
         -2   -1    0    0    0  501 -0.00000000000E+00 -0.00000000000E+00 -0.42347596577E+03  0.42347596577E+03  0.00000000000E+00 0.  1.
         23    2    1    2    0    0 -0.10179793074E+04 -0.66174467318E+03  0.97847394500E+03  0.15618984760E+04  0.89037662269E+02 0.  0.
         13    1    3    3    0    0 -0.61189711542E+03 -0.41310351371E+03  0.54104122608E+03  0.91531317112E+03  0.00000000000E+00 0.  1.
        -13    1    3    3    0    0 -0.40608219202E+03 -0.24864115947E+03  0.43743271892E+03  0.64658530484E+03  0.00000000000E+00 0. -1.
         22    1    1    2    0    0  0.10179793074E+04  0.66174467318E+03  0.26652659058E+04  0.29287933063E+04  0.00000000000E+00 0.  1.
<mgrwt>
<rscale>  0 0.26247805E+04</rscale>
<asrwt>0</asrwt>
<pdfrwt beam="1">  1        2 0.62572549E+00 0.26247805E+04</pdfrwt>
<pdfrwt beam="2">  1       -2 0.65150151E-01 0.26247805E+04</pdfrwt>
<totfact> 0.57930658E-01</totfact>
</mgrwt>
</event>
<event>
 6    1  0.9562506E-007  0.1339780E+04  0.7818608E-02  0.8998601E-01
          1   -1    0    0  501    0  0.00000000000E+00  0.00000000000E+00  0.69395803371E+03  0.69395803371E+03  0.00000000000E+00 0. -1.
         -1   -1    0    0    0  501 -0.00000000000E+00 -0.00000000000E+00 -0.64665689930E+03  0.64665689930E+03  0.00000000000E+00 0.  1.
         23    2    1    2    0    0 -0.40741196182E+03 -0.45200541235E+03  0.29632261206E+03  0.68311581076E+03  0.92448477846E+02 0.  0.
         11    1    3    3    0    0 -0.24968356093E+03 -0.23837742250E+03  0.20918011352E+03  0.40363596972E+03  0.00000000000E+00 0.  1.
        -11    1    3    3    0    0 -0.15772840088E+03 -0.21362798986E+03  0.87142498547E+02  0.27947984104E+03  0.00000000000E+00 0. -1.
         22    1    1    2    0    0  0.40741196182E+03  0.45200541235E+03 -0.24902147766E+03  0.65749912225E+03  0.00000000000E+00 0.  1.
<mgrwt>
<rscale>  0 0.13397802E+04</rscale>
<asrwt>0</asrwt>
<pdfrwt beam="1">  1        1 0.10676278E+00 0.13397802E+04</pdfrwt>
<pdfrwt beam="2">  1       -1 0.99485676E-01 0.13397802E+04</pdfrwt>
<totfact> 0.26093056E+01</totfact>
</mgrwt>
</event>
<event>
 6    1  0.9562506E-007  0.1248821E+04  0.7818608E-02  0.9071165E-01
          2   -1    0    0  501    0  0.00000000000E+00  0.00000000000E+00  0.41534310726E+03  0.41534310726E+03  0.00000000000E+00 0. -1.
         -2   -1    0    0    0  501 -0.00000000000E+00 -0.00000000000E+00 -0.93871441630E+03  0.93871441630E+03  0.00000000000E+00 0.  1.
         23    2    1    2    0    0  0.43884500108E+03 -0.40239355670E+03 -0.45551343920E+03  0.75479948236E+03  0.87887745614E+02 0.  0.
         11    1    3    3    0    0  0.35869294266E+03 -0.36780599628E+03 -0.40270131882E+03  0.65277119283E+03  0.00000000000E+00 0. -1.
        -11    1    3    3    0    0  0.80152058413E+02 -0.34587560424E+02 -0.52812120381E+02  0.10202828952E+03  0.00000000000E+00 0.  1.
         22    1    1    2    0    0 -0.43884500108E+03  0.40239355670E+03 -0.67857869842E+02  0.59925804120E+03  0.00000000000E+00 0.  1.
<mgrwt>
<rscale>  0 0.12488211E+04</rscale>
<asrwt>0</asrwt>
<pdfrwt beam="1">  1        2 0.63898940E-01 0.12488211E+04</pdfrwt>
<pdfrwt beam="2">  1       -2 0.14441760E+00 0.12488211E+04</pdfrwt>
<totfact> 0.24797069E+01</totfact>
</mgrwt>
</event>
<event>
 6    1  0.9562506E-007  0.3216772E+04  0.7818608E-02  0.8184402E-01
         -2   -1    0    0    0  501 -0.00000000000E+00  0.00000000000E+00  0.17698292723E+04  0.17698292723E+04  0.00000000000E+00 0.  1.
          2   -1    0    0  501    0  0.00000000000E+00 -0.00000000000E+00 -0.14616691352E+04  0.14616691352E+04  0.00000000000E+00 0. -1.
         23    2    1    2    0    0 -0.11311677770E+04  0.56039171369E+03 -0.84542257505E+03  0.15214304304E+04  0.80198576777E+02 0.  0.
         13    1    3    3    0    0 -0.27908369381E+03  0.17119763542E+03 -0.24210394273E+03  0.40719854815E+03  0.00000000000E+00 0. -1.
        -13    1    3    3    0    0 -0.85208408318E+03  0.38919407827E+03 -0.60331863232E+03  0.11142318823E+04  0.00000000000E+00 0.  1.
         22    1    1    2    0    0  0.11311677770E+04 -0.56039171369E+03  0.11535827122E+04  0.17100679771E+04  0.00000000000E+00 0.  1.
<mgrwt>
<rscale>  0 0.32167716E+04</rscale>
<asrwt>0</asrwt>
<pdfrwt beam="1">  1        2 0.22487217E+00 0.32167716E+04</pdfrwt>
<pdfrwt beam="2">  1       -2 0.27228143E+00 0.32167716E+04</pdfrwt>
<totfact> 0.52669149E-01</totfact>
</mgrwt>
</event>
<event>
 6    1  0.9562506E-007  0.2552989E+04  0.7818608E-02  0.8384347E-01
         -2   -1    0    0    0  501 -0.00000000000E+00  0.00000000000E+00  0.72660868417E+03  0.72660868417E+03  0.00000000000E+00 0.  1.
          2   -1    0    0  501    0  0.00000000000E+00 -0.00000000000E+00 -0.22425247623E+04  0.22425247623E+04  0.00000000000E+00 0. -1.
         23    2    1    2    0    0  0.10991879980E+04 -0.63973221911E+03 -0.86182310344E+03  0.15389903814E+04  0.90998709896E+02 0.  0.
         13    1    3    3    0    0  0.66404164013E+02 -0.32334046625E+02 -0.76890007549E+02  0.10661649418E+03  0.00000000000E+00 0. -1.
        -13    1    3    3    0    0  0.10327838340E+04 -0.60739817249E+03 -0.78493309589E+03  0.14323738872E+04  0.00000000000E+00 0.  1.
         22    1    1    2    0    0 -0.10991879980E+04  0.63973221911E+03 -0.65409297464E+03  0.14301430651E+04  0.00000000000E+00 0.  1.
<mgrwt>
<rscale>  0 0.25529888E+04</rscale>
<asrwt>0</asrwt>
<pdfrwt beam="1">  1        2 0.34500381E+00 0.25529888E+04</pdfrwt>
<pdfrwt beam="2">  1       -2 0.11178595E+00 0.25529888E+04</pdfrwt>
<totfact> 0.27412227E+00</totfact>
</mgrwt>
</event>
<event>
 6    1  0.9562506E-007  0.1582730E+04  0.7818608E-02  0.8831228E-01
          2   -1    0    0  501    0  0.00000000000E+00  0.00000000000E+00  0.15275929247E+04  0.15275929247E+04  0.00000000000E+00 0. -1.
         -2   -1    0    0    0  501 -0.00000000000E+00 -0.00000000000E+00 -0.40996423602E+03  0.40996423602E+03  0.00000000000E+00 0.  1.
         23    2    1    2    0    0  0.67583542178E+03 -0.38924314107E+03  0.70404708731E+03  0.10547698244E+04  0.92700275386E+02 0.  0.
         11    1    3    3    0    0  0.27767247513E+03 -0.17455330936E+03  0.35569238408E+03  0.48382634627E+03  0.00000000000E+00 0. -1.
        -11    1    3    3    0    0  0.39816294665E+03 -0.21468983172E+03  0.34835470323E+03  0.57094347811E+03  0.00000000000E+00 0.  1.
         22    1    1    2    0    0 -0.67583542178E+03  0.38924314107E+03  0.41358160135E+03  0.88278733633E+03  0.00000000000E+00 0.  1.
<mgrwt>
<rscale>  0 0.15827299E+04</rscale>
<asrwt>0</asrwt>
<pdfrwt beam="1">  1        2 0.23501429E+00 0.15827299E+04</pdfrwt>
<pdfrwt beam="2">  1       -2 0.63071422E-01 0.15827299E+04</pdfrwt>
<totfact> 0.27382929E+01</totfact>
</mgrwt>
</event>
<event>
 6    1  0.9562506E-007  0.2027782E+04  0.7818608E-02  0.8593741E-01
         -2   -1    0    0    0  501 -0.00000000000E+00  0.00000000000E+00  0.11620721299E+04  0.11620721299E+04  0.00000000000E+00 0.  1.
          2   -1    0    0  501    0  0.00000000000E+00 -0.00000000000E+00 -0.88460528990E+03  0.88460528990E+03  0.00000000000E+00 0. -1.
         23    2    1    2    0    0  0.46826185429E+03  0.19992407305E+03  0.10215239086E+04  0.11450900860E+04  0.92094571393E+02 0.  0.
         11    1    3    3    0    0  0.16445844225E+03  0.95409801563E+02  0.46696077060E+03  0.50418446102E+03  0.00000000000E+00 0.  1.
        -11    1    3    3    0    0  0.30380341205E+03  0.10451427149E+03  0.55456313799E+03  0.64090562499E+03  0.00000000000E+00 0. -1.
         22    1    1    2    0    0 -0.46826185429E+03 -0.19992407305E+03 -0.74405706858E+03  0.90158733380E+03  0.00000000000E+00 0. -1.
<mgrwt>
<rscale>  0 0.20277822E+04</rscale>
<asrwt>0</asrwt>
<pdfrwt beam="1">  1        2 0.13609312E+00 0.20277822E+04</pdfrwt>
<pdfrwt beam="2">  1       -2 0.17878033E+00 0.20277822E+04</pdfrwt>
<totfact> 0.51462054E+00</totfact>
</mgrwt>
</event>
<event>
 6    1  0.9562506E-007  0.2004579E+04  0.7818608E-02  0.8604483E-01
          1   -1    0    0  501    0  0.00000000000E+00  0.00000000000E+00  0.23871442741E+04  0.23871442741E+04  0.00000000000E+00 0. -1.
         -1   -1    0    0    0  501 -0.00000000000E+00 -0.00000000000E+00 -0.42083100180E+03  0.42083100180E+03  0.00000000000E+00 0.  1.
         23    2    1    2    0    0 -0.30774364183E+03  0.76054603234E+03  0.17865202918E+04  0.19680574631E+04  0.91972869599E+02 0.  0.
         13    1    3    3    0    0 -0.27476429123E+03  0.59838888103E+03  0.13756271279E+04  0.15250949688E+04  0.00000000000E+00 0.  1.
        -13    1    3    3    0    0 -0.32979350597E+02  0.16215715132E+03  0.41089316381E+03  0.44296249430E+03  0.00000000000E+00 0. -1.
         22    1    1    2    0    0  0.30774364183E+03 -0.76054603234E+03  0.17979298052E+03  0.83991781279E+03  0.00000000000E+00 0.  1.
<mgrwt>
<rscale>  0 0.20045791E+04</rscale>
<asrwt>0</asrwt>
<pdfrwt beam="1">  1        1 0.36725296E+00 0.20045791E+04</pdfrwt>
<pdfrwt beam="2">  1       -1 0.64743233E-01 0.20045791E+04</pdfrwt>
<totfact> 0.36379942E+00</totfact>
</mgrwt>
</event>
<event>
 6    1  0.1380045E-006  0.4442052E+04  0.7818608E-02  0.7920861E-01
          2   -1    0    0  501    0  0.00000000000E+00  0.00000000000E+00  0.28289133101E+04  0.28289133101E+04  0.00000000000E+00 0. -1.
         -2   -1    0    0    0  501 -0.00000000000E+00 -0.00000000000E+00 -0.17437637497E+04  0.17437637497E+04  0.00000000000E+00 0.  1.
         23    2    1    2    0    0 -0.15900020128E+02  0.16238205471E+04 -0.10155696988E+04  0.19174807610E+04  0.91129993825E+02 0.  0.
         11    1    3    3    0    0 -0.23783421388E+02  0.91512425715E+03 -0.62256031877E+03  0.11070679327E+04  0.00000000000E+00 0.  1.
        -11    1    3    3    0    0  0.78834012595E+01  0.70869628996E+03 -0.39300937999E+03  0.81041282824E+03  0.00000000000E+00 0. -1.
         22    1    1    2    0    0  0.15900020128E+02 -0.16238205471E+04  0.21007192592E+04  0.26551962989E+04  0.00000000000E+00 0. -1.
<mgrwt>
<rscale>  0 0.44420520E+04</rscale>
<asrwt>0</asrwt>
<pdfrwt beam="1">  1        2 0.43521743E+00 0.44420520E+04</pdfrwt>
<pdfrwt beam="2">  1       -2 0.26827135E+00 0.44420520E+04</pdfrwt>
<totfact> 0.83934318E-02</totfact>
</mgrwt>
</event>
<event>
 6    1  0.9562506E-007  0.2196201E+04  0.7818608E-02  0.8520011E-01
         -2   -1    0    0    0  501 -0.00000000000E+00  0.00000000000E+00  0.17122398085E+04  0.17122398085E+04  0.00000000000E+00 0.  1.
          2   -1    0    0  501    0  0.00000000000E+00 -0.00000000000E+00 -0.70423848271E+03  0.70423848271E+03  0.00000000000E+00 0. -1.
         23    2    1    2    0    0 -0.83204767254E+03 -0.32843597027E+03  0.11996710025E+04  0.15016500117E+04  0.12477470614E+03 0.  0.
         13    1    3    3    0    0 -0.48164096634E+03 -0.17827041686E+03  0.58595899982E+03  0.77917027116E+03  0.00000000000E+00 0.  1.
        -13    1    3    3    0    0 -0.35040670620E+03 -0.15016555340E+03  0.61371200272E+03  0.72247974052E+03  0.00000000000E+00 0. -1.
         22    1    1    2    0    0  0.83204767254E+03  0.32843597027E+03 -0.19166967680E+03  0.91482827949E+03  0.00000000000E+00 0. -1.
<mgrwt>
<rscale>  0 0.21962014E+04</rscale>
<asrwt>0</asrwt>
<pdfrwt beam="1">  1        2 0.10834438E+00 0.21962014E+04</pdfrwt>
<pdfrwt beam="2">  1       -2 0.26342151E+00 0.21962014E+04</pdfrwt>
<totfact> 0.19765174E+00</totfact>
</mgrwt>
</event>
<event>
 6    1  0.9562506E-007  0.1002816E+04  0.7818608E-02  0.9305462E-01
         -2   -1    0    0    0  501 -0.00000000000E+00  0.00000000000E+00  0.30862530881E+03  0.30862530881E+03  0.00000000000E+00 0.  1.
          2   -1    0    0  501    0  0.00000000000E+00 -0.00000000000E+00 -0.81461197842E+03  0.81461197842E+03  0.00000000000E+00 0. -1.
         23    2    1    2    0    0  0.14392011430E+03 -0.30992014888E+03  0.14968770667E+03  0.38386431931E+03  0.90453900599E+02 0.  0.
         11    1    3    3    0    0  0.54507476750E+02 -0.20846904728E+03  0.68348101604E+02  0.22605723101E+03  0.00000000000E+00 0. -1.
        -11    1    3    3    0    0  0.89412637550E+02 -0.10145110160E+03  0.81339605064E+02  0.15780708831E+03  0.00000000000E+00 0.  1.
         22    1    1    2    0    0 -0.14392011430E+03  0.30992014888E+03 -0.65567437628E+03  0.73937296792E+03  0.00000000000E+00 0.  1.
<mgrwt>
<rscale>  0 0.10028158E+04</rscale>
<asrwt>0</asrwt>
<pdfrwt beam="1">  1        2 0.12532492E+00 0.10028158E+04</pdfrwt>
<pdfrwt beam="2">  1       -2 0.47480817E-01 0.10028158E+04</pdfrwt>
<totfact> 0.14106095E+02</totfact>
</mgrwt>
</event>
<event>
 6    1  0.9562506E-007  0.3256255E+04  0.7818608E-02  0.8174116E-01
         -2   -1    0    0    0  501 -0.00000000000E+00  0.00000000000E+00  0.15137506009E+04  0.15137506009E+04  0.00000000000E+00 0.  1.
          2   -1    0    0  501    0  0.00000000000E+00 -0.00000000000E+00 -0.17511463471E+04  0.17511463471E+04  0.00000000000E+00 0. -1.
         23    2    1    2    0    0  0.26159571436E+03 -0.16045926340E+04 -0.17887564905E+03  0.16380673808E+04  0.90102204477E+02 0.  0.
         11    1    3    3    0    0  0.22232655857E+03 -0.12180746656E+04 -0.16669587927E+03  0.12493688430E+04  0.00000000000E+00 0. -1.
        -11    1    3    3    0    0  0.39269155786E+02 -0.38651796836E+03 -0.12179769773E+02  0.38869853775E+03  0.00000000000E+00 0.  1.
         22    1    1    2    0    0 -0.26159571436E+03  0.16045926340E+04 -0.58520097169E+02  0.16268295672E+04  0.00000000000E+00 0.  1.
<mgrwt>
<rscale>  0 0.32562548E+04</rscale>
<asrwt>0</asrwt>
<pdfrwt beam="1">  1        2 0.26940713E+00 0.32562548E+04</pdfrwt>
<pdfrwt beam="2">  1       -2 0.23288471E+00 0.32562548E+04</pdfrwt>
<totfact> 0.63150578E-01</totfact>
</mgrwt>
</event>
<event>
 6    1  0.9562506E-007  0.2697380E+04  0.7818608E-02  0.8335855E-01
          2   -1    0    0  501    0  0.00000000000E+00  0.00000000000E+00  0.29142207206E+04  0.29142207206E+04  0.00000000000E+00 0. -1.
         -2   -1    0    0    0  501 -0.00000000000E+00 -0.00000000000E+00 -0.62416863524E+03  0.62416863524E+03  0.00000000000E+00 0.  1.
         23    2    1    2    0    0 -0.73729467586E+03 -0.10352962486E+04  0.56069270016E+03  0.13922007237E+04  0.91677639665E+02 0.  0.
         13    1    3    3    0    0 -0.17119141354E+03 -0.27478819177E+03  0.18107479680E+03  0.37094896205E+03  0.00000000000E+00 0. -1.
        -13    1    3    3    0    0 -0.56610326232E+03 -0.76050805687E+03  0.37961790336E+03  0.10212517617E+04  0.00000000000E+00 0.  1.
         22    1    1    2    0    0  0.73729467586E+03  0.10352962486E+04  0.17293593852E+04  0.21461886321E+04  0.00000000000E+00 0. -1.
<mgrwt>
<rscale>  0 0.26973803E+04</rscale>
<asrwt>0</asrwt>
<pdfrwt beam="1">  1        2 0.44834164E+00 0.26973803E+04</pdfrwt>
<pdfrwt beam="2">  1       -2 0.96025945E-01 0.26973803E+04</pdfrwt>
<totfact> 0.15697264E+00</totfact>
</mgrwt>
</event>
<event>
 6    1  0.9562506E-007  0.3855726E+04  0.7818608E-02  0.8034301E-01
          2   -1    0    0  501    0  0.00000000000E+00  0.00000000000E+00  0.22943906620E+04  0.22943906620E+04  0.00000000000E+00 0. -1.
         -2   -1    0    0    0  501 -0.00000000000E+00 -0.00000000000E+00 -0.16198882864E+04  0.16198882864E+04  0.00000000000E+00 0.  1.
         23    2    1    2    0    0  0.15354547558E+04 -0.35483707396E+03  0.14628168788E+04  0.21521863254E+04  0.92423494525E+02 0.  0.
         13    1    3    3    0    0  0.12387012284E+04 -0.32291529060E+03  0.11785566174E+04  0.17400145743E+04  0.00000000000E+00 0. -1.
        -13    1    3    3    0    0  0.29675352738E+03 -0.31921783359E+02  0.28426026141E+03  0.41217175119E+03  0.00000000000E+00 0.  1.
         22    1    1    2    0    0 -0.15354547558E+04  0.35483707396E+03 -0.78831450317E+03  0.17620926230E+04  0.00000000000E+00 0.  1.
<mgrwt>
<rscale>  0 0.38557264E+04</rscale>
<asrwt>0</asrwt>
<pdfrwt beam="1">  1        2 0.35298318E+00 0.38557264E+04</pdfrwt>
<pdfrwt beam="2">  1       -2 0.24921358E+00 0.38557264E+04</pdfrwt>
<totfact> 0.23688676E-01</totfact>
</mgrwt>
</event>
<event>
 6    1  0.9562506E-007  0.1232707E+04  0.7818608E-02  0.9084700E-01
         -1   -1    0    0    0  501 -0.00000000000E+00  0.00000000000E+00  0.27385043394E+03  0.27385043394E+03  0.00000000000E+00 0.  1.
          1   -1    0    0  501    0  0.00000000000E+00 -0.00000000000E+00 -0.13872235394E+04  0.13872235394E+04  0.00000000000E+00 0. -1.
         23    2    1    2    0    0 -0.10768978553E+03 -0.58277945514E+03 -0.77030874055E+03  0.97629507348E+03  0.92452860941E+02 0.  0.
         13    1    3    3    0    0 -0.25486051802E+02 -0.35863474781E+03 -0.42837693115E+03  0.55926310115E+03  0.00000000000E+00 0.  1.
        -13    1    3    3    0    0 -0.82203733725E+02 -0.22414470733E+03 -0.34193180939E+03  0.41703197232E+03  0.00000000000E+00 0. -1.
         22    1    1    2    0    0  0.10768978553E+03  0.58277945514E+03 -0.34306436491E+03  0.68477889987E+03  0.00000000000E+00 0. -1.
<mgrwt>
<rscale>  0 0.12327072E+04</rscale>
<asrwt>0</asrwt>
<pdfrwt beam="1">  1        1 0.21341900E+00 0.12327072E+04</pdfrwt>
<pdfrwt beam="2">  1       -1 0.42130837E-01 0.12327072E+04</pdfrwt>
<totfact> 0.42859711E+01</totfact>
</mgrwt>
</event>
<event>
 6    1  0.9562506E-007  0.7388038E+03  0.7818608E-02  0.9653081E-01
          2   -1    0    0  501    0  0.00000000000E+00  0.00000000000E+00  0.12975178518E+04  0.12975178518E+04  0.00000000000E+00 0. -1.
         -2   -1    0    0    0  501 -0.00000000000E+00 -0.00000000000E+00 -0.10516831515E+03  0.10516831515E+03  0.00000000000E+00 0.  1.
         23    2    1    2    0    0  0.17900463500E+03  0.17448667823E+03  0.11064235869E+04  0.11383539345E+04  0.95855445542E+02 0.  0.
         11    1    3    3    0    0  0.73615075698E+02  0.84769904286E+02  0.70155058207E+03  0.71047754028E+03  0.00000000000E+00 0. -1.
        -11    1    3    3    0    0  0.10538955930E+03  0.89716773940E+02  0.40487300482E+03  0.42787639426E+03  0.00000000000E+00 0.  1.
         22    1    1    2    0    0 -0.17900463500E+03 -0.17448667823E+03  0.85925949724E+02  0.26433223236E+03  0.00000000000E+00 0.  1.
<mgrwt>
<rscale>  0 0.73880381E+03</rscale>
<asrwt>0</asrwt>
<pdfrwt beam="1">  1        2 0.19961812E+00 0.73880381E+03</pdfrwt>
<pdfrwt beam="2">  1       -2 0.16179742E-01 0.73880381E+03</pdfrwt>
<totfact> 0.51578173E+02</totfact>
</mgrwt>
</event>
<event>
 6    1  0.9562506E-007  0.4231110E+04  0.7818608E-02  0.7959481E-01
         -1   -1    0    0    0  501 -0.00000000000E+00  0.00000000000E+00  0.11441924122E+04  0.11441924122E+04  0.00000000000E+00 0.  1.
          1   -1    0    0  501    0  0.00000000000E+00 -0.00000000000E+00 -0.39115555855E+04  0.39115555855E+04  0.00000000000E+00 0. -1.
         23    2    1    2    0    0 -0.11238460147E+04 -0.16164489575E+04 -0.23064467541E+04  0.30337734571E+04  0.90264402577E+02 0.  0.
         13    1    3    3    0    0 -0.40446549994E+03 -0.51732785111E+03 -0.73597958682E+03  0.98635003847E+03  0.00000000000E+00 0. -1.
        -13    1    3    3    0    0 -0.71938051476E+03 -0.10991211064E+04 -0.15704671673E+04  0.20474234187E+04  0.00000000000E+00 0.  1.
         22    1    1    2    0    0  0.11238460147E+04  0.16164489575E+04 -0.46091641917E+03  0.20219745405E+04  0.00000000000E+00 0.  1.
<mgrwt>
<rscale>  0 0.42311097E+04</rscale>
<asrwt>0</asrwt>
<pdfrwt beam="1">  1        1 0.60177778E+00 0.42311097E+04</pdfrwt>
<pdfrwt beam="2">  1       -1 0.17602960E+00 0.42311097E+04</pdfrwt>
<totfact> 0.19504751E-02</totfact>
</mgrwt>
</event>
<event>
 6    1  0.9562506E-007  0.2342684E+04  0.7818608E-02  0.8461279E-01
          2   -1    0    0  501    0  0.00000000000E+00  0.00000000000E+00  0.83675500808E+03  0.83675500808E+03  0.00000000000E+00 0. -1.
         -2   -1    0    0    0  501 -0.00000000000E+00 -0.00000000000E+00 -0.16397183178E+04  0.16397183178E+04  0.00000000000E+00 0.  1.
         23    2    1    2    0    0 -0.77125096305E+03  0.54782910790E+03 -0.11289500241E+04  0.14758674507E+04  0.93337000639E+02 0.  0.
         13    1    3    3    0    0 -0.59802727727E+03  0.41281297459E+03 -0.92357169363E+03  0.11751748166E+04  0.00000000000E+00 0. -1.
        -13    1    3    3    0    0 -0.17322368577E+03  0.13501613331E+03 -0.20537833046E+03  0.30069263408E+03  0.00000000000E+00 0.  1.
         22    1    1    2    0    0  0.77125096305E+03 -0.54782910790E+03  0.32598671438E+03  0.10006058752E+04  0.00000000000E+00 0. -1.
<mgrwt>
<rscale>  0 0.23426844E+04</rscale>
<asrwt>0</asrwt>
<pdfrwt beam="1">  1        2 0.12873154E+00 0.23426844E+04</pdfrwt>
<pdfrwt beam="2">  1       -2 0.25226435E+00 0.23426844E+04</pdfrwt>
<totfact> 0.18228563E+00</totfact>
</mgrwt>
</event>
<event>
 6    1  0.9562506E-007  0.1919568E+04  0.7818608E-02  0.8645177E-01
          2   -1    0    0  501    0  0.00000000000E+00  0.00000000000E+00  0.18406536482E+04  0.18406536482E+04  0.00000000000E+00 0. -1.
         -2   -1    0    0    0  501 -0.00000000000E+00 -0.00000000000E+00 -0.50046649139E+03  0.50046649139E+03  0.00000000000E+00 0.  1.
         23    2    1    2    0    0 -0.73256194810E+03 -0.17785621611E+03  0.13920343134E+04  0.15854959148E+04  0.88079083370E+02 0.  0.
         11    1    3    3    0    0 -0.31855166661E+03 -0.34944612143E+02  0.55914263602E+03  0.64446627346E+03  0.00000000000E+00 0. -1.
        -11    1    3    3    0    0 -0.41401028149E+03 -0.14291160397E+03  0.83289167735E+03  0.94102964136E+03  0.00000000000E+00 0.  1.
         22    1    1    2    0    0  0.73256194810E+03  0.17785621611E+03 -0.51847156552E+02  0.75562422477E+03  0.00000000000E+00 0.  1.
<mgrwt>
<rscale>  0 0.19195682E+04</rscale>
<asrwt>0</asrwt>
<pdfrwt beam="1">  1        2 0.28317748E+00 0.19195682E+04</pdfrwt>
<pdfrwt beam="2">  1       -2 0.76994846E-01 0.19195682E+04</pdfrwt>
<totfact> 0.11536554E+01</totfact>
</mgrwt>
</event>
<event>
 6    1  0.9562506E-007  0.2570192E+04  0.7818608E-02  0.8378397E-01
          2   -1    0    0  501    0  0.00000000000E+00  0.00000000000E+00  0.38395152828E+04  0.38395152828E+04  0.00000000000E+00 0. -1.
         -2   -1    0    0    0  501 -0.00000000000E+00 -0.00000000000E+00 -0.43012505330E+03  0.43012505330E+03  0.00000000000E+00 0.  1.
         23    2    1    2    0    0 -0.70789251456E+03 -0.21636142695E+03  0.34488131475E+04  0.35283723376E+04  0.84706240831E+02 0.  0.
         11    1    3    3    0    0 -0.17036544661E+03 -0.62525435192E+02  0.10218867145E+04  0.10378758465E+04  0.00000000000E+00 0.  1.
        -11    1    3    3    0    0 -0.53752706795E+03 -0.15383599176E+03  0.24269264330E+04  0.24904964911E+04  0.00000000000E+00 0. -1.
         22    1    1    2    0    0  0.70789251456E+03  0.21636142695E+03 -0.39422917913E+02  0.74126799856E+03  0.00000000000E+00 0.  1.
<mgrwt>
<rscale>  0 0.25701920E+04</rscale>
<asrwt>0</asrwt>
<pdfrwt beam="1">  1        2 0.59069464E+00 0.25701920E+04</pdfrwt>
<pdfrwt beam="2">  1       -2 0.66173088E-01 0.25701920E+04</pdfrwt>
<totfact> 0.85495433E-01</totfact>
</mgrwt>
</event>
<event>
 6    1  0.9562506E-007  0.1982231E+04  0.7818608E-02  0.8614974E-01
         -1   -1    0    0    0  501 -0.00000000000E+00  0.00000000000E+00  0.42022076300E+03  0.42022076300E+03  0.00000000000E+00 0.  1.
          1   -1    0    0  501    0  0.00000000000E+00 -0.00000000000E+00 -0.23376045529E+04  0.23376045529E+04  0.00000000000E+00 0. -1.
         23    2    1    2    0    0  0.69203034949E+03 -0.69968953522E+03 -0.10945496541E+04  0.14750441711E+04  0.96150461304E+02 0.  0.
         11    1    3    3    0    0  0.22932417436E+03 -0.26998247074E+03 -0.33829217859E+03  0.48981803718E+03  0.00000000000E+00 0. -1.
        -11    1    3    3    0    0  0.46270617513E+03 -0.42970706448E+03 -0.75625747553E+03  0.98522613397E+03  0.00000000000E+00 0.  1.
         22    1    1    2    0    0 -0.69203034949E+03  0.69968953522E+03 -0.82283413578E+03  0.12827811447E+04  0.00000000000E+00 0. -1.
<mgrwt>
<rscale>  0 0.19822310E+04</rscale>
<asrwt>0</asrwt>
<pdfrwt beam="1">  1        1 0.35963147E+00 0.19822310E+04</pdfrwt>
<pdfrwt beam="2">  1       -1 0.64649348E-01 0.19822310E+04</pdfrwt>
<totfact> 0.39539684E+00</totfact>
</mgrwt>
</event>
<event>
 6    1  0.9562506E-007  0.2888405E+04  0.7818608E-02  0.8276336E-01
         -2   -1    0    0    0  501 -0.00000000000E+00  0.00000000000E+00  0.97360684371E+03  0.97360684371E+03  0.00000000000E+00 0.  1.
          2   -1    0    0  501    0  0.00000000000E+00 -0.00000000000E+00 -0.21422613176E+04  0.21422613176E+04  0.00000000000E+00 0. -1.
         23    2    1    2    0    0  0.35459737240E+03  0.40910776044E+03 -0.20276060728E+04  0.21005325983E+04  0.89119884944E+02 0.  0.
         11    1    3    3    0    0  0.55269504251E+02  0.27521516498E+02 -0.29100091491E+03  0.29747888068E+03  0.00000000000E+00 0.  1.
        -11    1    3    3    0    0  0.29932786814E+03  0.38158624395E+03 -0.17366051579E+04  0.18030537176E+04  0.00000000000E+00 0. -1.
         22    1    1    2    0    0 -0.35459737240E+03 -0.40910776044E+03  0.85895159893E+03  0.10153355630E+04  0.00000000000E+00 0.  1.
<mgrwt>
<rscale>  0 0.28884046E+04</rscale>
<asrwt>0</asrwt>
<pdfrwt beam="1">  1        2 0.32957866E+00 0.28884046E+04</pdfrwt>
<pdfrwt beam="2">  1       -2 0.14978567E+00 0.28884046E+04</pdfrwt>
<totfact> 0.14457064E+00</totfact>
</mgrwt>
</event>
<event>
 6    1  0.9562506E-007  0.4796122E+04  0.7818608E-02  0.7860751E-01
          2   -1    0    0  501    0  0.00000000000E+00  0.00000000000E+00  0.16302019332E+04  0.16302019332E+04  0.00000000000E+00 0. -1.
         -2   -1    0    0    0  501 -0.00000000000E+00 -0.00000000000E+00 -0.35275975116E+04  0.35275975116E+04  0.00000000000E+00 0.  1.
         23    2    1    2    0    0  0.53068126467E+03  0.12564211978E+04 -0.30691150201E+04  0.33597050977E+04  0.89075844050E+02 0.  0.
         13    1    3    3    0    0  0.31334553432E+03  0.77529954411E+03 -0.19817688086E+04  0.21509724353E+04  0.00000000000E+00 0. -1.
        -13    1    3    3    0    0  0.21733573035E+03  0.48112165372E+03 -0.10873462115E+04  0.12087326624E+04  0.00000000000E+00 0.  1.
         22    1    1    2    0    0 -0.53068126467E+03 -0.12564211978E+04  0.11717194417E+04  0.17980943471E+04  0.00000000000E+00 0. -1.
<mgrwt>
<rscale>  0 0.47961219E+04</rscale>
<asrwt>0</asrwt>
<pdfrwt beam="1">  1        2 0.25080030E+00 0.47961219E+04</pdfrwt>
<pdfrwt beam="2">  1       -2 0.54270730E+00 0.47961219E+04</pdfrwt>
<totfact> 0.74583933E-03</totfact>
</mgrwt>
</event>
<event>
 6    1  0.9562506E-007  0.3483154E+04  0.7818608E-02  0.8117794E-01
         -2   -1    0    0    0  501 -0.00000000000E+00  0.00000000000E+00  0.19619643858E+04  0.19619643858E+04  0.00000000000E+00 0.  1.
          2   -1    0    0  501    0  0.00000000000E+00 -0.00000000000E+00 -0.15459459594E+04  0.15459459594E+04  0.00000000000E+00 0. -1.
         23    2    1    2    0    0 -0.41688979057E+03 -0.15384713357E+04 -0.49602785196E+03  0.16714682520E+04  0.84091255598E+02 0.  0.
         13    1    3    3    0    0 -0.20783090164E+03 -0.70834261697E+03 -0.27059257436E+03  0.78623360905E+03  0.00000000000E+00 0. -1.
        -13    1    3    3    0    0 -0.20905888893E+03 -0.83012871870E+03 -0.22543527760E+03  0.88523464292E+03  0.00000000000E+00 0.  1.
         22    1    1    2    0    0  0.41688979057E+03  0.15384713357E+04  0.91204627832E+03  0.18364420933E+04  0.00000000000E+00 0. -1.
<mgrwt>
<rscale>  0 0.34831543E+04</rscale>
<asrwt>0</asrwt>
<pdfrwt beam="1">  1        2 0.23783784E+00 0.34831543E+04</pdfrwt>
<pdfrwt beam="2">  1       -2 0.30184067E+00 0.34831543E+04</pdfrwt>
<totfact> 0.30470954E-01</totfact>
</mgrwt>
</event>
<event>
 6    1  0.9562506E-007  0.2092972E+04  0.7818608E-02  0.8564345E-01
         -2   -1    0    0    0  501 -0.00000000000E+00  0.00000000000E+00  0.67715046590E+03  0.67715046590E+03  0.00000000000E+00 0.  1.
          2   -1    0    0  501    0  0.00000000000E+00 -0.00000000000E+00 -0.16172673247E+04  0.16172673247E+04  0.00000000000E+00 0. -1.
         23    2    1    2    0    0  0.88697688499E+03 -0.32910772994E+03  0.14602829077E+02  0.95034577808E+03  0.88904234312E+02 0.  0.
         11    1    3    3    0    0  0.57050481386E+03 -0.20178160113E+03 -0.32363391204E+02  0.60600243092E+03  0.00000000000E+00 0.  1.
        -11    1    3    3    0    0  0.31647207113E+03 -0.12732612881E+03  0.46966220281E+02  0.34434334716E+03  0.00000000000E+00 0. -1.
         22    1    1    2    0    0 -0.88697688499E+03  0.32910772994E+03 -0.95471968784E+03  0.13440720125E+04  0.00000000000E+00 0. -1.
<mgrwt>
<rscale>  0 0.20929724E+04</rscale>
<asrwt>0</asrwt>
<pdfrwt beam="1">  1        2 0.24881035E+00 0.20929724E+04</pdfrwt>
<pdfrwt beam="2">  1       -2 0.10417700E+00 0.20929724E+04</pdfrwt>
<totfact> 0.75341322E+00</totfact>
</mgrwt>
</event>
<event>
 6    1  0.9562506E-007  0.5222829E+03  0.7818608E-02  0.1008121E+00
          3   -1    0    0  501    0  0.00000000000E+00  0.00000000000E+00  0.68962909108E+03  0.68962909108E+03  0.00000000000E+00 0. -1.
         -3   -1    0    0    0  501 -0.00000000000E+00 -0.00000000000E+00 -0.98886290641E+02  0.98886290641E+02  0.00000000000E+00 0.  1.
         23    2    1    2    0    0  0.10861209223E+03 -0.11976097105E+03  0.59953260276E+03  0.62660016505E+03  0.83959206154E+02 0.  0.
         13    1    3    3    0    0  0.99063797618E+02 -0.50864961531E+02  0.33223040113E+03  0.35039680328E+03  0.00000000000E+00 0. -1.
        -13    1    3    3    0    0  0.95482946137E+01 -0.68896009520E+02  0.26730220163E+03  0.27620336177E+03  0.00000000000E+00 0.  1.
         22    1    1    2    0    0 -0.10861209223E+03  0.11976097105E+03 -0.87898023210E+01  0.16191521667E+03  0.00000000000E+00 0.  1.
<mgrwt>
<rscale>  0 0.52228292E+03</rscale>
<asrwt>0</asrwt>
<pdfrwt beam="1">  1        3 0.10609678E+00 0.52228292E+03</pdfrwt>
<pdfrwt beam="2">  1       -3 0.15213276E-01 0.52228292E+03</pdfrwt>
<totfact> 0.74463283E+01</totfact>
</mgrwt>
</event>
<event>
 6    1  0.9562506E-007  0.3343288E+04  0.7818608E-02  0.8151967E-01
         -2   -1    0    0    0  501 -0.00000000000E+00  0.00000000000E+00  0.12402513627E+04  0.12402513627E+04  0.00000000000E+00 0.  1.
          2   -1    0    0  501    0  0.00000000000E+00 -0.00000000000E+00 -0.22530870769E+04  0.22530870769E+04  0.00000000000E+00 0. -1.
         23    2    1    2    0    0  0.11903406437E+04  0.11271773541E+04 -0.84356838849E+03  0.18452816859E+04  0.77570860689E+02 0.  0.
         13    1    3    3    0    0  0.28237772647E+03  0.25468862054E+03 -0.23146020508E+03  0.44517109112E+03  0.00000000000E+00 0. -1.
        -13    1    3    3    0    0  0.90796291727E+03  0.87248873355E+03 -0.61210818340E+03  0.14001105947E+04  0.00000000000E+00 0.  1.
         22    1    1    2    0    0 -0.11903406437E+04 -0.11271773541E+04 -0.16926732572E+03  0.16480567536E+04  0.00000000000E+00 0. -1.
<mgrwt>
<rscale>  0 0.33432884E+04</rscale>
<asrwt>0</asrwt>
<pdfrwt beam="1">  1        2 0.34662878E+00 0.33432884E+04</pdfrwt>
<pdfrwt beam="2">  1       -2 0.19080790E+00 0.33432884E+04</pdfrwt>
<totfact> 0.61404228E-01</totfact>
</mgrwt>
</event>
<event>
 6    1  0.9562506E-007  0.1773119E+04  0.7818608E-02  0.8720727E-01
         -2   -1    0    0    0  501 -0.00000000000E+00  0.00000000000E+00  0.26386494037E+03  0.26386494037E+03  0.00000000000E+00 0.  1.
          2   -1    0    0  501    0  0.00000000000E+00 -0.00000000000E+00 -0.29787494596E+04  0.29787494596E+04  0.00000000000E+00 0. -1.
         23    2    1    2    0    0  0.87243775897E+03  0.12973237027E+03 -0.12465735507E+04  0.15297468536E+04  0.90563168789E+02 0.  0.
         11    1    3    3    0    0  0.58304386384E+03  0.11247759111E+03 -0.89491333044E+03  0.10739931213E+04  0.00000000000E+00 0. -1.
        -11    1    3    3    0    0  0.28939389513E+03  0.17254779168E+02 -0.35166022028E+03  0.45575373226E+03  0.00000000000E+00 0.  1.
         22    1    1    2    0    0 -0.87243775897E+03 -0.12973237027E+03 -0.14683109685E+04  0.17128675464E+04  0.00000000000E+00 0.  1.
<mgrwt>
<rscale>  0 0.17731188E+04</rscale>
<asrwt>0</asrwt>
<pdfrwt beam="1">  1        2 0.45826918E+00 0.17731188E+04</pdfrwt>
<pdfrwt beam="2">  1       -2 0.40594604E-01 0.17731188E+04</pdfrwt>
<totfact> 0.97974598E+00</totfact>
</mgrwt>
</event>
<event>
 6    1  0.9562506E-007  0.1247248E+04  0.7818608E-02  0.9072477E-01
         -2   -1    0    0    0  501 -0.00000000000E+00  0.00000000000E+00  0.28925029248E+03  0.28925029248E+03  0.00000000000E+00 0.  1.
          2   -1    0    0  501    0  0.00000000000E+00 -0.00000000000E+00 -0.13445335256E+04  0.13445335256E+04  0.00000000000E+00 0. -1.
         23    2    1    2    0    0  0.57172445243E+03  0.20608079441E+03 -0.69437118148E+03  0.92696301167E+03  0.88152958016E+02 0.  0.
         11    1    3    3    0    0  0.23166545023E+03  0.76572883232E+02 -0.21558341528E+03  0.32558945963E+03  0.00000000000E+00 0. -1.
        -11    1    3    3    0    0  0.34005900220E+03  0.12950791118E+03 -0.47878776620E+03  0.60137355204E+03  0.00000000000E+00 0.  1.
         22    1    1    2    0    0 -0.57172445243E+03 -0.20608079441E+03 -0.36091205159E+03  0.70682080636E+03  0.00000000000E+00 0. -1.
<mgrwt>
<rscale>  0 0.12472477E+04</rscale>
<asrwt>0</asrwt>
<pdfrwt beam="1">  1        2 0.20685131E+00 0.12472477E+04</pdfrwt>
<pdfrwt beam="2">  1       -2 0.44500046E-01 0.12472477E+04</pdfrwt>
<totfact> 0.73338615E+01</totfact>
</mgrwt>
</event>
<event>
 6    1  0.9562506E-007  0.2045523E+04  0.7818608E-02  0.8585628E-01
         -2   -1    0    0    0  501 -0.00000000000E+00  0.00000000000E+00  0.23168232750E+04  0.23168232750E+04  0.00000000000E+00 0.  1.
          2   -1    0    0  501    0  0.00000000000E+00 -0.00000000000E+00 -0.45149821706E+03  0.45149821706E+03  0.00000000000E+00 0. -1.
         23    2    1    2    0    0  0.53763982237E+03  0.60294317527E+03  0.90460723438E+02  0.81825983737E+03  0.93642766728E+02 0.  0.
         13    1    3    3    0    0  0.17297112373E+03  0.17951521361E+03  0.70595559827E+02  0.25909159506E+03  0.00000000000E+00 0.  1.
        -13    1    3    3    0    0  0.36466869864E+03  0.42342796166E+03  0.19865163611E+02  0.55916824231E+03  0.00000000000E+00 0. -1.
         22    1    1    2    0    0 -0.53763982237E+03 -0.60294317527E+03  0.17748643345E+04  0.19500616547E+04  0.00000000000E+00 0.  1.
<mgrwt>
<rscale>  0 0.20455235E+04</rscale>
<asrwt>0</asrwt>
<pdfrwt beam="1">  1        2 0.69461265E-01 0.20455235E+04</pdfrwt>
<pdfrwt beam="2">  1       -2 0.35643434E+00 0.20455235E+04</pdfrwt>
<totfact> 0.91061922E-01</totfact>
</mgrwt>
</event>
<event>
 6    1  0.9562506E-007  0.4115820E+04  0.7818608E-02  0.7981581E-01
         -2   -1    0    0    0  501 -0.00000000000E+00  0.00000000000E+00  0.94397762764E+03  0.94397762764E+03  0.00000000000E+00 0.  1.
          2   -1    0    0  501    0  0.00000000000E+00 -0.00000000000E+00 -0.44863293150E+04  0.44863293150E+04  0.00000000000E+00 0. -1.
         23    2    1    2    0    0  0.59955794812E+02 -0.17733304445E+04 -0.39935047932E+03  0.18210477172E+04  0.91860873183E+02 0.  0.
         13    1    3    3    0    0  0.41329397519E+02 -0.73442061179E+03 -0.12241126620E+03  0.74569851295E+03  0.00000000000E+00 0.  1.
        -13    1    3    3    0    0  0.18626397293E+02 -0.10389098328E+04 -0.27693921312E+03  0.10753492042E+04  0.00000000000E+00 0. -1.
         22    1    1    2    0    0 -0.59955794812E+02  0.17733304445E+04 -0.31430012081E+04  0.36092592255E+04  0.00000000000E+00 0. -1.
<mgrwt>
<rscale>  0 0.41158205E+04</rscale>
<asrwt>0</asrwt>
<pdfrwt beam="1">  1        2 0.69020452E+00 0.41158205E+04</pdfrwt>
<pdfrwt beam="2">  1       -2 0.14522732E+00 0.41158205E+04</pdfrwt>
<totfact> 0.32131191E-02</totfact>
</mgrwt>
</event>
<event>
 6    1  0.9562506E-007  0.9949324E+03  0.7818608E-02  0.9314120E-01
          1   -1    0    0  501    0  0.00000000000E+00  0.00000000000E+00  0.71331895943E+03  0.71331895943E+03  0.00000000000E+00 0. -1.
         -1   -1    0    0    0  501 -0.00000000000E+00 -0.00000000000E+00 -0.34693125462E+03  0.34693125462E+03  0.00000000000E+00 0.  1.
         23    2    1    2    0    0  0.13452595588E+03 -0.26163579789E+03  0.60646510882E+03  0.68052968069E+03  0.93649316799E+02 0.  0.
         11    1    3    3    0    0  0.12017418117E+03 -0.15939002425E+03  0.33331679720E+03  0.38851911271E+03  0.00000000000E+00 0. -1.
        -11    1    3    3    0    0  0.14351774705E+02 -0.10224577363E+03  0.27314831163E+03  0.29201056797E+03  0.00000000000E+00 0.  1.
         22    1    1    2    0    0 -0.13452595588E+03  0.26163579789E+03 -0.24007740401E+03  0.37972053336E+03  0.00000000000E+00 0.  1.
<mgrwt>
<rscale>  0 0.99493244E+03</rscale>
<asrwt>0</asrwt>
<pdfrwt beam="1">  1        1 0.10974138E+00 0.99493244E+03</pdfrwt>
<pdfrwt beam="2">  1       -1 0.53374039E-01 0.99493244E+03</pdfrwt>
<totfact> 0.93992215E+01</totfact>
</mgrwt>
</event>
<event>
 6    1  0.9562506E-007  0.4629658E+04  0.7818608E-02  0.7888323E-01
          2   -1    0    0  501    0  0.00000000000E+00  0.00000000000E+00  0.18385530721E+04  0.18385530721E+04  0.00000000000E+00 0. -1.
         -2   -1    0    0    0  501 -0.00000000000E+00 -0.00000000000E+00 -0.29144837016E+04  0.29144837016E+04  0.00000000000E+00 0.  1.
         23    2    1    2    0    0  0.89292032591E+03  0.92362092523E+03  0.14375788243E+04  0.19302523157E+04  0.94121220798E+02 0.  0.
         13    1    3    3    0    0  0.34995062955E+03  0.42704742698E+03  0.63301202814E+03  0.83996379433E+03  0.00000000000E+00 0. -1.
        -13    1    3    3    0    0  0.54296969636E+03  0.49657349825E+03  0.80456679619E+03  0.10902885214E+04  0.00000000000E+00 0.  1.
         22    1    1    2    0    0 -0.89292032591E+03 -0.92362092523E+03 -0.25135094538E+04  0.28227844580E+04  0.00000000000E+00 0.  1.
<mgrwt>
<rscale>  0 0.46296579E+04</rscale>
<asrwt>0</asrwt>
<pdfrwt beam="1">  1        2 0.28285432E+00 0.46296579E+04</pdfrwt>
<pdfrwt beam="2">  1       -2 0.44838211E+00 0.46296579E+04</pdfrwt>
<totfact> 0.21945855E-02</totfact>
</mgrwt>
</event>
<event>
 6    1  0.9562506E-007  0.5100270E+04  0.7818608E-02  0.7813223E-01
         -1   -1    0    0    0  501 -0.00000000000E+00  0.00000000000E+00  0.17224354171E+04  0.17224354171E+04  0.00000000000E+00 0.  1.
          1   -1    0    0  501    0  0.00000000000E+00 -0.00000000000E+00 -0.37755770224E+04  0.37755770224E+04  0.00000000000E+00 0. -1.
         23    2    1    2    0    0  0.12467883880E+04  0.22033941441E+04 -0.70349603817E+03  0.26290456925E+04  0.86876573400E+02 0.  0.
         13    1    3    3    0    0  0.62362655591E+03  0.11361335719E+04 -0.40167725954E+03  0.13568545225E+04  0.00000000000E+00 0. -1.
        -13    1    3    3    0    0  0.62316183205E+03  0.10672605722E+04 -0.30181877863E+03  0.12721911700E+04  0.00000000000E+00 0.  1.
         22    1    1    2    0    0 -0.12467883880E+04 -0.22033941441E+04 -0.13496455671E+04  0.28689667470E+04  0.00000000000E+00 0. -1.
<mgrwt>
<rscale>  0 0.51002696E+04</rscale>
<asrwt>0</asrwt>
<pdfrwt beam="1">  1        1 0.58085800E+00 0.51002696E+04</pdfrwt>
<pdfrwt beam="2">  1       -1 0.26499007E+00 0.51002696E+04</pdfrwt>
<totfact> 0.59454917E-03</totfact>
</mgrwt>
</event>
<event>
 6    1  0.9562506E-007  0.2336507E+04  0.7818608E-02  0.8463665E-01
         -2   -1    0    0    0  501 -0.00000000000E+00  0.00000000000E+00  0.10518681533E+04  0.10518681533E+04  0.00000000000E+00 0.  1.
          2   -1    0    0  501    0  0.00000000000E+00 -0.00000000000E+00 -0.12975161579E+04  0.12975161579E+04  0.00000000000E+00 0. -1.
         23    2    1    2    0    0  0.87179963668E+03  0.77477496906E+03 -0.10885285730E+03  0.11750658827E+04  0.92844089626E+02 0.  0.
         13    1    3    3    0    0  0.23229987369E+03  0.18839185892E+03 -0.66475550193E+02  0.30638818938E+03  0.00000000000E+00 0. -1.
        -13    1    3    3    0    0  0.63949976299E+03  0.58638311014E+03 -0.42377307104E+02  0.86867769332E+03  0.00000000000E+00 0.  1.
         22    1    1    2    0    0 -0.87179963668E+03 -0.77477496906E+03 -0.13679514722E+03  0.11743184285E+04  0.00000000000E+00 0. -1.
<mgrwt>
<rscale>  0 0.23365067E+04</rscale>
<asrwt>0</asrwt>
<pdfrwt beam="1">  1        2 0.19961787E+00 0.23365067E+04</pdfrwt>
<pdfrwt beam="2">  1       -2 0.16182587E+00 0.23365067E+04</pdfrwt>
<totfact> 0.36617420E+00</totfact>
</mgrwt>
</event>
<event>
 6    1  0.9562506E-007  0.4673867E+04  0.7818608E-02  0.7880885E-01
         -2   -1    0    0    0  501 -0.00000000000E+00  0.00000000000E+00  0.24750175775E+04  0.24750175775E+04  0.00000000000E+00 0.  1.
          2   -1    0    0  501    0  0.00000000000E+00 -0.00000000000E+00 -0.22065535950E+04  0.22065535950E+04  0.00000000000E+00 0. -1.
         23    2    1    2    0    0 -0.10247447894E+04  0.10270975327E+04 -0.16996063529E+04  0.22365083779E+04  0.90976615295E+02 0.  0.
         11    1    3    3    0    0 -0.64076057141E+03  0.69481493343E+03 -0.11398154534E+04  0.14807164379E+04  0.00000000000E+00 0.  1.
        -11    1    3    3    0    0 -0.38398421800E+03  0.33228259923E+03 -0.55979089951E+03  0.75579194002E+03  0.00000000000E+00 0. -1.
         22    1    1    2    0    0  0.10247447894E+04 -0.10270975327E+04  0.19680703353E+04  0.24450627947E+04  0.00000000000E+00 0.  1.
<mgrwt>
<rscale>  0 0.46738673E+04</rscale>
<asrwt>0</asrwt>
<pdfrwt beam="1">  1        2 0.33946978E+00 0.46738673E+04</pdfrwt>
<pdfrwt beam="2">  1       -2 0.38077194E+00 0.46738673E+04</pdfrwt>
<totfact> 0.37870361E-02</totfact>
</mgrwt>
</event>
<event>
 6    1  0.9562506E-007  0.1144320E+04  0.7818608E-02  0.9163040E-01
          2   -1    0    0  501    0  0.00000000000E+00  0.00000000000E+00  0.13411683869E+04  0.13411683869E+04  0.00000000000E+00 0. -1.
         -2   -1    0    0    0  501 -0.00000000000E+00 -0.00000000000E+00 -0.24409090833E+03  0.24409090833E+03  0.00000000000E+00 0.  1.
         23    2    1    2    0    0 -0.42032214850E+03 -0.21408111047E+03  0.11170497124E+03  0.49280315946E+03  0.88744143424E+02 0.  0.
         13    1    3    3    0    0 -0.14985039866E+03 -0.12521432837E+03  0.45791959572E+02  0.20057585490E+03  0.00000000000E+00 0. -1.
        -13    1    3    3    0    0 -0.27047174984E+03 -0.88866782103E+02  0.65913011664E+02  0.29222730456E+03  0.00000000000E+00 0.  1.
         22    1    1    2    0    0  0.42032214850E+03  0.21408111047E+03  0.98537250734E+03  0.10924561358E+04  0.00000000000E+00 0. -1.
<mgrwt>
<rscale>  0 0.11443199E+04</rscale>
<asrwt>0</asrwt>
<pdfrwt beam="1">  1        2 0.20633360E+00 0.11443199E+04</pdfrwt>
<pdfrwt beam="2">  1       -2 0.37552448E-01 0.11443199E+04</pdfrwt>
<totfact> 0.10354384E+02</totfact>
</mgrwt>
</event>
<event>
 6    1  0.9562506E-007  0.2219341E+04  0.7818608E-02  0.8510421E-01
          2   -1    0    0  501    0  0.00000000000E+00  0.00000000000E+00  0.36229025021E+04  0.36229025021E+04  0.00000000000E+00 0. -1.
         -2   -1    0    0    0  501 -0.00000000000E+00 -0.00000000000E+00 -0.33988444883E+03  0.33988444883E+03  0.00000000000E+00 0.  1.
         23    2    1    2    0    0 -0.50258735442E+03 -0.92689782350E+03  0.10374632734E+04  0.14820108842E+04  0.91063676085E+02 0.  0.
         11    1    3    3    0    0 -0.23976203087E+03 -0.35542335806E+03  0.39684107067E+03  0.58420409984E+03  0.00000000000E+00 0. -1.
        -11    1    3    3    0    0 -0.26282532355E+03 -0.57147446543E+03  0.64062220273E+03  0.89780678433E+03  0.00000000000E+00 0.  1.
         22    1    1    2    0    0  0.50258735442E+03  0.92689782350E+03  0.22455547799E+04  0.24807760668E+04  0.00000000000E+00 0. -1.
<mgrwt>
<rscale>  0 0.22193406E+04</rscale>
<asrwt>0</asrwt>
<pdfrwt beam="1">  1        2 0.55736959E+00 0.22193406E+04</pdfrwt>
<pdfrwt beam="2">  1       -2 0.52289918E-01 0.22193406E+04</pdfrwt>
<totfact> 0.21022844E+00</totfact>
</mgrwt>
</event>
<event>
 6    1  0.9562506E-007  0.3484601E+04  0.7818608E-02  0.8117449E-01
         -2   -1    0    0    0  501 -0.00000000000E+00  0.00000000000E+00  0.25882774495E+04  0.25882774495E+04  0.00000000000E+00 0.  1.
          2   -1    0    0  501    0  0.00000000000E+00 -0.00000000000E+00 -0.11728307352E+04  0.11728307352E+04  0.00000000000E+00 0. -1.
         23    2    1    2    0    0  0.47365956909E+03 -0.16718683275E+04  0.59003903607E+03  0.18373631582E+04  0.90885746610E+02 0.  0.
         13    1    3    3    0    0  0.35660981049E+03 -0.13457788265E+04  0.50120389088E+03  0.14796947480E+04  0.00000000000E+00 0.  1.
        -13    1    3    3    0    0  0.11704975861E+03 -0.32608950100E+03  0.88835145184E+02  0.35766841022E+03  0.00000000000E+00 0. -1.
         22    1    1    2    0    0 -0.47365956909E+03  0.16718683275E+04  0.82540767825E+03  0.19237450266E+04  0.00000000000E+00 0.  1.
<mgrwt>
<rscale>  0 0.34846012E+04</rscale>
<asrwt>0</asrwt>
<pdfrwt beam="1">  1        2 0.18043550E+00 0.34846012E+04</pdfrwt>
<pdfrwt beam="2">  1       -2 0.39819653E+00 0.34846012E+04</pdfrwt>
<totfact> 0.12329800E-01</totfact>
</mgrwt>
</event>
<event>
 6    1  0.9562506E-007  0.2419400E+04  0.7818608E-02  0.8432276E-01
         -2   -1    0    0    0  501 -0.00000000000E+00  0.00000000000E+00  0.10517631251E+04  0.10517631251E+04  0.00000000000E+00 0.  1.
          2   -1    0    0  501    0  0.00000000000E+00 -0.00000000000E+00 -0.13913535273E+04  0.13913535273E+04  0.00000000000E+00 0. -1.
         23    2    1    2    0    0  0.20307796088E+02  0.77058764994E+03  0.76899376413E+03  0.10928660881E+04  0.93739769286E+02 0.  0.
         11    1    3    3    0    0  0.57605320060E+02  0.41665920666E+03  0.41234336963E+03  0.58902489071E+03  0.00000000000E+00 0.  1.
        -11    1    3    3    0    0 -0.37297523972E+02  0.35392844328E+03  0.35665039451E+03  0.50384119736E+03  0.00000000000E+00 0. -1.
         22    1    1    2    0    0 -0.20307796088E+02 -0.77058764994E+03 -0.11085841663E+04  0.13502505644E+04  0.00000000000E+00 0. -1.
<mgrwt>
<rscale>  0 0.24194002E+04</rscale>
<asrwt>0</asrwt>
<pdfrwt beam="1">  1        2 0.21405439E+00 0.24194002E+04</pdfrwt>
<pdfrwt beam="2">  1       -2 0.16180971E+00 0.24194002E+04</pdfrwt>
<totfact> 0.32104007E+00</totfact>
</mgrwt>
</event>
<event>
 6    1  0.9562506E-007  0.2109973E+04  0.7818608E-02  0.8556863E-01
         -2   -1    0    0    0  501 -0.00000000000E+00  0.00000000000E+00  0.10538538242E+04  0.10538538242E+04  0.00000000000E+00 0.  1.
          2   -1    0    0  501    0  0.00000000000E+00 -0.00000000000E+00 -0.10561204110E+04  0.10561204110E+04  0.00000000000E+00 0. -1.
         23    2    1    2    0    0  0.28295400919E+03  0.28788921051E+03  0.97128364919E+03  0.10560561972E+04  0.94443611129E+02 0.  0.
         11    1    3    3    0    0  0.14297863134E+03  0.20209856418E+03  0.64296895020E+03  0.68898170483E+03  0.00000000000E+00 0.  1.
        -11    1    3    3    0    0  0.13997537785E+03  0.85790646336E+02  0.32831469899E+03  0.36707449241E+03  0.00000000000E+00 0. -1.
         22    1    1    2    0    0 -0.28295400919E+03 -0.28788921051E+03 -0.97355023597E+03  0.10539180380E+04  0.00000000000E+00 0. -1.
<mgrwt>
<rscale>  0 0.21099730E+04</rscale>
<asrwt>0</asrwt>
<pdfrwt beam="1">  1        2 0.16248006E+00 0.21099730E+04</pdfrwt>
<pdfrwt beam="2">  1       -2 0.16213136E+00 0.21099730E+04</pdfrwt>
<totfact> 0.51898985E+00</totfact>
</mgrwt>
</event>
<event>
 6    1  0.9562506E-007  0.2452575E+04  0.7818608E-02  0.8420078E-01
          2   -1    0    0  501    0  0.00000000000E+00  0.00000000000E+00  0.22257214257E+04  0.22257214257E+04  0.00000000000E+00 0. -1.
         -2   -1    0    0    0  501 -0.00000000000E+00 -0.00000000000E+00 -0.67563760253E+03  0.67563760253E+03  0.00000000000E+00 0.  1.
         23    2    1    2    0    0  0.91176615296E+03  0.43482566803E+03  0.15951743824E+04  0.18902091690E+04  0.88986026349E+02 0.  0.
         11    1    3    3    0    0  0.18311342950E+03  0.93577574300E+02  0.26216806798E+03  0.33319571777E+03  0.00000000000E+00 0. -1.
        -11    1    3    3    0    0  0.72865272346E+03  0.34124809373E+03  0.13330063145E+04  0.15570134512E+04  0.00000000000E+00 0.  1.
         22    1    1    2    0    0 -0.91176615296E+03 -0.43482566803E+03 -0.45090559295E+02  0.10111498592E+04  0.00000000000E+00 0.  1.
<mgrwt>
<rscale>  0 0.24525750E+04</rscale>
<asrwt>0</asrwt>
<pdfrwt beam="1">  1        2 0.34241868E+00 0.24525750E+04</pdfrwt>
<pdfrwt beam="2">  1       -2 0.10394425E+00 0.24525750E+04</pdfrwt>
<totfact> 0.33673452E+00</totfact>
</mgrwt>
</event>
<event>
 6    1  0.9562506E-007  0.1335531E+04  0.7818608E-02  0.9001854E-01
         -2   -1    0    0    0  501 -0.00000000000E+00  0.00000000000E+00  0.33070145313E+03  0.33070145313E+03  0.00000000000E+00 0.  1.
          2   -1    0    0  501    0  0.00000000000E+00 -0.00000000000E+00 -0.13483780121E+04  0.13483780121E+04  0.00000000000E+00 0. -1.
         23    2    1    2    0    0  0.13617626368E+03 -0.48680443245E+03 -0.10534380067E+04  0.11723236943E+04  0.95334568830E+02 0.  0.
         11    1    3    3    0    0 -0.28632775179E+00 -0.15717224241E+03 -0.34559689440E+03  0.37965827949E+03  0.00000000000E+00 0. -1.
        -11    1    3    3    0    0  0.13646259143E+03 -0.32963219004E+03 -0.70784111231E+03  0.79266541481E+03  0.00000000000E+00 0.  1.
         22    1    1    2    0    0 -0.13617626368E+03  0.48680443245E+03  0.35761447726E+02  0.50675577094E+03  0.00000000000E+00 0. -1.
<mgrwt>
<rscale>  0 0.13355307E+04</rscale>
<asrwt>0</asrwt>
<pdfrwt beam="1">  1        2 0.20744276E+00 0.13355307E+04</pdfrwt>
<pdfrwt beam="2">  1       -2 0.50877148E-01 0.13355307E+04</pdfrwt>
<totfact> 0.55316300E+01</totfact>
</mgrwt>
</event>
<event>
 6    1  0.9562506E-007  0.1525140E+04  0.7818608E-02  0.8867905E-01
         -2   -1    0    0    0  501 -0.00000000000E+00  0.00000000000E+00  0.22681909418E+03  0.22681909418E+03  0.00000000000E+00 0.  1.
          2   -1    0    0  501    0  0.00000000000E+00 -0.00000000000E+00 -0.25637755608E+04  0.25637755608E+04  0.00000000000E+00 0. -1.
         23    2    1    2    0    0 -0.47834155528E+03  0.46849624461E+03 -0.18300306625E+04  0.19507892337E+04  0.90923231038E+02 0.  0.
         11    1    3    3    0    0 -0.34480365626E+03  0.29969327050E+03 -0.13345707646E+04  0.14105973003E+04  0.00000000000E+00 0. -1.
        -11    1    3    3    0    0 -0.13353789902E+03  0.16880297411E+03 -0.49545989784E+03  0.54019193340E+03  0.00000000000E+00 0.  1.
         22    1    1    2    0    0  0.47834155528E+03 -0.46849624461E+03 -0.50692580414E+03  0.83980542129E+03  0.00000000000E+00 0.  1.
<mgrwt>
<rscale>  0 0.15251403E+04</rscale>
<asrwt>0</asrwt>
<pdfrwt beam="1">  1        2 0.39442703E+00 0.15251403E+04</pdfrwt>
<pdfrwt beam="2">  1       -2 0.34895243E-01 0.15251403E+04</pdfrwt>
<totfact> 0.23817871E+01</totfact>
</mgrwt>
</event>
<event>
 6    1  0.9562506E-007  0.6577243E+03  0.7818608E-02  0.9792392E-01
         -1   -1    0    0    0  501 -0.00000000000E+00  0.00000000000E+00  0.15206854068E+03  0.15206854068E+03  0.00000000000E+00 0.  1.
          1   -1    0    0  501    0  0.00000000000E+00 -0.00000000000E+00 -0.71119455861E+03  0.71119455861E+03  0.00000000000E+00 0. -1.
         23    2    1    2    0    0  0.14492470678E+03 -0.12399739296E+03 -0.62620936096E+03  0.66107828529E+03  0.92237798301E+02 0.  0.
         13    1    3    3    0    0  0.13112151509E+03 -0.56882054232E+02 -0.40347125638E+03  0.42803910399E+03  0.00000000000E+00 0. -1.
        -13    1    3    3    0    0  0.13803191687E+02 -0.67115338732E+02 -0.22273810458E+03  0.23303918131E+03  0.00000000000E+00 0.  1.
         22    1    1    2    0    0 -0.14492470678E+03  0.12399739296E+03  0.67083343033E+02  0.20218481399E+03  0.00000000000E+00 0.  1.
<mgrwt>
<rscale>  0 0.65772432E+03</rscale>
<asrwt>0</asrwt>
<pdfrwt beam="1">  1        1 0.10941455E+00 0.65772432E+03</pdfrwt>
<pdfrwt beam="2">  1       -1 0.23395161E-01 0.65772432E+03</pdfrwt>
<totfact> 0.42181035E+02</totfact>
</mgrwt>
</event>
<event>
 6    1  0.9562506E-007  0.1916052E+04  0.7818608E-02  0.8646907E-01
          2   -1    0    0  501    0  0.00000000000E+00  0.00000000000E+00  0.90034539927E+03  0.90034539927E+03  0.00000000000E+00 0. -1.
         -2   -1    0    0    0  501 -0.00000000000E+00 -0.00000000000E+00 -0.10194021549E+04  0.10194021549E+04  0.00000000000E+00 0.  1.
         23    2    1    2    0    0  0.29172152591E+03  0.15598041307E+03 -0.95845098322E+03  0.10175203060E+04  0.85369478751E+02 0.  0.
         13    1    3    3    0    0  0.12395202609E+03  0.22211721087E+02 -0.39548723487E+03  0.41505134413E+03  0.00000000000E+00 0. -1.
        -13    1    3    3    0    0  0.16776949982E+03  0.13376869199E+03 -0.56296374836E+03  0.60246896185E+03  0.00000000000E+00 0.  1.
         22    1    1    2    0    0 -0.29172152591E+03 -0.15598041307E+03  0.83939422763E+03  0.90222724816E+03  0.00000000000E+00 0. -1.
<mgrwt>
<rscale>  0 0.19160522E+04</rscale>
<asrwt>0</asrwt>
<pdfrwt beam="1">  1        2 0.13851468E+00 0.19160522E+04</pdfrwt>
<pdfrwt beam="2">  1       -2 0.15683110E+00 0.19160522E+04</pdfrwt>
<totfact> 0.72882457E+00</totfact>
</mgrwt>
</event>
<event>
 6    1  0.9562506E-007  0.3801426E+04  0.7818608E-02  0.8045849E-01
         -2   -1    0    0    0  501 -0.00000000000E+00  0.00000000000E+00  0.15167289371E+04  0.15167289371E+04  0.00000000000E+00 0.  1.
          2   -1    0    0  501    0  0.00000000000E+00 -0.00000000000E+00 -0.23819089465E+04  0.23819089465E+04  0.00000000000E+00 0. -1.
         23    2    1    2    0    0 -0.55456847752E+03 -0.12790414692E+04 -0.17560453122E+04  0.22442092016E+04  0.96366622215E+02 0.  0.
         11    1    3    3    0    0 -0.29433489748E+03 -0.79103800888E+03 -0.10850861305E+04  0.13746949022E+04  0.00000000000E+00 0.  1.
        -11    1    3    3    0    0 -0.26023358004E+03 -0.48800346027E+03 -0.67095918168E+03  0.86951429942E+03  0.00000000000E+00 0. -1.
         22    1    1    2    0    0  0.55456847752E+03  0.12790414692E+04  0.89086530287E+03  0.16544286820E+04  0.00000000000E+00 0.  1.
<mgrwt>
<rscale>  0 0.38014262E+04</rscale>
<asrwt>0</asrwt>
<pdfrwt beam="1">  1        2 0.36644753E+00 0.38014262E+04</pdfrwt>
<pdfrwt beam="2">  1       -2 0.23334291E+00 0.38014262E+04</pdfrwt>
<totfact> 0.26598165E-01</totfact>
</mgrwt>
</event>
<event>
 6    1  0.9562506E-007  0.1631597E+04  0.7818608E-02  0.8801368E-01
         -1   -1    0    0    0  501 -0.00000000000E+00  0.00000000000E+00  0.41353611119E+03  0.41353611119E+03  0.00000000000E+00 0.  1.
          1   -1    0    0  501    0  0.00000000000E+00 -0.00000000000E+00 -0.16093577944E+04  0.16093577944E+04  0.00000000000E+00 0. -1.
         23    2    1    2    0    0 -0.52421842527E+03  0.58527562222E+03 -0.86060373464E+03  0.11686553064E+04  0.88113141663E+02 0.  0.
         11    1    3    3    0    0 -0.38321361103E+03  0.45915464214E+03 -0.69823059134E+03  0.91934847352E+03  0.00000000000E+00 0. -1.
        -11    1    3    3    0    0 -0.14100481424E+03  0.12612098008E+03 -0.16237314331E+03  0.24930683288E+03  0.00000000000E+00 0.  1.
         22    1    1    2    0    0  0.52421842527E+03 -0.58527562222E+03 -0.33521794859E+03  0.85423859923E+03  0.00000000000E+00 0. -1.
<mgrwt>
<rscale>  0 0.16315975E+04</rscale>
<asrwt>0</asrwt>
<pdfrwt beam="1">  1        1 0.24759350E+00 0.16315975E+04</pdfrwt>
<pdfrwt beam="2">  1       -1 0.63620941E-01 0.16315975E+04</pdfrwt>
<totfact> 0.13184022E+01</totfact>
</mgrwt>
</event>
<event>
 6    1  0.9562506E-007  0.4044802E+04  0.7818608E-02  0.7995569E-01
         -1   -1    0    0    0  501 -0.00000000000E+00  0.00000000000E+00  0.12066628021E+04  0.12066628021E+04  0.00000000000E+00 0.  1.
          1   -1    0    0  501    0  0.00000000000E+00 -0.00000000000E+00 -0.33896008833E+04  0.33896008833E+04  0.00000000000E+00 0. -1.
         23    2    1    2    0    0 -0.12468705900E+04 -0.51741461575E+03 -0.28016576911E+04  0.31112660058E+04  0.91028501484E+02 0.  0.
         13    1    3    3    0    0 -0.29744223376E+03 -0.15377015765E+03 -0.75902651526E+03  0.82960134684E+03  0.00000000000E+00 0.  1.
        -13    1    3    3    0    0 -0.94942835625E+03 -0.36364445810E+03 -0.20426311758E+04  0.22816646590E+04  0.00000000000E+00 0. -1.
         22    1    1    2    0    0  0.12468705900E+04  0.51741461575E+03  0.61871960988E+03  0.14849976796E+04  0.00000000000E+00 0.  1.
<mgrwt>
<rscale>  0 0.40448018E+04</rscale>
<asrwt>0</asrwt>
<pdfrwt beam="1">  1        1 0.52147705E+00 0.40448018E+04</pdfrwt>
<pdfrwt beam="2">  1       -1 0.18564044E+00 0.40448018E+04</pdfrwt>
<totfact> 0.45024028E-02</totfact>
</mgrwt>
</event>
<event>
 6    1  0.9562506E-007  0.1214620E+04  0.7818608E-02  0.9100155E-01
         -1   -1    0    0    0  501 -0.00000000000E+00  0.00000000000E+00  0.75941629442E+03  0.75941629442E+03  0.00000000000E+00 0.  1.
          1   -1    0    0  501    0  0.00000000000E+00 -0.00000000000E+00 -0.48566988377E+03  0.48566988377E+03  0.00000000000E+00 0. -1.
         23    2    1    2    0    0  0.21902805641E+03  0.36203921790E+03  0.57946165519E+03  0.72306367337E+03  0.89440377463E+02 0.  0.
         13    1    3    3    0    0  0.92936459644E+02  0.17280746833E+03  0.34197040744E+03  0.39426306726E+03  0.00000000000E+00 0. -1.
        -13    1    3    3    0    0  0.12609159677E+03  0.18923174957E+03  0.23749124775E+03  0.32880060611E+03  0.00000000000E+00 0.  1.
         22    1    1    2    0    0 -0.21902805641E+03 -0.36203921790E+03 -0.30571524454E+03  0.52202250482E+03  0.00000000000E+00 0. -1.
<mgrwt>
<rscale>  0 0.12146203E+04</rscale>
<asrwt>0</asrwt>
<pdfrwt beam="1">  1        1 0.74718444E-01 0.12146203E+04</pdfrwt>
<pdfrwt beam="2">  1       -1 0.11683328E+00 0.12146203E+04</pdfrwt>
<totfact> 0.30152318E+01</totfact>
</mgrwt>
</event>
<event>
 6    1  0.1428111E-006  0.2192111E+04  0.7818608E-02  0.8521719E-01
         -2   -1    0    0    0  501 -0.00000000000E+00  0.00000000000E+00  0.99171299749E+03  0.99171299749E+03  0.00000000000E+00 0.  1.
          2   -1    0    0  501    0  0.00000000000E+00 -0.00000000000E+00 -0.12113758922E+04  0.12113758922E+04  0.00000000000E+00 0. -1.
         23    2    1    2    0    0 -0.58488584897E+03  0.13206465966E+03 -0.10298977284E+04  0.11951141795E+04  0.89866792988E+02 0.  0.
         13    1    3    3    0    0 -0.31168968690E+03  0.11094653028E+03 -0.52199368051E+03  0.61801051446E+03  0.00000000000E+00 0.  1.
        -13    1    3    3    0    0 -0.27319616208E+03  0.21118129380E+02 -0.50790404791E+03  0.57710366508E+03  0.00000000000E+00 0. -1.
         22    1    1    2    0    0  0.58488584897E+03 -0.13206465966E+03  0.81023483368E+03  0.10079747102E+04  0.00000000000E+00 0.  1.
<mgrwt>
<rscale>  0 0.21921106E+04</rscale>
<asrwt>0</asrwt>
<pdfrwt beam="1">  1        2 0.18636552E+00 0.21921106E+04</pdfrwt>
<pdfrwt beam="2">  1       -2 0.15257123E+00 0.21921106E+04</pdfrwt>
<totfact> 0.48843989E+00</totfact>
</mgrwt>
</event>
<event>
 6    1  0.9562506E-007  0.7044969E+03  0.7818608E-02  0.9709573E-01
         -1   -1    0    0    0  501 -0.00000000000E+00  0.00000000000E+00  0.14223260565E+03  0.14223260565E+03  0.00000000000E+00 0.  1.
          1   -1    0    0  501    0  0.00000000000E+00 -0.00000000000E+00 -0.87236647799E+03  0.87236647799E+03  0.00000000000E+00 0. -1.
         23    2    1    2    0    0  0.15668927497E+01  0.33773625910E+03 -0.48105627824E+03  0.59494698517E+03  0.92078968661E+02 0.  0.
         13    1    3    3    0    0  0.27391155452E+02  0.11817079135E+03 -0.11406406989E+03  0.16650892879E+03  0.00000000000E+00 0. -1.
        -13    1    3    3    0    0 -0.25824262703E+02  0.21956546775E+03 -0.36699220835E+03  0.42843805639E+03  0.00000000000E+00 0.  1.
         22    1    1    2    0    0 -0.15668927497E+01 -0.33773625910E+03 -0.24907759410E+03  0.41965209846E+03  0.00000000000E+00 0.  1.
<mgrwt>
<rscale>  0 0.70449686E+03</rscale>
<asrwt>0</asrwt>
<pdfrwt beam="1">  1        1 0.13421023E+00 0.70449686E+03</pdfrwt>
<pdfrwt beam="2">  1       -1 0.21881939E-01 0.70449686E+03</pdfrwt>
<totfact> 0.34099940E+02</totfact>
</mgrwt>
</event>
<event>
 6    1  0.9562506E-007  0.1623590E+04  0.7818608E-02  0.8806186E-01
          2   -1    0    0  501    0  0.00000000000E+00  0.00000000000E+00  0.18807197982E+04  0.18807197982E+04  0.00000000000E+00 0. -1.
         -2   -1    0    0    0  501 -0.00000000000E+00 -0.00000000000E+00 -0.35040354873E+03  0.35040354873E+03  0.00000000000E+00 0.  1.
         23    2    1    2    0    0  0.37422162686E+03 -0.71651054062E+03  0.82279240054E+03  0.11568705007E+04  0.89066493106E+02 0.  0.
         11    1    3    3    0    0  0.23721773420E+03 -0.37317127912E+03  0.41434515687E+03  0.60597934453E+03  0.00000000000E+00 0.  1.
        -11    1    3    3    0    0  0.13700389267E+03 -0.34333926150E+03  0.40844724368E+03  0.55089115618E+03  0.00000000000E+00 0. -1.
         22    1    1    2    0    0 -0.37422162686E+03  0.71651054062E+03  0.70752384896E+03  0.10742528463E+04  0.00000000000E+00 0. -1.
<mgrwt>
<rscale>  0 0.16235897E+04</rscale>
<asrwt>0</asrwt>
<pdfrwt beam="1">  1        2 0.28934150E+00 0.16235897E+04</pdfrwt>
<pdfrwt beam="2">  1       -2 0.53908239E-01 0.16235897E+04</pdfrwt>
<totfact> 0.24146785E+01</totfact>
</mgrwt>
</event>
<event>
 6    1  0.9562506E-007  0.2442383E+04  0.7818608E-02  0.8423804E-01
         -1   -1    0    0    0  501 -0.00000000000E+00  0.00000000000E+00  0.36869228899E+03  0.36869228899E+03  0.00000000000E+00 0.  1.
          1   -1    0    0  501    0  0.00000000000E+00 -0.00000000000E+00 -0.40448601500E+04  0.40448601500E+04  0.00000000000E+00 0. -1.
         23    2    1    2    0    0  0.60109428201E+03 -0.10558903959E+04 -0.16523494057E+04  0.20530313092E+04  0.91978986535E+02 0.  0.
         11    1    3    3    0    0  0.43697491788E+03 -0.70498208209E+03 -0.10756074594E+04  0.13582629428E+04  0.00000000000E+00 0. -1.
        -11    1    3    3    0    0  0.16411936413E+03 -0.35090831385E+03 -0.57674194629E+03  0.69476836645E+03  0.00000000000E+00 0.  1.
         22    1    1    2    0    0 -0.60109428201E+03  0.10558903959E+04 -0.20238184553E+04  0.23605211298E+04  0.00000000000E+00 0.  1.
<mgrwt>
<rscale>  0 0.24423831E+04</rscale>
<asrwt>0</asrwt>
<pdfrwt beam="1">  1        1 0.62228618E+00 0.24423831E+04</pdfrwt>
<pdfrwt beam="2">  1       -1 0.56721890E-01 0.24423831E+04</pdfrwt>
<totfact> 0.24678058E-01</totfact>
</mgrwt>
</event>
<event>
 6    1  0.9562506E-007  0.5945777E+04  0.7818608E-02  0.7697161E-01
         -2   -1    0    0    0  501 -0.00000000000E+00  0.00000000000E+00  0.33653857009E+04  0.33653857009E+04  0.00000000000E+00 0.  1.
          2   -1    0    0  501    0  0.00000000000E+00 -0.00000000000E+00 -0.26261677839E+04  0.26261677839E+04  0.00000000000E+00 0. -1.
         23    2    1    2    0    0  0.24785121899E+04 -0.15920477905E+04 -0.28635531814E+02  0.29473396682E+04  0.91390830045E+02 0.  0.
         13    1    3    3    0    0  0.97946020006E+03 -0.66702374788E+03 -0.43023582644E+02  0.11857967753E+04  0.00000000000E+00 0.  1.
        -13    1    3    3    0    0  0.14990519898E+04 -0.92502404258E+03  0.14388050830E+02  0.17615428929E+04  0.00000000000E+00 0. -1.
         22    1    1    2    0    0 -0.24785121899E+04  0.15920477905E+04  0.76785344876E+03  0.30442138166E+04  0.00000000000E+00 0. -1.
<mgrwt>
<rscale>  0 0.59457775E+04</rscale>
<asrwt>0</asrwt>
<pdfrwt beam="1">  1        2 0.40402581E+00 0.59457775E+04</pdfrwt>
<pdfrwt beam="2">  1       -2 0.51775165E+00 0.59457775E+04</pdfrwt>
<totfact> 0.25923054E-03</totfact>
</mgrwt>
</event>
<event>
 6    1  0.9562506E-007  0.3668275E+04  0.7818608E-02  0.8075029E-01
          2   -1    0    0  501    0  0.00000000000E+00  0.00000000000E+00  0.22151322614E+04  0.22151322614E+04  0.00000000000E+00 0. -1.
         -2   -1    0    0    0  501 -0.00000000000E+00 -0.00000000000E+00 -0.15186728617E+04  0.15186728617E+04  0.00000000000E+00 0.  1.
         23    2    1    2    0    0  0.86644732937E+02  0.15320290680E+04  0.13690229473E+04  0.20584060361E+04  0.90505270905E+02 0.  0.
         13    1    3    3    0    0  0.49237184845E+02  0.53180551728E+03  0.52864884737E+03  0.75147256265E+03  0.00000000000E+00 0. -1.
        -13    1    3    3    0    0  0.37407548092E+02  0.10002235507E+04  0.84037409993E+03  0.13069334734E+04  0.00000000000E+00 0.  1.
         22    1    1    2    0    0 -0.86644732937E+02 -0.15320290680E+04 -0.67256354763E+03  0.16753990870E+04  0.00000000000E+00 0.  1.
<mgrwt>
<rscale>  0 0.36682755E+04</rscale>
<asrwt>0</asrwt>
<pdfrwt beam="1">  1        2 0.34078958E+00 0.36682755E+04</pdfrwt>
<pdfrwt beam="2">  1       -2 0.23364198E+00 0.36682755E+04</pdfrwt>
<totfact> 0.33297946E-01</totfact>
</mgrwt>
</event>
<event>
 6    1  0.9562506E-007  0.1288647E+04  0.7818608E-02  0.9038617E-01
         -2   -1    0    0    0  501 -0.00000000000E+00  0.00000000000E+00  0.29040251322E+03  0.29040251322E+03  0.00000000000E+00 0.  1.
          2   -1    0    0  501    0  0.00000000000E+00 -0.00000000000E+00 -0.14295767712E+04  0.14295767712E+04  0.00000000000E+00 0. -1.
         23    2    1    2    0    0  0.71176288395E+02 -0.32974727521E+03  0.15530072118E+03  0.38227049653E+03  0.90626094340E+02 0.  0.
         13    1    3    3    0    0  0.46357408021E+02 -0.29599501392E+03  0.10653715449E+03  0.31798148190E+03  0.00000000000E+00 0.  1.
        -13    1    3    3    0    0  0.24818880374E+02 -0.33752261289E+02  0.48763566687E+02  0.64289014623E+02  0.00000000000E+00 0. -1.
         22    1    1    2    0    0 -0.71176288395E+02  0.32974727521E+03 -0.12944749791E+04  0.13377087879E+04  0.00000000000E+00 0. -1.
<mgrwt>
<rscale>  0 0.12886469E+04</rscale>
<asrwt>0</asrwt>
<pdfrwt beam="1">  1        2 0.21993489E+00 0.12886469E+04</pdfrwt>
<pdfrwt beam="2">  1       -2 0.44677309E-01 0.12886469E+04</pdfrwt>
<totfact> 0.64840060E+01</totfact>
</mgrwt>
</event>
<event>
 6    1  0.9562506E-007  0.3082803E+04  0.7818608E-02  0.8220473E-01
         -1   -1    0    0    0  501 -0.00000000000E+00  0.00000000000E+00  0.16801508066E+04  0.16801508066E+04  0.00000000000E+00 0.  1.
          1   -1    0    0  501    0  0.00000000000E+00 -0.00000000000E+00 -0.14141106738E+04  0.14141106738E+04  0.00000000000E+00 0. -1.
         23    2    1    2    0    0  0.93297613202E+03 -0.10768148789E+04  0.72020764134E+03  0.15988542208E+04  0.87527289669E+02 0.  0.
         11    1    3    3    0    0  0.15356945867E+03 -0.16626499551E+03  0.80303735399E+02  0.24015894172E+03  0.00000000000E+00 0. -1.
        -11    1    3    3    0    0  0.77940667335E+03 -0.91054988337E+03  0.63990390594E+03  0.13586952791E+04  0.00000000000E+00 0.  1.
         22    1    1    2    0    0 -0.93297613202E+03  0.10768148789E+04 -0.45416750856E+03  0.14954072596E+04  0.00000000000E+00 0. -1.
<mgrwt>
<rscale>  0 0.30828034E+04</rscale>
<asrwt>0</asrwt>
<pdfrwt beam="1">  1        1 0.21755549E+00 0.30828034E+04</pdfrwt>
<pdfrwt beam="2">  1       -1 0.25848474E+00 0.30828034E+04</pdfrwt>
<totfact> 0.38949841E-01</totfact>
</mgrwt>
</event>
<event>
 6    1  0.9562506E-007  0.1857682E+04  0.7818608E-02  0.8676212E-01
          1   -1    0    0  501    0  0.00000000000E+00  0.00000000000E+00  0.78119058870E+03  0.78119058870E+03  0.00000000000E+00 0. -1.
         -1   -1    0    0    0  501 -0.00000000000E+00 -0.00000000000E+00 -0.11043989049E+04  0.11043989049E+04  0.00000000000E+00 0.  1.
         23    2    1    2    0    0 -0.29219410280E+03  0.87373080851E+03 -0.61498452816E+02  0.92784476143E+03  0.91273885466E+02 0.  0.
         11    1    3    3    0    0 -0.10001231156E+03  0.19036290680E+03  0.28709640901E+01  0.21505520497E+03  0.00000000000E+00 0. -1.
        -11    1    3    3    0    0 -0.19218179124E+03  0.68336790171E+03 -0.64369416906E+02  0.71278955646E+03  0.00000000000E+00 0.  1.
         22    1    1    2    0    0  0.29219410280E+03 -0.87373080851E+03 -0.26170986341E+03  0.95774473220E+03  0.00000000000E+00 0.  1.
<mgrwt>
<rscale>  0 0.18576825E+04</rscale>
<asrwt>0</asrwt>
<pdfrwt beam="1">  1        1 0.12018317E+00 0.18576825E+04</pdfrwt>
<pdfrwt beam="2">  1       -1 0.16990752E+00 0.18576825E+04</pdfrwt>
<totfact> 0.53148603E+00</totfact>
</mgrwt>
</event>
<event>
 6    1  0.9562506E-007  0.2120794E+04  0.7818608E-02  0.8552138E-01
          1   -1    0    0  501    0  0.00000000000E+00  0.00000000000E+00  0.19304380367E+04  0.19304380367E+04  0.00000000000E+00 0. -1.
         -1   -1    0    0    0  501 -0.00000000000E+00 -0.00000000000E+00 -0.58248011990E+03  0.58248011990E+03  0.00000000000E+00 0.  1.
         23    2    1    2    0    0  0.41791797820E+03  0.20916822983E+03 -0.44970655464E+03  0.65549942710E+03  0.95061710332E+02 0.  0.
         13    1    3    3    0    0  0.32561146420E+03  0.12619446900E+03 -0.29483207290E+03  0.45702715546E+03  0.00000000000E+00 0.  1.
        -13    1    3    3    0    0  0.92306514001E+02  0.82973760831E+02 -0.15487448174E+03  0.19847227164E+03  0.00000000000E+00 0. -1.
         22    1    1    2    0    0 -0.41791797820E+03 -0.20916822983E+03  0.17976644715E+04  0.18574187295E+04  0.00000000000E+00 0. -1.
<mgrwt>
<rscale>  0 0.21207940E+04</rscale>
<asrwt>0</asrwt>
<pdfrwt beam="1">  1        1 0.29699046E+00 0.21207940E+04</pdfrwt>
<pdfrwt beam="2">  1       -1 0.89612327E-01 0.21207940E+04</pdfrwt>
<totfact> 0.37188604E+00</totfact>
</mgrwt>
</event>
<event>
 6    1  0.9562506E-007  0.3139275E+04  0.7818608E-02  0.8205041E-01
          2   -1    0    0  501    0  0.00000000000E+00  0.00000000000E+00  0.29858780541E+04  0.29858780541E+04  0.00000000000E+00 0. -1.
         -2   -1    0    0    0  501 -0.00000000000E+00 -0.00000000000E+00 -0.82513838377E+03  0.82513838377E+03  0.00000000000E+00 0.  1.
         23    2    1    2    0    0 -0.13031769665E+04  0.18595792947E+03  0.21160904031E+04  0.24938816252E+04  0.93575686271E+02 0.  0.
         13    1    3    3    0    0 -0.20884594270E+03  0.40901178729E+02  0.28343675615E+03  0.35443748242E+03  0.00000000000E+00 0.  1.
        -13    1    3    3    0    0 -0.10943310238E+04  0.14505675074E+03  0.18326536469E+04  0.21394441428E+04  0.00000000000E+00 0. -1.
         22    1    1    2    0    0  0.13031769665E+04 -0.18595792947E+03  0.44649267249E+02  0.13171348126E+04  0.00000000000E+00 0. -1.
<mgrwt>
<rscale>  0 0.31392755E+04</rscale>
<asrwt>0</asrwt>
<pdfrwt beam="1">  1        2 0.45936585E+00 0.31392755E+04</pdfrwt>
<pdfrwt beam="2">  1       -2 0.12694437E+00 0.31392755E+04</pdfrwt>
<totfact> 0.69312027E-01</totfact>
</mgrwt>
</event>
<event>
 6    1  0.9562506E-007  0.6328524E+04  0.7818608E-02  0.7650952E-01
          2   -1    0    0  501    0  0.00000000000E+00  0.00000000000E+00  0.45209880620E+04  0.45209880620E+04  0.00000000000E+00 0. -1.
         -2   -1    0    0    0  501 -0.00000000000E+00 -0.00000000000E+00 -0.22146828056E+04  0.22146828056E+04  0.00000000000E+00 0.  1.
         23    2    1    2    0    0  0.10148424751E+04  0.20849807428E+04 -0.11370976070E+04  0.25842767370E+04  0.91898523030E+02 0.  0.
         11    1    3    3    0    0  0.65880685991E+03  0.14041900225E+04 -0.80156989908E+03  0.17459353943E+04  0.00000000000E+00 0.  1.
        -11    1    3    3    0    0  0.35603561519E+03  0.68079072028E+03 -0.33552770790E+03  0.83834134270E+03  0.00000000000E+00 0. -1.
         22    1    1    2    0    0 -0.10148424751E+04 -0.20849807428E+04  0.34434028634E+04  0.41513941305E+04  0.00000000000E+00 0. -1.
<mgrwt>
<rscale>  0 0.63285242E+04</rscale>
<asrwt>0</asrwt>
<pdfrwt beam="1">  1        2 0.69553663E+00 0.63285242E+04</pdfrwt>
<pdfrwt beam="2">  1       -2 0.34072043E+00 0.63285242E+04</pdfrwt>
<totfact> 0.13535154E-03</totfact>
</mgrwt>
</event>
<event>
 6    1  0.9562506E-007  0.1629897E+04  0.7818608E-02  0.8802389E-01
          2   -1    0    0  501    0  0.00000000000E+00  0.00000000000E+00  0.39658388558E+03  0.39658388558E+03  0.00000000000E+00 0. -1.
         -2   -1    0    0    0  501 -0.00000000000E+00 -0.00000000000E+00 -0.16746537697E+04  0.16746537697E+04  0.00000000000E+00 0.  1.
         23    2    1    2    0    0  0.41994127471E+03 -0.62930100886E+03 -0.10173718017E+04  0.12710289799E+04  0.89993616110E+02 0.  0.
         13    1    3    3    0    0  0.27476172110E+03 -0.34583414914E+03 -0.54879982550E+03  0.70446895642E+03  0.00000000000E+00 0. -1.
        -13    1    3    3    0    0  0.14517955361E+03 -0.28346685972E+03 -0.46857197616E+03  0.56656002347E+03  0.00000000000E+00 0.  1.
         22    1    1    2    0    0 -0.41994127471E+03  0.62930100886E+03 -0.26069808245E+03  0.80020867538E+03  0.00000000000E+00 0. -1.
<mgrwt>
<rscale>  0 0.16298966E+04</rscale>
<asrwt>0</asrwt>
<pdfrwt beam="1">  1        2 0.61012905E-01 0.16298966E+04</pdfrwt>
<pdfrwt beam="2">  1       -2 0.25763904E+00 0.16298966E+04</pdfrwt>
<totfact> 0.44334563E+00</totfact>
</mgrwt>
</event>
<event>
 6    1  0.9562506E-007  0.1871039E+04  0.7818608E-02  0.8669408E-01
          2   -1    0    0  501    0  0.00000000000E+00  0.00000000000E+00  0.13793491978E+04  0.13793491978E+04  0.00000000000E+00 0. -1.
         -2   -1    0    0    0  501 -0.00000000000E+00 -0.00000000000E+00 -0.63449983627E+03  0.63449983627E+03  0.00000000000E+00 0.  1.
         23    2    1    2    0    0 -0.46771144807E+03 -0.73278019780E+02 -0.49227719683E+03  0.68923369812E+03  0.92642243489E+02 0.  0.
         11    1    3    3    0    0 -0.25296951118E+03 -0.51955385423E+02 -0.33101346898E+03  0.41983669719E+03  0.00000000000E+00 0. -1.
        -11    1    3    3    0    0 -0.21474193688E+03 -0.21322634357E+02 -0.16126372785E+03  0.26939700093E+03  0.00000000000E+00 0.  1.
         22    1    1    2    0    0  0.46771144807E+03  0.73278019780E+02  0.12371265584E+04  0.13246153360E+04  0.00000000000E+00 0. -1.
<mgrwt>
<rscale>  0 0.18710391E+04</rscale>
<asrwt>0</asrwt>
<pdfrwt beam="1">  1        2 0.21220757E+00 0.18710391E+04</pdfrwt>
<pdfrwt beam="2">  1       -2 0.97615359E-01 0.18710391E+04</pdfrwt>
<totfact> 0.12209025E+01</totfact>
</mgrwt>
</event>
<event>
 6    1  0.9562506E-007  0.3267212E+04  0.7818608E-02  0.8171289E-01
         -2   -1    0    0    0  501 -0.00000000000E+00  0.00000000000E+00  0.86940049771E+03  0.86940049771E+03  0.00000000000E+00 0.  1.
          2   -1    0    0  501    0  0.00000000000E+00 -0.00000000000E+00 -0.30695500778E+04  0.30695500778E+04  0.00000000000E+00 0. -1.
         23    2    1    2    0    0 -0.14479282176E+04 -0.72027480568E+03 -0.83483197472E+03  0.18224950285E+04  0.96186192427E+02 0.  0.
         11    1    3    3    0    0 -0.88851221198E+03 -0.49289636323E+03 -0.51321669706E+03  0.11383286669E+04  0.00000000000E+00 0. -1.
        -11    1    3    3    0    0 -0.55941600567E+03 -0.22737844244E+03 -0.32161527766E+03  0.68416636157E+03  0.00000000000E+00 0.  1.
         22    1    1    2    0    0  0.14479282176E+04  0.72027480568E+03 -0.13653176054E+04  0.21164555471E+04  0.00000000000E+00 0. -1.
<mgrwt>
<rscale>  0 0.32672119E+04</rscale>
<asrwt>0</asrwt>
<pdfrwt beam="1">  1        2 0.47223847E+00 0.32672119E+04</pdfrwt>
<pdfrwt beam="2">  1       -2 0.13375392E+00 0.32672119E+04</pdfrwt>
<totfact> 0.53193938E-01</totfact>
</mgrwt>
</event>
<event>
 6    1  0.9562506E-007  0.1719402E+04  0.7818608E-02  0.8750375E-01
          1   -1    0    0  501    0  0.00000000000E+00  0.00000000000E+00  0.78418576801E+03  0.78418576801E+03  0.00000000000E+00 0. -1.
         -1   -1    0    0    0  501 -0.00000000000E+00 -0.00000000000E+00 -0.94248838598E+03  0.94248838598E+03  0.00000000000E+00 0.  1.
         23    2    1    2    0    0  0.41749255508E+03  0.64359338059E+03 -0.46339675567E+03  0.90108654147E+03  0.93316284632E+02 0.  0.
         13    1    3    3    0    0  0.16445486522E+03  0.33354779309E+03 -0.24262985946E+03  0.44403691476E+03  0.00000000000E+00 0.  1.
        -13    1    3    3    0    0  0.25303768986E+03  0.31004558751E+03 -0.22076689620E+03  0.45704962671E+03  0.00000000000E+00 0. -1.
         22    1    1    2    0    0 -0.41749255508E+03 -0.64359338059E+03  0.30509413769E+03  0.82558761252E+03  0.00000000000E+00 0.  1.
<mgrwt>
<rscale>  0 0.17194022E+04</rscale>
<asrwt>0</asrwt>
<pdfrwt beam="1">  1        1 0.12064397E+00 0.17194022E+04</pdfrwt>
<pdfrwt beam="2">  1       -1 0.14499821E+00 0.17194022E+04</pdfrwt>
<totfact> 0.82877955E+00</totfact>
</mgrwt>
</event>
<event>
 6    1  0.9562506E-007  0.3401457E+04  0.7818608E-02  0.8137549E-01
         -1   -1    0    0    0  501 -0.00000000000E+00  0.00000000000E+00  0.13395466472E+04  0.13395466472E+04  0.00000000000E+00 0.  1.
          1   -1    0    0  501    0  0.00000000000E+00 -0.00000000000E+00 -0.21592956698E+04  0.21592956698E+04  0.00000000000E+00 0. -1.
         23    2    1    2    0    0  0.12896619852E+04 -0.16150500452E+02  0.72805454872E+03  0.14841004551E+04  0.94878133291E+02 0.  0.
         13    1    3    3    0    0  0.46615880358E+03 -0.40234031051E+02  0.29830664199E+03  0.55489608042E+03  0.00000000000E+00 0.  1.
        -13    1    3    3    0    0  0.82350318158E+03  0.24083530599E+02  0.42974790673E+03  0.92920437465E+03  0.00000000000E+00 0. -1.
         22    1    1    2    0    0 -0.12896619852E+04  0.16150500452E+02 -0.15478035713E+04  0.20147418619E+04  0.00000000000E+00 0. -1.
<mgrwt>
<rscale>  0 0.34014569E+04</rscale>
<asrwt>0</asrwt>
<pdfrwt beam="1">  1        1 0.33219933E+00 0.34014569E+04</pdfrwt>
<pdfrwt beam="2">  1       -1 0.20608410E+00 0.34014569E+04</pdfrwt>
<totfact> 0.26114696E-01</totfact>
</mgrwt>
</event>
<event>
 6    1  0.9562506E-007  0.1480611E+04  0.7818608E-02  0.8897450E-01
          1   -1    0    0  501    0  0.00000000000E+00  0.00000000000E+00  0.10482590461E+04  0.10482590461E+04  0.00000000000E+00 0. -1.
         -1   -1    0    0    0  501 -0.00000000000E+00 -0.00000000000E+00 -0.52282126986E+03  0.52282126986E+03  0.00000000000E+00 0.  1.
         23    2    1    2    0    0 -0.18364058612E+03 -0.14392651050E+03  0.10060929404E+04  0.10367881749E+04  0.90928596273E+02 0.  0.
         11    1    3    3    0    0 -0.63471354293E+02 -0.14846346751E+02  0.41015796407E+03  0.41530540849E+03  0.00000000000E+00 0.  1.
        -11    1    3    3    0    0 -0.12016923183E+03 -0.12908016374E+03  0.59593497629E+03  0.62148276639E+03  0.00000000000E+00 0. -1.
         22    1    1    2    0    0  0.18364058612E+03  0.14392651050E+03 -0.48065516409E+03  0.53429214111E+03  0.00000000000E+00 0.  1.
<mgrwt>
<rscale>  0 0.14806109E+04</rscale>
<asrwt>0</asrwt>
<pdfrwt beam="1">  1        1 0.16127062E+00 0.14806109E+04</pdfrwt>
<pdfrwt beam="2">  1       -1 0.80434042E-01 0.14806109E+04</pdfrwt>
<totfact> 0.20743197E+01</totfact>
</mgrwt>
</event>
<event>
 6    1  0.9562506E-007  0.2117880E+04  0.7818608E-02  0.8553408E-01
         -2   -1    0    0    0  501 -0.00000000000E+00  0.00000000000E+00  0.50823570245E+03  0.50823570245E+03  0.00000000000E+00 0.  1.
          2   -1    0    0  501    0  0.00000000000E+00 -0.00000000000E+00 -0.22063663275E+04  0.22063663275E+04  0.00000000000E+00 0. -1.
         23    2    1    2    0    0  0.73796228201E+03  0.21950911493E+03  0.77709819213E+02  0.77904478081E+03  0.89996518207E+02 0.  0.
         13    1    3    3    0    0  0.30177159990E+03  0.13302489587E+03  0.49317842840E+02  0.33345760008E+03  0.00000000000E+00 0.  1.
        -13    1    3    3    0    0  0.43619068211E+03  0.86484219067E+02  0.28391976373E+02  0.44558718073E+03  0.00000000000E+00 0. -1.
         22    1    1    2    0    0 -0.73796228201E+03 -0.21950911493E+03 -0.17758404443E+04  0.19355572492E+04  0.00000000000E+00 0. -1.
<mgrwt>
<rscale>  0 0.21178802E+04</rscale>
<asrwt>0</asrwt>
<pdfrwt beam="1">  1        2 0.33944097E+00 0.21178802E+04</pdfrwt>
<pdfrwt beam="2">  1       -2 0.78190109E-01 0.21178802E+04</pdfrwt>
<totfact> 0.68574042E+00</totfact>
</mgrwt>
</event>
<event>
 6    1  0.9562506E-007  0.1595889E+04  0.7818608E-02  0.8823078E-01
          1   -1    0    0  501    0  0.00000000000E+00  0.00000000000E+00  0.13304153750E+04  0.13304153750E+04  0.00000000000E+00 0. -1.
         -1   -1    0    0    0  501 -0.00000000000E+00 -0.00000000000E+00 -0.47858364653E+03  0.47858364653E+03  0.00000000000E+00 0.  1.
         23    2    1    2    0    0  0.77771700718E+02  0.35751778757E+03  0.12279078235E+04  0.12843080314E+04  0.88442582908E+02 0.  0.
         13    1    3    3    0    0  0.56528854463E+01  0.32583762574E+02  0.22977065966E+03  0.23213834827E+03  0.00000000000E+00 0. -1.
        -13    1    3    3    0    0  0.72118815271E+02  0.32493402500E+03  0.99813716388E+03  0.10521696831E+04  0.00000000000E+00 0.  1.
         22    1    1    2    0    0 -0.77771700718E+02 -0.35751778757E+03 -0.37607609508E+03  0.52469099016E+03  0.00000000000E+00 0.  1.
<mgrwt>
<rscale>  0 0.15958885E+04</rscale>
<asrwt>0</asrwt>
<pdfrwt beam="1">  1        1 0.20467929E+00 0.15958885E+04</pdfrwt>
<pdfrwt beam="2">  1       -1 0.73628254E-01 0.15958885E+04</pdfrwt>
<totfact> 0.15347645E+01</totfact>
</mgrwt>
</event>
<event>
 6    1  0.9562506E-007  0.3712584E+04  0.7818608E-02  0.8065179E-01
         -2   -1    0    0    0  501 -0.00000000000E+00  0.00000000000E+00  0.18901728360E+04  0.18901728360E+04  0.00000000000E+00 0.  1.
          2   -1    0    0  501    0  0.00000000000E+00 -0.00000000000E+00 -0.18230180191E+04  0.18230180191E+04  0.00000000000E+00 0. -1.
         23    2    1    2    0    0  0.42704035369E+03 -0.13302620597E+04 -0.11872368369E+04  0.18355702778E+04  0.88466528405E+02 0.  0.
         11    1    3    3    0    0  0.26877251275E+03 -0.81109618738E+03 -0.66997903232E+03  0.10858119508E+04  0.00000000000E+00 0. -1.
        -11    1    3    3    0    0  0.15826784093E+03 -0.51916587228E+03 -0.51725780458E+03  0.74975832694E+03  0.00000000000E+00 0.  1.
         22    1    1    2    0    0 -0.42704035369E+03  0.13302620597E+04  0.12543916539E+04  0.18776205773E+04  0.00000000000E+00 0.  1.
<mgrwt>
<rscale>  0 0.37125835E+04</rscale>
<asrwt>0</asrwt>
<pdfrwt beam="1">  1        2 0.28046431E+00 0.37125835E+04</pdfrwt>
<pdfrwt beam="2">  1       -2 0.29079582E+00 0.37125835E+04</pdfrwt>
<totfact> 0.24481916E-01</totfact>
</mgrwt>
</event>
<event>
 6    1  0.9562506E-007  0.2568937E+04  0.7818608E-02  0.8378830E-01
         -2   -1    0    0    0  501 -0.00000000000E+00  0.00000000000E+00  0.15815026243E+04  0.15815026243E+04  0.00000000000E+00 0.  1.
          2   -1    0    0  501    0  0.00000000000E+00 -0.00000000000E+00 -0.10432229050E+04  0.10432229050E+04  0.00000000000E+00 0. -1.
         23    2    1    2    0    0  0.10754281762E+04 -0.49033279543E+03  0.77888476731E+03  0.14185485930E+04  0.92987190698E+02 0.  0.
         11    1    3    3    0    0  0.40424991484E+02 -0.14748000200E+02  0.51308205479E+02  0.66964284479E+02  0.00000000000E+00 0. -1.
        -11    1    3    3    0    0  0.10350031847E+04 -0.47558479523E+03  0.72757656183E+03  0.13515843085E+04  0.00000000000E+00 0.  1.
         22    1    1    2    0    0 -0.10754281762E+04  0.49033279543E+03 -0.24060504798E+03  0.12061769362E+04  0.00000000000E+00 0. -1.
<mgrwt>
<rscale>  0 0.25689373E+04</rscale>
<asrwt>0</asrwt>
<pdfrwt beam="1">  1        2 0.16049583E+00 0.25689373E+04</pdfrwt>
<pdfrwt beam="2">  1       -2 0.24330810E+00 0.25689373E+04</pdfrwt>
<totfact> 0.14813294E+00</totfact>
</mgrwt>
</event>
<event>
 6    1  0.9562506E-007  0.2047646E+04  0.7818608E-02  0.8584663E-01
         -1   -1    0    0    0  501 -0.00000000000E+00  0.00000000000E+00  0.93664075299E+03  0.93664075299E+03  0.00000000000E+00 0.  1.
          1   -1    0    0  501    0  0.00000000000E+00 -0.00000000000E+00 -0.11191197560E+04  0.11191197560E+04  0.00000000000E+00 0. -1.
         23    2    1    2    0    0  0.22487655895E+03  0.96249825940E+03  0.16811050674E+03  0.10070063098E+04  0.93958497672E+02 0.  0.
         13    1    3    3    0    0  0.94017714315E+02  0.25779638087E+03  0.73199772528E+02  0.28400090016E+03  0.00000000000E+00 0. -1.
        -13    1    3    3    0    0  0.13085884463E+03  0.70470187853E+03  0.94910734210E+02  0.72300540959E+03  0.00000000000E+00 0.  1.
         22    1    1    2    0    0 -0.22487655895E+03 -0.96249825940E+03 -0.35058950977E+03  0.10487541993E+04  0.00000000000E+00 0. -1.
<mgrwt>
<rscale>  0 0.20476456E+04</rscale>
<asrwt>0</asrwt>
<pdfrwt beam="1">  1        1 0.17217227E+00 0.20476456E+04</pdfrwt>
<pdfrwt beam="2">  1       -1 0.14409858E+00 0.20476456E+04</pdfrwt>
<totfact> 0.44024232E+00</totfact>
</mgrwt>
</event>
<event>
 6    1  0.9562506E-007  0.6099469E+03  0.7818608E-02  0.9884982E-01
         -1   -1    0    0    0  501 -0.00000000000E+00  0.00000000000E+00  0.49816567612E+02  0.49816567612E+02  0.00000000000E+00 0.  1.
          1   -1    0    0  501    0  0.00000000000E+00 -0.00000000000E+00 -0.18670257938E+04  0.18670257938E+04  0.00000000000E+00 0. -1.
         23    2    1    2    0    0  0.20543845343E+02  0.28769534334E+03 -0.69171669282E+03  0.75498001895E+03  0.91280807011E+02 0.  0.
         11    1    3    3    0    0  0.47880575947E+02  0.13828173571E+03 -0.40298295769E+03  0.42873027905E+03  0.00000000000E+00 0.  1.
        -11    1    3    3    0    0 -0.27336730604E+02  0.14941360763E+03 -0.28873373513E+03  0.32624973990E+03  0.00000000000E+00 0. -1.
         22    1    1    2    0    0 -0.20543845343E+02 -0.28769534334E+03 -0.11254925333E+04  0.11618623424E+04  0.00000000000E+00 0. -1.
<mgrwt>
<rscale>  0 0.60994694E+03</rscale>
<asrwt>0</asrwt>
<pdfrwt beam="1">  1        1 0.28723466E+00 0.60994694E+03</pdfrwt>
<pdfrwt beam="2">  1       -1 0.76640895E-02 0.60994694E+03</pdfrwt>
<totfact> 0.36464593E+02</totfact>
</mgrwt>
</event>
<event>
 6    1  0.9562506E-007  0.4155899E+03  0.7818608E-02  0.1038511E+00
         -2   -1    0    0    0  501 -0.00000000000E+00  0.00000000000E+00  0.33703248503E+02  0.33703248503E+02  0.00000000000E+00 0.  1.
          2   -1    0    0  501    0  0.00000000000E+00 -0.00000000000E+00 -0.12811447107E+04  0.12811447107E+04  0.00000000000E+00 0. -1.
         23    2    1    2    0    0 -0.18118409453E+03  0.47066036686E+02 -0.85064434980E+03  0.87611018294E+03  0.94500554890E+02 0.  0.
         13    1    3    3    0    0 -0.98219320268E+02  0.33418577076E+02 -0.65497292531E+03  0.66313902694E+03  0.00000000000E+00 0. -1.
        -13    1    3    3    0    0 -0.82964774257E+02  0.13647459610E+02 -0.19567142449E+03  0.21297115599E+03  0.00000000000E+00 0.  1.
         22    1    1    2    0    0  0.18118409453E+03 -0.47066036686E+02 -0.39679711237E+03  0.43873777625E+03  0.00000000000E+00 0.  1.
<mgrwt>
<rscale>  0 0.41558989E+03</rscale>
<asrwt>0</asrwt>
<pdfrwt beam="1">  1        2 0.19709921E+00 0.41558989E+03</pdfrwt>
<pdfrwt beam="2">  1       -2 0.51851145E-02 0.41558989E+03</pdfrwt>
<totfact> 0.33366005E+03</totfact>
</mgrwt>
</event>
<event>
 6    1  0.9562506E-007  0.3838268E+04  0.7818608E-02  0.8037992E-01
         -1   -1    0    0    0  501 -0.00000000000E+00  0.00000000000E+00  0.88666410497E+03  0.88666410497E+03  0.00000000000E+00 0.  1.
          1   -1    0    0  501    0  0.00000000000E+00 -0.00000000000E+00 -0.41538570232E+04  0.41538570232E+04  0.00000000000E+00 0. -1.
         23    2    1    2    0    0  0.12209585540E+03  0.10327077778E+04 -0.37510248633E+04  0.38935747025E+04  0.91343783692E+02 0.  0.
         13    1    3    3    0    0  0.12892714097E+03  0.81838986369E+03 -0.30464029287E+04  0.31570484603E+04  0.00000000000E+00 0.  1.
        -13    1    3    3    0    0 -0.68312855740E+01  0.21431791413E+03 -0.70462193452E+03  0.73652624216E+03  0.00000000000E+00 0. -1.
         22    1    1    2    0    0 -0.12209585540E+03 -0.10327077778E+04  0.48383194505E+03  0.11469464257E+04  0.00000000000E+00 0.  1.
<mgrwt>
<rscale>  0 0.38382683E+04</rscale>
<asrwt>0</asrwt>
<pdfrwt beam="1">  1        1 0.63905491E+00 0.38382683E+04</pdfrwt>
<pdfrwt beam="2">  1       -1 0.13640987E+00 0.38382683E+04</pdfrwt>
<totfact> 0.24728241E-02</totfact>
</mgrwt>
</event>
<event>
 6    1  0.9562506E-007  0.2263959E+04  0.7818608E-02  0.8492269E-01
          2   -1    0    0  501    0  0.00000000000E+00  0.00000000000E+00  0.18105028372E+04  0.18105028372E+04  0.00000000000E+00 0. -1.
         -2   -1    0    0    0  501 -0.00000000000E+00 -0.00000000000E+00 -0.70774653331E+03  0.70774653331E+03  0.00000000000E+00 0.  1.
         23    2    1    2    0    0 -0.22106889544E+03 -0.10088429303E+04  0.10623409544E+04  0.14846784175E+04  0.95216519398E+02 0.  0.
         11    1    3    3    0    0 -0.14303740431E+03 -0.43450430776E+03  0.45823571904E+03  0.64748256092E+03  0.00000000000E+00 0. -1.
        -11    1    3    3    0    0 -0.78031491127E+02 -0.57433862250E+03  0.60410523537E+03  0.83719585660E+03  0.00000000000E+00 0.  1.
         22    1    1    2    0    0  0.22106889544E+03  0.10088429303E+04  0.40415349520E+02  0.10335709530E+04  0.00000000000E+00 0.  1.
<mgrwt>
<rscale>  0 0.22639586E+04</rscale>
<asrwt>0</asrwt>
<pdfrwt beam="1">  1        2 0.27853890E+00 0.22639586E+04</pdfrwt>
<pdfrwt beam="2">  1       -2 0.10888408E+00 0.22639586E+04</pdfrwt>
<totfact> 0.52135427E+00</totfact>
</mgrwt>
</event>
<event>
 6    1  0.9562506E-007  0.1002928E+04  0.7818608E-02  0.9305339E-01
          2   -1    0    0  501    0  0.00000000000E+00  0.00000000000E+00  0.16077577229E+04  0.16077577229E+04  0.00000000000E+00 0. -1.
         -2   -1    0    0    0  501 -0.00000000000E+00 -0.00000000000E+00 -0.15640795508E+03  0.15640795508E+03  0.00000000000E+00 0.  1.
         23    2    1    2    0    0  0.21889574453E+03 -0.13359155163E+03  0.14811429231E+04  0.15059996815E+04  0.92133773014E+02 0.  0.
         11    1    3    3    0    0  0.55866614691E+02  0.61036064451E+01  0.37856728978E+03  0.38271598548E+03  0.00000000000E+00 0.  1.
        -11    1    3    3    0    0  0.16302912984E+03 -0.13969515808E+03  0.11025756334E+04  0.11232836960E+04  0.00000000000E+00 0. -1.
         22    1    1    2    0    0 -0.21889574453E+03  0.13359155163E+03 -0.29793155360E+02  0.25816599650E+03  0.00000000000E+00 0.  1.
<mgrwt>
<rscale>  0 0.10029279E+04</rscale>
<asrwt>0</asrwt>
<pdfrwt beam="1">  1        2 0.24734733E+00 0.10029279E+04</pdfrwt>
<pdfrwt beam="2">  1       -2 0.24062764E-01 0.10029279E+04</pdfrwt>
<totfact> 0.16939900E+02</totfact>
</mgrwt>
</event>
<event>
 6    1  0.9562506E-007  0.4776569E+04  0.7818608E-02  0.7863929E-01
         -1   -1    0    0    0  501 -0.00000000000E+00  0.00000000000E+00  0.20232201446E+04  0.20232201446E+04  0.00000000000E+00 0.  1.
          1   -1    0    0  501    0  0.00000000000E+00 -0.00000000000E+00 -0.28192202653E+04  0.28192202653E+04  0.00000000000E+00 0. -1.
         23    2    1    2    0    0  0.16058058473E+04  0.15165793231E+04  0.52047728287E+03  0.22711104006E+04  0.91763757543E+02 0.  0.
         11    1    3    3    0    0  0.56820072861E+03  0.53871135402E+03  0.22970682464E+03  0.81598236269E+03  0.00000000000E+00 0. -1.
        -11    1    3    3    0    0  0.10376051187E+04  0.97786796906E+03  0.29077045823E+03  0.14551280379E+04  0.00000000000E+00 0.  1.
         22    1    1    2    0    0 -0.16058058473E+04 -0.15165793231E+04 -0.13164774036E+04  0.25713300093E+04  0.00000000000E+00 0. -1.
<mgrwt>
<rscale>  0 0.47765692E+04</rscale>
<asrwt>0</asrwt>
<pdfrwt beam="1">  1        1 0.43372619E+00 0.47765692E+04</pdfrwt>
<pdfrwt beam="2">  1       -1 0.31126464E+00 0.47765692E+04</pdfrwt>
<totfact> 0.16556700E-02</totfact>
</mgrwt>
</event>
<event>
 6    1  0.9562506E-007  0.3333550E+04  0.7818608E-02  0.8154411E-01
          3   -1    0    0  501    0  0.00000000000E+00  0.00000000000E+00  0.26787209552E+04  0.26787209552E+04  0.00000000000E+00 0. -1.
         -3   -1    0    0    0  501 -0.00000000000E+00 -0.00000000000E+00 -0.10371139415E+04  0.10371139415E+04  0.00000000000E+00 0.  1.
         23    2    1    2    0    0 -0.16595959839E+04 -0.12717229953E+03  0.75511718007E+03  0.18300205239E+04  0.91332023926E+02 0.  0.
         13    1    3    3    0    0 -0.23207995938E+03 -0.15055191189E+02  0.14100790006E+03  0.27197609124E+03  0.00000000000E+00 0.  1.
        -13    1    3    3    0    0 -0.14275160245E+04 -0.11211710834E+03  0.61410928001E+03  0.15580444326E+04  0.00000000000E+00 0. -1.
         22    1    1    2    0    0  0.16595959839E+04  0.12717229953E+03  0.88648983367E+03  0.18858143728E+04  0.00000000000E+00 0.  1.
<mgrwt>
<rscale>  0 0.33335500E+04</rscale>
<asrwt>0</asrwt>
<pdfrwt beam="1">  1        3 0.41211091E+00 0.33335500E+04</pdfrwt>
<pdfrwt beam="2">  1       -3 0.15955599E+00 0.33335500E+04</pdfrwt>
<totfact> 0.56797728E-03</totfact>
</mgrwt>
</event>
<event>
 6    1  0.9562506E-007  0.9808642E+03  0.7818608E-02  0.9329785E-01
          2   -1    0    0  501    0  0.00000000000E+00  0.00000000000E+00  0.87804002546E+03  0.87804002546E+03  0.00000000000E+00 0. -1.
         -2   -1    0    0    0  501 -0.00000000000E+00 -0.00000000000E+00 -0.27393243024E+03  0.27393243024E+03  0.00000000000E+00 0.  1.
         23    2    1    2    0    0  0.66323977961E+02  0.19921419178E+03  0.81917323219E+03  0.85140899741E+03  0.98829814739E+02 0.  0.
         11    1    3    3    0    0 -0.11136897501E+02  0.71112401127E+02  0.15991224273E+03  0.17536513181E+03  0.00000000000E+00 0. -1.
        -11    1    3    3    0    0  0.77460875462E+02  0.12810179065E+03  0.65926098946E+03  0.67604386560E+03  0.00000000000E+00 0.  1.
         22    1    1    2    0    0 -0.66323977961E+02 -0.19921419178E+03 -0.21506563696E+03  0.30056345829E+03  0.00000000000E+00 0.  1.
<mgrwt>
<rscale>  0 0.98086419E+03</rscale>
<asrwt>0</asrwt>
<pdfrwt beam="1">  1        2 0.13508308E+00 0.98086419E+03</pdfrwt>
<pdfrwt beam="2">  1       -2 0.42143451E-01 0.98086419E+03</pdfrwt>
<totfact> 0.16175377E+02</totfact>
</mgrwt>
</event>
<event>
 6    1  0.9562506E-007  0.3074543E+04  0.7818608E-02  0.8222759E-01
          2   -1    0    0  501    0  0.00000000000E+00  0.00000000000E+00  0.18744703577E+04  0.18744703577E+04  0.00000000000E+00 0. -1.
         -2   -1    0    0    0  501 -0.00000000000E+00 -0.00000000000E+00 -0.12607318145E+04  0.12607318145E+04  0.00000000000E+00 0.  1.
         23    2    1    2    0    0 -0.13258709295E+04  0.60873150512E+03 -0.18329213396E+03  0.14727504684E+04  0.83127426154E+02 0.  0.
         11    1    3    3    0    0 -0.35889127643E+03  0.19812848031E+03 -0.29505026979E+02  0.41100898971E+03  0.00000000000E+00 0.  1.
        -11    1    3    3    0    0 -0.96697965303E+03  0.41060302481E+03 -0.15378710698E+03  0.10617414787E+04  0.00000000000E+00 0. -1.
         22    1    1    2    0    0  0.13258709295E+04 -0.60873150512E+03  0.79703067718E+03  0.16624517037E+04  0.00000000000E+00 0. -1.
<mgrwt>
<rscale>  0 0.30745435E+04</rscale>
<asrwt>0</asrwt>
<pdfrwt beam="1">  1        2 0.28838006E+00 0.30745435E+04</pdfrwt>
<pdfrwt beam="2">  1       -2 0.19395874E+00 0.30745435E+04</pdfrwt>
<totfact> 0.97347315E-01</totfact>
</mgrwt>
</event>
<event>
 6    1  0.9562506E-007  0.1258119E+04  0.7818608E-02  0.9063452E-01
         -2   -1    0    0    0  501 -0.00000000000E+00  0.00000000000E+00  0.21284529726E+03  0.21284529726E+03  0.00000000000E+00 0.  1.
          2   -1    0    0  501    0  0.00000000000E+00 -0.00000000000E+00 -0.18591725832E+04  0.18591725832E+04  0.00000000000E+00 0. -1.
         23    2    1    2    0    0  0.38885895716E+03 -0.48188929179E+03 -0.97625580685E+03  0.11596449495E+04  0.90952901753E+02 0.  0.
         11    1    3    3    0    0  0.41700112775E+02 -0.62199175258E+02 -0.17969997971E+03  0.19467850296E+03  0.00000000000E+00 0.  1.
        -11    1    3    3    0    0  0.34715884438E+03 -0.41969011653E+03 -0.79655582713E+03  0.96496644651E+03  0.00000000000E+00 0. -1.
         22    1    1    2    0    0 -0.38885895716E+03  0.48188929179E+03 -0.67007147911E+03  0.91237293100E+03  0.00000000000E+00 0.  1.
<mgrwt>
<rscale>  0 0.12581195E+04</rscale>
<asrwt>0</asrwt>
<pdfrwt beam="1">  1        2 0.28602655E+00 0.12581195E+04</pdfrwt>
<pdfrwt beam="2">  1       -2 0.32745430E-01 0.12581195E+04</pdfrwt>
<totfact> 0.68416400E+01</totfact>
</mgrwt>
</event>
<event>
 6    1  0.9562506E-007  0.1287663E+04  0.7818608E-02  0.9039406E-01
         -2   -1    0    0    0  501 -0.00000000000E+00  0.00000000000E+00  0.51198655314E+03  0.51198655314E+03  0.00000000000E+00 0.  1.
          2   -1    0    0  501    0  0.00000000000E+00 -0.00000000000E+00 -0.80962834576E+03  0.80962834576E+03  0.00000000000E+00 0. -1.
         23    2    1    2    0    0 -0.54405106722E+03 -0.41369326949E+02  0.19442548695E+03  0.58688148290E+03  0.94475499697E+02 0.  0.
         11    1    3    3    0    0 -0.53300355824E+03 -0.51921908706E+02  0.19839808579E+03  0.57109585723E+03  0.00000000000E+00 0. -1.
        -11    1    3    3    0    0 -0.11047508981E+02  0.10552581757E+02 -0.39725988367E+01  0.15785625675E+02  0.00000000000E+00 0.  1.
         22    1    1    2    0    0  0.54405106722E+03  0.41369326949E+02 -0.49206727958E+03  0.73473341600E+03  0.00000000000E+00 0. -1.
<mgrwt>
<rscale>  0 0.12876627E+04</rscale>
<asrwt>0</asrwt>
<pdfrwt beam="1">  1        2 0.12455821E+00 0.12876627E+04</pdfrwt>
<pdfrwt beam="2">  1       -2 0.78767163E-01 0.12876627E+04</pdfrwt>
<totfact> 0.47622066E+01</totfact>
</mgrwt>
</event>
<event>
 6    1  0.9562506E-007  0.2904491E+04  0.7818608E-02  0.8271542E-01
          1   -1    0    0  501    0  0.00000000000E+00  0.00000000000E+00  0.25110533933E+04  0.25110533933E+04  0.00000000000E+00 0. -1.
         -1   -1    0    0    0  501 -0.00000000000E+00 -0.00000000000E+00 -0.83989343038E+03  0.83989343038E+03  0.00000000000E+00 0.  1.
         23    2    1    2    0    0  0.50651890744E+03 -0.85288178068E+02  0.24017930016E+04  0.24578286264E+04  0.92067678426E+02 0.  0.
         11    1    3    3    0    0  0.22529999498E+03 -0.62331928618E+02  0.90704902280E+03  0.93668740080E+03  0.00000000000E+00 0. -1.
        -11    1    3    3    0    0  0.28121891246E+03 -0.22956249450E+02  0.14947439788E+04  0.15211412256E+04  0.00000000000E+00 0.  1.
         22    1    1    2    0    0 -0.50651890744E+03  0.85288178068E+02 -0.73063303873E+03  0.89311819721E+03  0.00000000000E+00 0.  1.
<mgrwt>
<rscale>  0 0.29044912E+04</rscale>
<asrwt>0</asrwt>
<pdfrwt beam="1">  1        1 0.38631590E+00 0.29044912E+04</pdfrwt>
<pdfrwt beam="2">  1       -1 0.12921437E+00 0.29044912E+04</pdfrwt>
<totfact> 0.58786386E-01</totfact>
</mgrwt>
</event>
<event>
 6    1  0.1353299E-006  0.4020562E+04  0.7818608E-02  0.8000411E-01
         -2   -1    0    0    0  501 -0.00000000000E+00  0.00000000000E+00  0.17106313065E+04  0.17106313065E+04  0.00000000000E+00 0.  1.
          2   -1    0    0  501    0  0.00000000000E+00 -0.00000000000E+00 -0.23624206097E+04  0.23624206097E+04  0.00000000000E+00 0. -1.
         23    2    1    2    0    0 -0.33956261729E+03 -0.10203992927E+04 -0.20454639958E+04  0.23126977937E+04  0.90170057529E+02 0.  0.
         13    1    3    3    0    0 -0.48629464029E+02 -0.24576787882E+03 -0.52251103969E+03  0.57946912051E+03  0.00000000000E+00 0.  1.
        -13    1    3    3    0    0 -0.29093315327E+03 -0.77463141384E+03 -0.15229529561E+04  0.17332286732E+04  0.00000000000E+00 0. -1.
         22    1    1    2    0    0  0.33956261729E+03  0.10203992927E+04  0.13936746926E+04  0.17603541224E+04  0.00000000000E+00 0.  1.
<mgrwt>
<rscale>  0 0.40205625E+04</rscale>
<asrwt>0</asrwt>
<pdfrwt beam="1">  1        2 0.36344933E+00 0.40205625E+04</pdfrwt>
<pdfrwt beam="2">  1       -2 0.26317405E+00 0.40205625E+04</pdfrwt>
<totfact> 0.17554110E-01</totfact>
</mgrwt>
</event>
<event>
 6    1  0.9562506E-007  0.5074225E+04  0.7818608E-02  0.7817158E-01
          1   -1    0    0  501    0  0.00000000000E+00  0.00000000000E+00  0.26379972768E+04  0.26379972768E+04  0.00000000000E+00 0. -1.
         -1   -1    0    0    0  501 -0.00000000000E+00 -0.00000000000E+00 -0.24400856612E+04  0.24400856612E+04  0.00000000000E+00 0.  1.
         23    2    1    2    0    0 -0.48480136357E+03  0.16916698155E+04 -0.17288362088E+04  0.24686507573E+04  0.92643391766E+02 0.  0.
         13    1    3    3    0    0 -0.22211527743E+03  0.68657953129E+03 -0.76288752265E+03  0.10501066715E+04  0.00000000000E+00 0. -1.
        -13    1    3    3    0    0 -0.26268608614E+03  0.10050902842E+04 -0.96594868616E+03  0.14185440858E+04  0.00000000000E+00 0.  1.
         22    1    1    2    0    0  0.48480136357E+03 -0.16916698155E+04  0.19267478244E+04  0.26094321807E+04  0.00000000000E+00 0. -1.
<mgrwt>
<rscale>  0 0.50742248E+04</rscale>
<asrwt>0</asrwt>
<pdfrwt beam="1">  1        1 0.40584574E+00 0.50742248E+04</pdfrwt>
<pdfrwt beam="2">  1       -1 0.37539779E+00 0.50742248E+04</pdfrwt>
<totfact> 0.81880080E-03</totfact>
</mgrwt>
</event>
<event>
 6    1  0.9562506E-007  0.4556780E+04  0.7818608E-02  0.7900771E-01
         -2   -1    0    0    0  501 -0.00000000000E+00  0.00000000000E+00  0.15516770911E+04  0.15516770911E+04  0.00000000000E+00 0.  1.
          2   -1    0    0  501    0  0.00000000000E+00 -0.00000000000E+00 -0.33454514947E+04  0.33454514947E+04  0.00000000000E+00 0. -1.
         23    2    1    2    0    0 -0.16653426119E+04  0.70201431283E+03  0.59216389320E+03  0.19039878162E+04  0.91221803268E+02 0.  0.
         11    1    3    3    0    0 -0.42659925734E+03  0.17448275618E+03  0.10984862032E+03  0.47381207029E+03  0.00000000000E+00 0. -1.
        -11    1    3    3    0    0 -0.12387433546E+04  0.52753155665E+03  0.48231527288E+03  0.14301757459E+04  0.00000000000E+00 0.  1.
         22    1    1    2    0    0  0.16653426119E+04 -0.70201431283E+03 -0.23859382968E+04  0.29931407696E+04  0.00000000000E+00 0. -1.
<mgrwt>
<rscale>  0 0.45567798E+04</rscale>
<asrwt>0</asrwt>
<pdfrwt beam="1">  1        2 0.51468484E+00 0.45567798E+04</pdfrwt>
<pdfrwt beam="2">  1       -2 0.23871956E+00 0.45567798E+04</pdfrwt>
<totfact> 0.58998357E-02</totfact>
</mgrwt>
</event>
<event>
 6    1  0.9562506E-007  0.2303679E+04  0.7818608E-02  0.8476472E-01
         -2   -1    0    0    0  501 -0.00000000000E+00  0.00000000000E+00  0.85201236810E+03  0.85201236810E+03  0.00000000000E+00 0.  1.
          2   -1    0    0  501    0  0.00000000000E+00 -0.00000000000E+00 -0.15571770432E+04  0.15571770432E+04  0.00000000000E+00 0. -1.
         23    2    1    2    0    0 -0.37657654982E+03  0.47602530458E+03  0.66846203986E+03  0.90743698812E+03  0.90500829848E+02 0.  0.
         11    1    3    3    0    0 -0.22080265575E+03  0.32976457056E+03  0.38973728551E+03  0.55623163925E+03  0.00000000000E+00 0. -1.
        -11    1    3    3    0    0 -0.15577389408E+03  0.14626073401E+03  0.27872475435E+03  0.35120534887E+03  0.00000000000E+00 0.  1.
         22    1    1    2    0    0  0.37657654982E+03 -0.47602530458E+03 -0.13736267149E+04  0.15017524232E+04  0.00000000000E+00 0. -1.
<mgrwt>
<rscale>  0 0.23036789E+04</rscale>
<asrwt>0</asrwt>
<pdfrwt beam="1">  1        2 0.23956570E+00 0.23036789E+04</pdfrwt>
<pdfrwt beam="2">  1       -2 0.13107883E+00 0.23036789E+04</pdfrwt>
<totfact> 0.45438158E+00</totfact>
</mgrwt>
</event>
<event>
 6    1  0.9562506E-007  0.2333409E+04  0.7818608E-02  0.8464864E-01
         -1   -1    0    0    0  501 -0.00000000000E+00  0.00000000000E+00  0.10864052022E+04  0.10864052022E+04  0.00000000000E+00 0.  1.
          1   -1    0    0  501    0  0.00000000000E+00 -0.00000000000E+00 -0.12529392694E+04  0.12529392694E+04  0.00000000000E+00 0. -1.
         23    2    1    2    0    0 -0.54913793375E+03 -0.54891518043E+03  0.78718541347E+03  0.11095309925E+04  0.92400230179E+02 0.  0.
         11    1    3    3    0    0 -0.33059427498E+03 -0.26822814794E+03  0.44783537160E+03  0.61789597349E+03  0.00000000000E+00 0. -1.
        -11    1    3    3    0    0 -0.21854365876E+03 -0.28068703248E+03  0.33935004187E+03  0.49163501900E+03  0.00000000000E+00 0.  1.
         22    1    1    2    0    0  0.54913793375E+03  0.54891518043E+03 -0.95371948068E+03  0.12298134791E+04  0.00000000000E+00 0. -1.
<mgrwt>
<rscale>  0 0.23334093E+04</rscale>
<asrwt>0</asrwt>
<pdfrwt beam="1">  1        1 0.19275989E+00 0.23334093E+04</pdfrwt>
<pdfrwt beam="2">  1       -1 0.16713926E+00 0.23334093E+04</pdfrwt>
<totfact> 0.22770236E+00</totfact>
</mgrwt>
</event>
<event>
 6    1  0.9562506E-007  0.2241379E+04  0.7818608E-02  0.8501400E-01
          2   -1    0    0  501    0  0.00000000000E+00  0.00000000000E+00  0.22449896936E+04  0.22449896936E+04  0.00000000000E+00 0. -1.
         -2   -1    0    0    0  501 -0.00000000000E+00 -0.00000000000E+00 -0.55944358740E+03  0.55944358740E+03  0.00000000000E+00 0.  1.
         23    2    1    2    0    0 -0.74774682409E+03 -0.18862929700E+03  0.18583396123E+04  0.20141397150E+04  0.92878159489E+02 0.  0.
         13    1    3    3    0    0 -0.26178970418E+03 -0.38906763176E+02  0.73053947819E+03  0.77700419216E+03  0.00000000000E+00 0.  1.
        -13    1    3    3    0    0 -0.48595711991E+03 -0.14972253383E+03  0.11278001341E+04  0.12371355229E+04  0.00000000000E+00 0. -1.
         22    1    1    2    0    0  0.74774682409E+03  0.18862929700E+03 -0.17279350610E+03  0.79029356595E+03  0.00000000000E+00 0.  1.
<mgrwt>
<rscale>  0 0.22413791E+04</rscale>
<asrwt>0</asrwt>
<pdfrwt beam="1">  1        2 0.34538302E+00 0.22413791E+04</pdfrwt>
<pdfrwt beam="2">  1       -2 0.86068246E-01 0.22413791E+04</pdfrwt>
<totfact> 0.51953376E+00</totfact>
</mgrwt>
</event>
<event>
 6    1  0.9562506E-007  0.2511486E+04  0.7818608E-02  0.8398905E-01
         -2   -1    0    0    0  501 -0.00000000000E+00  0.00000000000E+00  0.13041119541E+04  0.13041119541E+04  0.00000000000E+00 0.  1.
          2   -1    0    0  501    0  0.00000000000E+00 -0.00000000000E+00 -0.12091684120E+04  0.12091684120E+04  0.00000000000E+00 0. -1.
         23    2    1    2    0    0 -0.25240206245E+03 -0.25907525230E+02 -0.11814389245E+04  0.12119233045E+04  0.92639963409E+02 0.  0.
         11    1    3    3    0    0 -0.63651539621E+02  0.76647035635E+01 -0.49781937333E+03  0.50193066717E+03  0.00000000000E+00 0.  1.
        -11    1    3    3    0    0 -0.18875052283E+03 -0.33572228794E+02 -0.68361955113E+03  0.70999263735E+03  0.00000000000E+00 0. -1.
         22    1    1    2    0    0  0.25240206245E+03  0.25907525230E+02  0.12763824665E+04  0.13013570616E+04  0.00000000000E+00 0.  1.
<mgrwt>
<rscale>  0 0.25114864E+04</rscale>
<asrwt>0</asrwt>
<pdfrwt beam="1">  1        2 0.18602591E+00 0.25114864E+04</pdfrwt>
<pdfrwt beam="2">  1       -2 0.20063261E+00 0.25114864E+04</pdfrwt>
<totfact> 0.21953341E+00</totfact>
</mgrwt>
</event>
<event>
 6    1  0.9562506E-007  0.1171065E+04  0.7818608E-02  0.9138567E-01
         -2   -1    0    0    0  501 -0.00000000000E+00  0.00000000000E+00  0.17448836314E+03  0.17448836314E+03  0.00000000000E+00 0.  1.
          2   -1    0    0  501    0  0.00000000000E+00 -0.00000000000E+00 -0.19648790101E+04  0.19648790101E+04  0.00000000000E+00 0. -1.
         23    2    1    2    0    0  0.49531371717E+03 -0.21589464106E+03 -0.50711049105E+03  0.74697585752E+03  0.94157884112E+02 0.  0.
         11    1    3    3    0    0  0.49929819359E+03 -0.21103838637E+03 -0.50283367281E+03  0.73937648674E+03  0.00000000000E+00 0.  1.
        -11    1    3    3    0    0 -0.39844764203E+01 -0.48562546944E+01 -0.42768182385E+01  0.75993707797E+01  0.00000000000E+00 0. -1.
         22    1    1    2    0    0 -0.49531371717E+03  0.21589464106E+03 -0.12832801559E+04  0.13923915157E+04  0.00000000000E+00 0. -1.
<mgrwt>
<rscale>  0 0.11710654E+04</rscale>
<asrwt>0</asrwt>
<pdfrwt beam="1">  1        2 0.30228906E+00 0.11710654E+04</pdfrwt>
<pdfrwt beam="2">  1       -2 0.26844365E-01 0.11710654E+04</pdfrwt>
<totfact> 0.87149822E+01</totfact>
</mgrwt>
</event>
<event>
 6    1  0.9562506E-007  0.2130001E+04  0.7818608E-02  0.8548142E-01
          2   -1    0    0  501    0  0.00000000000E+00  0.00000000000E+00  0.19705358724E+04  0.19705358724E+04  0.00000000000E+00 0. -1.
         -2   -1    0    0    0  501 -0.00000000000E+00 -0.00000000000E+00 -0.57559255048E+03  0.57559255048E+03  0.00000000000E+00 0.  1.
         23    2    1    2    0    0  0.74007345819E+03  0.64464562272E+03  0.11872382481E+04  0.15429245054E+04  0.88344038579E+02 0.  0.
         13    1    3    3    0    0  0.93263129211E+02  0.59376517805E+02  0.17132156048E+03  0.20389864939E+03  0.00000000000E+00 0. -1.
        -13    1    3    3    0    0  0.64681032898E+03  0.58526910491E+03  0.10159166876E+04  0.13390258560E+04  0.00000000000E+00 0.  1.
         22    1    1    2    0    0 -0.74007345819E+03 -0.64464562272E+03  0.20770507381E+03  0.10032039175E+04  0.00000000000E+00 0.  1.
<mgrwt>
<rscale>  0 0.21300007E+04</rscale>
<asrwt>0</asrwt>
<pdfrwt beam="1">  1        2 0.30315936E+00 0.21300007E+04</pdfrwt>
<pdfrwt beam="2">  1       -2 0.88552701E-01 0.21300007E+04</pdfrwt>
<totfact> 0.69967216E+00</totfact>
</mgrwt>
</event>
<event>
 6    1  0.9562506E-007  0.1332513E+04  0.7818608E-02  0.9004172E-01
          2   -1    0    0  501    0  0.00000000000E+00  0.00000000000E+00  0.17825447749E+04  0.17825447749E+04  0.00000000000E+00 0. -1.
         -2   -1    0    0    0  501 -0.00000000000E+00 -0.00000000000E+00 -0.24902480406E+03  0.24902480406E+03  0.00000000000E+00 0.  1.
         23    2    1    2    0    0  0.49802922585E+03  0.49251021029E+02  0.10768227352E+03  0.52045346432E+03  0.93901882904E+02 0.  0.
         13    1    3    3    0    0  0.22306950329E+03 -0.12019962974E+02  0.80445012073E+02  0.23743606040E+03  0.00000000000E+00 0.  1.
        -13    1    3    3    0    0  0.27495972256E+03  0.61270984003E+02  0.27237261452E+02  0.28301740392E+03  0.00000000000E+00 0. -1.
         22    1    1    2    0    0 -0.49802922585E+03 -0.49251021029E+02  0.14258376973E+04  0.15111161146E+04  0.00000000000E+00 0. -1.
<mgrwt>
<rscale>  0 0.13325132E+04</rscale>
<asrwt>0</asrwt>
<pdfrwt beam="1">  1        2 0.27423765E+00 0.13325132E+04</pdfrwt>
<pdfrwt beam="2">  1       -2 0.38311509E-01 0.13325132E+04</pdfrwt>
<totfact> 0.55521770E+01</totfact>
</mgrwt>
</event>
<event>
 6    1  0.9562506E-007  0.1718625E+04  0.7818608E-02  0.8750813E-01
          1   -1    0    0  501    0  0.00000000000E+00  0.00000000000E+00  0.96883159952E+03  0.96883159952E+03  0.00000000000E+00 0. -1.
         -1   -1    0    0    0  501 -0.00000000000E+00 -0.00000000000E+00 -0.76217346888E+03  0.76217346888E+03  0.00000000000E+00 0.  1.
         23    2    1    2    0    0  0.97342555654E+02 -0.77629206047E+03  0.45580343522E+03  0.90992144350E+03  0.89974026795E+02 0.  0.
         13    1    3    3    0    0  0.11317319957E+02 -0.14906242132E+03  0.48691619204E+02  0.15722137565E+03  0.00000000000E+00 0.  1.
        -13    1    3    3    0    0  0.86025235697E+02 -0.62722963915E+03  0.40711181602E+03  0.75270006785E+03  0.00000000000E+00 0. -1.
         22    1    1    2    0    0 -0.97342555654E+02  0.77629206047E+03 -0.24914530458E+03  0.82108362490E+03  0.00000000000E+00 0.  1.
<mgrwt>
<rscale>  0 0.17186247E+04</rscale>
<asrwt>0</asrwt>
<pdfrwt beam="1">  1        1 0.14905102E+00 0.17186247E+04</pdfrwt>
<pdfrwt beam="2">  1       -1 0.11725746E+00 0.17186247E+04</pdfrwt>
<totfact> 0.99661915E+00</totfact>
</mgrwt>
</event>
<event>
 6    1  0.9562506E-007  0.1480415E+04  0.7818608E-02  0.8897582E-01
          2   -1    0    0  501    0  0.00000000000E+00  0.00000000000E+00  0.98442320590E+03  0.98442320590E+03  0.00000000000E+00 0. -1.
         -2   -1    0    0    0  501 -0.00000000000E+00 -0.00000000000E+00 -0.55657648884E+03  0.55657648884E+03  0.00000000000E+00 0.  1.
         23    2    1    2    0    0  0.66492936320E+03  0.25532515122E+03  0.41427697679E+03  0.82860505078E+03  0.87400948404E+02 0.  0.
         11    1    3    3    0    0  0.35695760200E+03  0.17185012550E+03  0.26264555928E+03  0.47532503097E+03  0.00000000000E+00 0.  1.
        -11    1    3    3    0    0  0.30797176120E+03  0.83475025719E+02  0.15163141751E+03  0.35328001980E+03  0.00000000000E+00 0. -1.
         22    1    1    2    0    0 -0.66492936320E+03 -0.25532515122E+03  0.13569740271E+02  0.71239464396E+03  0.00000000000E+00 0.  1.
<mgrwt>
<rscale>  0 0.14804146E+04</rscale>
<asrwt>0</asrwt>
<pdfrwt beam="1">  1        2 0.15144972E+00 0.14804146E+04</pdfrwt>
<pdfrwt beam="2">  1       -2 0.85627152E-01 0.14804146E+04</pdfrwt>
<totfact> 0.29562598E+01</totfact>
</mgrwt>
</event>
<event>
 6    1  0.9562506E-007  0.3255774E+04  0.7818608E-02  0.8174241E-01
         -2   -1    0    0    0  501 -0.00000000000E+00  0.00000000000E+00  0.13617752362E+04  0.13617752362E+04  0.00000000000E+00 0.  1.
          2   -1    0    0  501    0  0.00000000000E+00 -0.00000000000E+00 -0.19460009681E+04  0.19460009681E+04  0.00000000000E+00 0. -1.
         23    2    1    2    0    0 -0.21057659408E+03  0.16079837550E+04 -0.41993931036E+03  0.16777626196E+04  0.92650553083E+02 0.  0.
         13    1    3    3    0    0 -0.50548543977E+02  0.17472639979E+03 -0.57314473308E+02  0.19070767927E+03  0.00000000000E+00 0. -1.
        -13    1    3    3    0    0 -0.16002805010E+03  0.14332573552E+04 -0.36262483705E+03  0.14870549403E+04  0.00000000000E+00 0.  1.
         22    1    1    2    0    0  0.21057659408E+03 -0.16079837550E+04 -0.16428642150E+03  0.16300135848E+04  0.00000000000E+00 0. -1.
<mgrwt>
<rscale>  0 0.32557739E+04</rscale>
<asrwt>0</asrwt>
<pdfrwt beam="1">  1        2 0.29938476E+00 0.32557739E+04</pdfrwt>
<pdfrwt beam="2">  1       -2 0.20950388E+00 0.32557739E+04</pdfrwt>
<totfact> 0.69233315E-01</totfact>
</mgrwt>
</event>
<event>
 6    1  0.9562506E-007  0.1395145E+04  0.7818608E-02  0.8957340E-01
         -2   -1    0    0    0  501 -0.00000000000E+00  0.00000000000E+00  0.48631335919E+03  0.48631335919E+03  0.00000000000E+00 0.  1.
          2   -1    0    0  501    0  0.00000000000E+00 -0.00000000000E+00 -0.10006045161E+04  0.10006045161E+04  0.00000000000E+00 0. -1.
         23    2    1    2    0    0  0.56567130471E+03 -0.12866089030E+03  0.14926480665E+03  0.60553023842E+03  0.88595922453E+02 0.  0.
         11    1    3    3    0    0  0.35344691171E+03 -0.94792707724E+02  0.51923081396E+02  0.36960300759E+03  0.00000000000E+00 0.  1.
        -11    1    3    3    0    0  0.21222439300E+03 -0.33868182575E+02  0.97341725252E+02  0.23592723084E+03  0.00000000000E+00 0. -1.
         22    1    1    2    0    0 -0.56567130471E+03  0.12866089030E+03 -0.66355596357E+03  0.88138763689E+03  0.00000000000E+00 0.  1.
<mgrwt>
<rscale>  0 0.13951449E+04</rscale>
<asrwt>0</asrwt>
<pdfrwt beam="1">  1        2 0.15393915E+00 0.13951449E+04</pdfrwt>
<pdfrwt beam="2">  1       -2 0.74817441E-01 0.13951449E+04</pdfrwt>
<totfact> 0.39348247E+01</totfact>
</mgrwt>
</event>
<event>
 6    1  0.9562506E-007  0.1573107E+04  0.7818608E-02  0.8837242E-01
         -1   -1    0    0    0  501 -0.00000000000E+00  0.00000000000E+00  0.31044655168E+03  0.31044655168E+03  0.00000000000E+00 0.  1.
          1   -1    0    0  501    0  0.00000000000E+00 -0.00000000000E+00 -0.19928283625E+04  0.19928283625E+04  0.00000000000E+00 0. -1.
         23    2    1    2    0    0  0.58208734530E+03  0.51204411577E+03 -0.67362685362E+03  0.10310322417E+04  0.90771644332E+02 0.  0.
         13    1    3    3    0    0  0.53769941861E+03  0.46284100818E+03 -0.64503740154E+03  0.95886167563E+03  0.00000000000E+00 0. -1.
        -13    1    3    3    0    0  0.44387926697E+02  0.49203107592E+02 -0.28589452082E+02  0.72170566047E+02  0.00000000000E+00 0.  1.
         22    1    1    2    0    0 -0.58208734530E+03 -0.51204411577E+03 -0.10087549572E+04  0.12722426725E+04  0.00000000000E+00 0. -1.
<mgrwt>
<rscale>  0 0.15731074E+04</rscale>
<asrwt>0</asrwt>
<pdfrwt beam="1">  1        1 0.30658898E+00 0.15731074E+04</pdfrwt>
<pdfrwt beam="2">  1       -1 0.47761008E-01 0.15731074E+04</pdfrwt>
<totfact> 0.12695167E+01</totfact>
</mgrwt>
</event>
<event>
 6    1  0.9562506E-007  0.2539825E+04  0.7818608E-02  0.8388933E-01
          2   -1    0    0  501    0  0.00000000000E+00  0.00000000000E+00  0.27014848213E+04  0.27014848213E+04  0.00000000000E+00 0. -1.
         -2   -1    0    0    0  501 -0.00000000000E+00 -0.00000000000E+00 -0.59695978344E+03  0.59695978344E+03  0.00000000000E+00 0.  1.
         23    2    1    2    0    0 -0.11830483143E+04  0.43071424454E+00  0.46012353516E+03  0.12726954096E+04  0.91850087396E+02 0.  0.
         11    1    3    3    0    0 -0.13782647176E+03  0.29116748794E+02  0.60635777365E+02  0.15336433378E+03  0.00000000000E+00 0. -1.
        -11    1    3    3    0    0 -0.10452218425E+04 -0.28686034549E+02  0.39948775779E+03  0.11193310758E+04  0.00000000000E+00 0.  1.
         22    1    1    2    0    0  0.11830483143E+04 -0.43071424454E+00  0.16444015028E+04  0.20257491952E+04  0.00000000000E+00 0. -1.
<mgrwt>
<rscale>  0 0.25398250E+04</rscale>
<asrwt>0</asrwt>
<pdfrwt beam="1">  1        2 0.41561304E+00 0.25398250E+04</pdfrwt>
<pdfrwt beam="2">  1       -2 0.91839968E-01 0.25398250E+04</pdfrwt>
<totfact> 0.23753329E+00</totfact>
</mgrwt>
</event>
<event>
 6    1  0.9562506E-007  0.5667144E+04  0.7818608E-02  0.7733100E-01
          2   -1    0    0  501    0  0.00000000000E+00  0.00000000000E+00  0.38482037487E+04  0.38482037487E+04  0.00000000000E+00 0. -1.
         -2   -1    0    0    0  501 -0.00000000000E+00 -0.00000000000E+00 -0.20864615940E+04  0.20864615940E+04  0.00000000000E+00 0.  1.
         23    2    1    2    0    0  0.54020851952E+03  0.53821702616E+02  0.37926899089E+04  0.38324115995E+04  0.90332178300E+02 0.  0.
         11    1    3    3    0    0  0.51156685096E+03  0.29236276784E+02  0.35573708654E+04  0.35940844282E+04  0.00000000000E+00 0.  1.
        -11    1    3    3    0    0  0.28641668557E+02  0.24585425833E+02  0.23531904352E+03  0.23832717131E+03  0.00000000000E+00 0. -1.
         22    1    1    2    0    0 -0.54020851952E+03 -0.53821702616E+02 -0.20309477543E+04  0.21022537432E+04  0.00000000000E+00 0.  1.
<mgrwt>
<rscale>  0 0.56671437E+04</rscale>
<asrwt>0</asrwt>
<pdfrwt beam="1">  1        2 0.59203134E+00 0.56671437E+04</pdfrwt>
<pdfrwt beam="2">  1       -2 0.32099409E+00 0.56671437E+04</pdfrwt>
<totfact> 0.73244726E-03</totfact>
</mgrwt>
</event>
<event>
 6    1  0.9562506E-007  0.1879344E+04  0.7818608E-02  0.8665207E-01
          1   -1    0    0  501    0  0.00000000000E+00  0.00000000000E+00  0.37956810182E+04  0.37956810182E+04  0.00000000000E+00 0. -1.
         -1   -1    0    0    0  501 -0.00000000000E+00 -0.00000000000E+00 -0.23262845858E+03  0.23262845858E+03  0.00000000000E+00 0.  1.
         23    2    1    2    0    0 -0.74551715112E+03  0.54222659375E+03  0.21509065026E+04  0.23419044282E+04  0.91170533508E+02 0.  0.
         11    1    3    3    0    0 -0.40745674595E+03  0.24216170055E+03  0.10693293709E+04  0.11696702923E+04  0.00000000000E+00 0.  1.
        -11    1    3    3    0    0 -0.33806040517E+03  0.30006489320E+03  0.10815771317E+04  0.11722341359E+04  0.00000000000E+00 0. -1.
         22    1    1    2    0    0  0.74551715112E+03 -0.54222659375E+03  0.14121460570E+04  0.16864050486E+04  0.00000000000E+00 0. -1.
<mgrwt>
<rscale>  0 0.18793440E+04</rscale>
<asrwt>0</asrwt>
<pdfrwt beam="1">  1        1 0.58395088E+00 0.18793440E+04</pdfrwt>
<pdfrwt beam="2">  1       -1 0.35788996E-01 0.18793440E+04</pdfrwt>
<totfact> 0.10123507E+00</totfact>
</mgrwt>
</event>
<event>
 6    1  0.9562506E-007  0.6878895E+03  0.7818608E-02  0.9738170E-01
          2   -1    0    0  501    0  0.00000000000E+00  0.00000000000E+00  0.12997767173E+03  0.12997767173E+03  0.00000000000E+00 0. -1.
         -2   -1    0    0    0  501 -0.00000000000E+00 -0.00000000000E+00 -0.91014075868E+03  0.91014075868E+03  0.00000000000E+00 0.  1.
         23    2    1    2    0    0 -0.52411737848E+02 -0.19271171333E+03  0.15903502161E+02  0.21938290113E+03  0.89393183219E+02 0.  0.
         13    1    3    3    0    0  0.93816993342E+01 -0.11293731827E+03  0.30663167288E+02  0.11740137976E+03  0.00000000000E+00 0. -1.
        -13    1    3    3    0    0 -0.61793437182E+02 -0.79774395060E+02 -0.14759665128E+02  0.10198152137E+03  0.00000000000E+00 0.  1.
         22    1    1    2    0    0  0.52411737848E+02  0.19271171333E+03 -0.79606658911E+03  0.82073552928E+03  0.00000000000E+00 0.  1.
<mgrwt>
<rscale>  0 0.68788946E+03</rscale>
<asrwt>0</asrwt>
<pdfrwt beam="1">  1        2 0.19996564E-01 0.68788946E+03</pdfrwt>
<pdfrwt beam="2">  1       -2 0.14002166E+00 0.68788946E+03</pdfrwt>
<totfact> 0.10333304E+02</totfact>
</mgrwt>
</event>
<event>
 6    1  0.9562506E-007  0.5408994E+04  0.7818608E-02  0.7768337E-01
          2   -1    0    0  501    0  0.00000000000E+00  0.00000000000E+00  0.44363623125E+04  0.44363623125E+04  0.00000000000E+00 0. -1.
         -2   -1    0    0    0  501 -0.00000000000E+00 -0.00000000000E+00 -0.16487164916E+04  0.16487164916E+04  0.00000000000E+00 0.  1.
         23    2    1    2    0    0 -0.23040959077E+04 -0.14084988320E+04  0.12458690885E+04  0.29754482145E+04  0.91517100767E+02 0.  0.
         11    1    3    3    0    0 -0.21322411686E+04 -0.12742754294E+04  0.11459542035E+04  0.27355879272E+04  0.00000000000E+00 0.  1.
        -11    1    3    3    0    0 -0.17185473909E+03 -0.13422340261E+03  0.99914884976E+02  0.23986028725E+03  0.00000000000E+00 0. -1.
         22    1    1    2    0    0  0.23040959077E+04  0.14084988320E+04  0.15417767324E+04  0.31096305897E+04  0.00000000000E+00 0.  1.
<mgrwt>
<rscale>  0 0.54089939E+04</rscale>
<asrwt>0</asrwt>
<pdfrwt beam="1">  1        2 0.68251727E+00 0.54089939E+04</pdfrwt>
<pdfrwt beam="2">  1       -2 0.25364869E+00 0.54089939E+04</pdfrwt>
<totfact> 0.60399618E-03</totfact>
</mgrwt>
</event>
<event>
 6    1  0.9562506E-007  0.1682007E+04  0.7818608E-02  0.8771693E-01
         -1   -1    0    0    0  501 -0.00000000000E+00  0.00000000000E+00  0.69455307745E+03  0.69455307745E+03  0.00000000000E+00 0.  1.
          1   -1    0    0  501    0  0.00000000000E+00 -0.00000000000E+00 -0.10183338695E+04  0.10183338695E+04  0.00000000000E+00 0. -1.
         23    2    1    2    0    0  0.81948242537E+03 -0.14547895114E+03 -0.26605030875E+03  0.87859180763E+03  0.91789034968E+02 0.  0.
         13    1    3    3    0    0  0.73725156383E+03 -0.10282931412E+03 -0.24415332120E+03  0.78340575723E+03  0.00000000000E+00 0. -1.
        -13    1    3    3    0    0  0.82230861544E+02 -0.42649637015E+02 -0.21896987549E+02  0.95186050404E+02  0.00000000000E+00 0.  1.
         22    1    1    2    0    0 -0.81948242537E+03  0.14547895114E+03 -0.57730483270E+02  0.83429513927E+03  0.00000000000E+00 0.  1.
<mgrwt>
<rscale>  0 0.16820070E+04</rscale>
<asrwt>0</asrwt>
<pdfrwt beam="1">  1        1 0.15666675E+00 0.16820070E+04</pdfrwt>
<pdfrwt beam="2">  1       -1 0.10685432E+00 0.16820070E+04</pdfrwt>
<totfact> 0.11405073E+01</totfact>
</mgrwt>
</event>
<event>
 6    1  0.9562506E-007  0.1171989E+04  0.7818608E-02  0.9137734E-01
         -1   -1    0    0    0  501 -0.00000000000E+00  0.00000000000E+00  0.16417595757E+03  0.16417595757E+03  0.00000000000E+00 0.  1.
          1   -1    0    0  501    0  0.00000000000E+00 -0.00000000000E+00 -0.20915939505E+04  0.20915939505E+04  0.00000000000E+00 0. -1.
         23    2    1    2    0    0  0.35556096024E+03  0.13739699147E+03 -0.18173320556E+04  0.18590074561E+04  0.88946003921E+02 0.  0.
         13    1    3    3    0    0  0.30838773849E+03  0.14951108017E+03 -0.15926038586E+04  0.16290621875E+04  0.00000000000E+00 0.  1.
        -13    1    3    3    0    0  0.47173221758E+02 -0.12114088708E+02 -0.22472819702E+03  0.22994526856E+03  0.00000000000E+00 0. -1.
         22    1    1    2    0    0 -0.35556096024E+03 -0.13739699147E+03 -0.11008593727E+03  0.39676245198E+03  0.00000000000E+00 0.  1.
<mgrwt>
<rscale>  0 0.11719888E+04</rscale>
<asrwt>0</asrwt>
<pdfrwt beam="1">  1        1 0.32178369E+00 0.11719888E+04</pdfrwt>
<pdfrwt beam="2">  1       -1 0.25257839E-01 0.11719888E+04</pdfrwt>
<totfact> 0.35341459E+01</totfact>
</mgrwt>
</event>
<event>
 6    1  0.9562506E-007  0.3174306E+04  0.7818608E-02  0.8195636E-01
          1   -1    0    0  501    0  0.00000000000E+00  0.00000000000E+00  0.10524250855E+04  0.10524250855E+04  0.00000000000E+00 0. -1.
         -1   -1    0    0    0  501 -0.00000000000E+00 -0.00000000000E+00 -0.23935715357E+04  0.23935715357E+04  0.00000000000E+00 0.  1.
         23    2    1    2    0    0 -0.59319589156E+03 -0.15797158368E+03  0.91616954307E+03  0.11066993163E+04  0.92630221797E+02 0.  0.
         13    1    3    3    0    0 -0.14459536190E+03 -0.54333352112E+02  0.16806603400E+03  0.22826765785E+03  0.00000000000E+00 0.  1.
        -13    1    3    3    0    0 -0.44860052966E+03 -0.10363823157E+03  0.74810350906E+03  0.87843165843E+03  0.00000000000E+00 0. -1.
         22    1    1    2    0    0  0.59319589156E+03  0.15797158368E+03 -0.22573159933E+04  0.23392973049E+04  0.00000000000E+00 0.  1.
<mgrwt>
<rscale>  0 0.31743061E+04</rscale>
<asrwt>0</asrwt>
<pdfrwt beam="1">  1        1 0.16191155E+00 0.31743061E+04</pdfrwt>
<pdfrwt beam="2">  1       -1 0.36824177E+00 0.31743061E+04</pdfrwt>
<totfact> 0.13558682E-01</totfact>
</mgrwt>
</event>
<event>
 6    1  0.9562506E-007  0.3917365E+04  0.7818608E-02  0.8021427E-01
         -2   -1    0    0    0  501 -0.00000000000E+00  0.00000000000E+00  0.16470159762E+04  0.16470159762E+04  0.00000000000E+00 0.  1.
          2   -1    0    0  501    0  0.00000000000E+00 -0.00000000000E+00 -0.23293255802E+04  0.23293255802E+04  0.00000000000E+00 0. -1.
         23    2    1    2    0    0 -0.29210677969E+03  0.49905138531E+03 -0.22397323778E+04  0.23150335318E+04  0.92738736659E+02 0.  0.
         13    1    3    3    0    0 -0.15607157226E+03  0.22509370562E+03 -0.12224920887E+04  0.12528018274E+04  0.00000000000E+00 0. -1.
        -13    1    3    3    0    0 -0.13603520743E+03  0.27395767968E+03 -0.10172402892E+04  0.10622317044E+04  0.00000000000E+00 0.  1.
         22    1    1    2    0    0  0.29210677969E+03 -0.49905138531E+03  0.15574227739E+04  0.16613080246E+04  0.00000000000E+00 0.  1.
<mgrwt>
<rscale>  0 0.39173646E+04</rscale>
<asrwt>0</asrwt>
<pdfrwt beam="1">  1        2 0.35835778E+00 0.39173646E+04</pdfrwt>
<pdfrwt beam="2">  1       -2 0.25338707E+00 0.39173646E+04</pdfrwt>
<totfact> 0.21224018E-01</totfact>
</mgrwt>
</event>
<event>
 6    1  0.9562506E-007  0.9636123E+03  0.7818608E-02  0.9349380E-01
          2   -1    0    0  501    0  0.00000000000E+00  0.00000000000E+00  0.11654606811E+04  0.11654606811E+04  0.00000000000E+00 0. -1.
         -2   -1    0    0    0  501 -0.00000000000E+00 -0.00000000000E+00 -0.19918058929E+03  0.19918058929E+03  0.00000000000E+00 0.  1.
         23    2    1    2    0    0 -0.25846243123E+03  0.30655346967E+03  0.12049844575E+03  0.42862607237E+03  0.91774595460E+02 0.  0.
         13    1    3    3    0    0 -0.12396603343E+03  0.21075452406E+03  0.52709738337E+02  0.25012669464E+03  0.00000000000E+00 0.  1.
        -13    1    3    3    0    0 -0.13449639780E+03  0.95798945611E+02  0.67788707411E+02  0.17849937774E+03  0.00000000000E+00 0. -1.
         22    1    1    2    0    0  0.25846243123E+03 -0.30655346967E+03  0.84578164605E+03  0.93601519802E+03  0.00000000000E+00 0. -1.
<mgrwt>
<rscale>  0 0.96361226E+03</rscale>
<asrwt>0</asrwt>
<pdfrwt beam="1">  1        2 0.17930164E+00 0.96361226E+03</pdfrwt>
<pdfrwt beam="2">  1       -2 0.30643168E-01 0.96361226E+03</pdfrwt>
<totfact> 0.19553904E+02</totfact>
</mgrwt>
</event>
<event>
 6    1  0.9562506E-007  0.1978647E+04  0.7818608E-02  0.8616670E-01
          1   -1    0    0  501    0  0.00000000000E+00  0.00000000000E+00  0.21474405317E+04  0.21474405317E+04  0.00000000000E+00 0. -1.
         -1   -1    0    0    0  501 -0.00000000000E+00 -0.00000000000E+00 -0.45578013422E+03  0.45578013422E+03  0.00000000000E+00 0.  1.
         23    2    1    2    0    0 -0.36300332894E+03  0.28560640651E+03 -0.30082048988E+03  0.55790344781E+03  0.86144376983E+02 0.  0.
         11    1    3    3    0    0 -0.10267319209E+03  0.75343365441E+02 -0.39550730741E+02  0.13335166813E+03  0.00000000000E+00 0. -1.
        -11    1    3    3    0    0 -0.26033013685E+03  0.21026304107E+03 -0.26126975914E+03  0.42455177968E+03  0.00000000000E+00 0.  1.
         22    1    1    2    0    0  0.36300332894E+03 -0.28560640651E+03  0.19924808874E+04  0.20453172182E+04  0.00000000000E+00 0. -1.
<mgrwt>
<rscale>  0 0.19786467E+04</rscale>
<asrwt>0</asrwt>
<pdfrwt beam="1">  1        1 0.33037546E+00 0.19786467E+04</pdfrwt>
<pdfrwt beam="2">  1       -1 0.70120022E-01 0.19786467E+04</pdfrwt>
<totfact> 0.45207244E+00</totfact>
</mgrwt>
</event>
<event>
 6    1  0.9722434E-007  0.4535746E+04  0.7818608E-02  0.7904409E-01
         -2   -1    0    0    0  501 -0.00000000000E+00  0.00000000000E+00  0.22398321579E+04  0.22398321579E+04  0.00000000000E+00 0.  1.
          2   -1    0    0  501    0  0.00000000000E+00 -0.00000000000E+00 -0.22962644433E+04  0.22962644433E+04  0.00000000000E+00 0. -1.
         23    2    1    2    0    0  0.89167547414E+03 -0.20796665265E+04 -0.17045297549E+03  0.22704623125E+04  0.76464912104E+02 0.  0.
         11    1    3    3    0    0  0.30155885301E+03 -0.73240889192E+03 -0.24963750617E+02  0.79245423567E+03  0.00000000000E+00 0. -1.
        -11    1    3    3    0    0  0.59011662112E+03 -0.13472576346E+04 -0.14548922487E+03  0.14780080768E+04  0.00000000000E+00 0.  1.
         22    1    1    2    0    0 -0.89167547414E+03  0.20796665265E+04  0.11402069010E+03  0.22656342888E+04  0.00000000000E+00 0. -1.
<mgrwt>
<rscale>  0 0.45357456E+04</rscale>
<asrwt>0</asrwt>
<pdfrwt beam="1">  1        2 0.35327145E+00 0.45357456E+04</pdfrwt>
<pdfrwt beam="2">  1       -2 0.34458956E+00 0.45357456E+04</pdfrwt>
<totfact> 0.57920605E-02</totfact>
</mgrwt>
</event>
<event>
 6    1  0.9562506E-007  0.2092958E+04  0.7818608E-02  0.8564352E-01
         -1   -1    0    0    0  501 -0.00000000000E+00  0.00000000000E+00  0.89639360517E+03  0.89639360517E+03  0.00000000000E+00 0.  1.
          1   -1    0    0  501    0  0.00000000000E+00 -0.00000000000E+00 -0.12216940136E+04  0.12216940136E+04  0.00000000000E+00 0. -1.
         23    2    1    2    0    0  0.53395843083E+03 -0.89758809349E+03 -0.14323369286E+03  0.10579346674E+04  0.89072320389E+02 0.  0.
         11    1    3    3    0    0  0.18340396007E+03 -0.23154291514E+03 -0.48402063324E+02  0.29931905027E+03  0.00000000000E+00 0.  1.
        -11    1    3    3    0    0  0.35055447076E+03 -0.66604517835E+03 -0.94831629533E+02  0.75861561711E+03  0.00000000000E+00 0. -1.
         22    1    1    2    0    0 -0.53395843083E+03  0.89758809349E+03 -0.18206671558E+03  0.10601529514E+04  0.00000000000E+00 0. -1.
<mgrwt>
<rscale>  0 0.20929584E+04</rscale>
<asrwt>0</asrwt>
<pdfrwt beam="1">  1        1 0.18795292E+00 0.20929584E+04</pdfrwt>
<pdfrwt beam="2">  1       -1 0.13790671E+00 0.20929584E+04</pdfrwt>
<totfact> 0.41338817E+00</totfact>
</mgrwt>
</event>
<event>
 6    1  0.9562506E-007  0.2480881E+04  0.7818608E-02  0.8409828E-01
          2   -1    0    0  501    0  0.00000000000E+00  0.00000000000E+00  0.13288176630E+04  0.13288176630E+04  0.00000000000E+00 0. -1.
         -2   -1    0    0    0  501 -0.00000000000E+00 -0.00000000000E+00 -0.11579415224E+04  0.11579415224E+04  0.00000000000E+00 0.  1.
         23    2    1    2    0    0  0.24983998448E+02  0.10222472555E+04 -0.61539181267E+03  0.11968634741E+04  0.90340693378E+02 0.  0.
         13    1    3    3    0    0  0.90968598856E+01  0.22220474490E+03 -0.91848505052E+02  0.24061140745E+03  0.00000000000E+00 0. -1.
        -13    1    3    3    0    0  0.15887138562E+02  0.80004251062E+03 -0.52354330762E+03  0.95625206663E+03  0.00000000000E+00 0.  1.
         22    1    1    2    0    0 -0.24983998448E+02 -0.10222472555E+04  0.78626795337E+03  0.12898957113E+04  0.00000000000E+00 0.  1.
<mgrwt>
<rscale>  0 0.24808814E+04</rscale>
<asrwt>0</asrwt>
<pdfrwt beam="1">  1        2 0.20443349E+00 0.24808814E+04</pdfrwt>
<pdfrwt beam="2">  1       -2 0.17814485E+00 0.24808814E+04</pdfrwt>
<totfact> 0.26539295E+00</totfact>
</mgrwt>
</event>
<event>
 6    1  0.9562506E-007  0.3622265E+04  0.7818608E-02  0.8085411E-01
         -2   -1    0    0    0  501 -0.00000000000E+00  0.00000000000E+00  0.12165742193E+04  0.12165742193E+04  0.00000000000E+00 0.  1.
          2   -1    0    0  501    0  0.00000000000E+00 -0.00000000000E+00 -0.26962608063E+04  0.26962608063E+04  0.00000000000E+00 0. -1.
         23    2    1    2    0    0  0.12298660676E+04  0.11198271840E+04 -0.15113201141E+04  0.22492292591E+04  0.91434711007E+02 0.  0.
         13    1    3    3    0    0  0.98540920162E+03  0.84834895472E+03 -0.11647619148E+04  0.17456796848E+04  0.00000000000E+00 0. -1.
        -13    1    3    3    0    0  0.24445686595E+03  0.27147822931E+03 -0.34655819929E+03  0.50354957432E+03  0.00000000000E+00 0.  1.
         22    1    1    2    0    0 -0.12298660676E+04 -0.11198271840E+04  0.31633527057E+02  0.16636057665E+04  0.00000000000E+00 0.  1.
<mgrwt>
<rscale>  0 0.36222653E+04</rscale>
<asrwt>0</asrwt>
<pdfrwt beam="1">  1        2 0.41480935E+00 0.36222653E+04</pdfrwt>
<pdfrwt beam="2">  1       -2 0.18716527E+00 0.36222653E+04</pdfrwt>
<totfact> 0.35163705E-01</totfact>
</mgrwt>
</event>
<event>
 6    1  0.9562506E-007  0.3720064E+04  0.7818608E-02  0.8063530E-01
         -2   -1    0    0    0  501 -0.00000000000E+00  0.00000000000E+00  0.94882096645E+03  0.94882096645E+03  0.00000000000E+00 0.  1.
          2   -1    0    0  501    0  0.00000000000E+00 -0.00000000000E+00 -0.36463344737E+04  0.36463344737E+04  0.00000000000E+00 0. -1.
         23    2    1    2    0    0 -0.28688419574E+03 -0.18320533375E+04 -0.15094837056E+04  0.23928528308E+04  0.92095815617E+02 0.  0.
         13    1    3    3    0    0 -0.11465407835E+03 -0.76998522870E+03 -0.57587379506E+03  0.96832506832E+03  0.00000000000E+00 0. -1.
        -13    1    3    3    0    0 -0.17223011739E+03 -0.10620681089E+04 -0.93360991051E+03  0.14245277625E+04  0.00000000000E+00 0.  1.
         22    1    1    2    0    0  0.28688419574E+03  0.18320533375E+04 -0.11880298017E+04  0.22023026094E+04  0.00000000000E+00 0. -1.
<mgrwt>
<rscale>  0 0.37200638E+04</rscale>
<asrwt>0</asrwt>
<pdfrwt beam="1">  1        2 0.56097454E+00 0.37200638E+04</pdfrwt>
<pdfrwt beam="2">  1       -2 0.14597245E+00 0.37200638E+04</pdfrwt>
<totfact> 0.16571681E-01</totfact>
</mgrwt>
</event>
<event>
 6    1  0.9562506E-007  0.1481399E+04  0.7818608E-02  0.8896918E-01
         -2   -1    0    0    0  501 -0.00000000000E+00  0.00000000000E+00  0.22227514256E+03  0.22227514256E+03  0.00000000000E+00 0.  1.
          2   -1    0    0  501    0  0.00000000000E+00 -0.00000000000E+00 -0.24682724420E+04  0.24682724420E+04  0.00000000000E+00 0. -1.
         23    2    1    2    0    0 -0.69582983173E+03 -0.18689306429E+03 -0.14162318395E+04  0.15916304399E+04  0.92014466059E+02 0.  0.
         11    1    3    3    0    0 -0.65510882317E+03 -0.17494781515E+03 -0.12740743357E+04  0.14432739591E+04  0.00000000000E+00 0.  1.
        -11    1    3    3    0    0 -0.40721008565E+02 -0.11945249134E+02 -0.14215750378E+03  0.14835648080E+03  0.00000000000E+00 0. -1.
         22    1    1    2    0    0  0.69582983173E+03  0.18689306429E+03 -0.82976545997E+03  0.10989171446E+04  0.00000000000E+00 0. -1.
<mgrwt>
<rscale>  0 0.14813988E+04</rscale>
<asrwt>0</asrwt>
<pdfrwt beam="1">  1        2 0.37973425E+00 0.14813988E+04</pdfrwt>
<pdfrwt beam="2">  1       -2 0.34196173E-01 0.14813988E+04</pdfrwt>
<totfact> 0.28216577E+01</totfact>
</mgrwt>
</event>
<event>
 6    1  0.9562506E-007  0.2808345E+04  0.7818608E-02  0.8300682E-01
          2   -1    0    0  501    0  0.00000000000E+00  0.00000000000E+00  0.14677880736E+04  0.14677880736E+04  0.00000000000E+00 0. -1.
         -2   -1    0    0    0  501 -0.00000000000E+00 -0.00000000000E+00 -0.13433138214E+04  0.13433138214E+04  0.00000000000E+00 0.  1.
         23    2    1    2    0    0 -0.42231651293E+03  0.98024341026E+03 -0.84812131726E+03  0.13670899415E+04  0.10196449789E+03 0.  0.
         11    1    3    3    0    0 -0.16970248880E+03  0.37674256897E+03 -0.39189869567E+03  0.56948967124E+03  0.00000000000E+00 0.  1.
        -11    1    3    3    0    0 -0.25261402413E+03  0.60350084129E+03 -0.45622262158E+03  0.79760027023E+03  0.00000000000E+00 0. -1.
         22    1    1    2    0    0  0.42231651293E+03 -0.98024341026E+03  0.97259556941E+03  0.14440119536E+04  0.00000000000E+00 0. -1.
<mgrwt>
<rscale>  0 0.28083447E+04</rscale>
<asrwt>0</asrwt>
<pdfrwt beam="1">  1        2 0.22581355E+00 0.28083447E+04</pdfrwt>
<pdfrwt beam="2">  1       -2 0.20666366E+00 0.28083447E+04</pdfrwt>
<totfact> 0.13853355E+00</totfact>
</mgrwt>
</event>
<event>
 6    1  0.9562506E-007  0.1432894E+04  0.7818608E-02  0.8930347E-01
         -2   -1    0    0    0  501 -0.00000000000E+00  0.00000000000E+00  0.50484005399E+03  0.50484005399E+03  0.00000000000E+00 0.  1.
          2   -1    0    0  501    0  0.00000000000E+00 -0.00000000000E+00 -0.10167497156E+04  0.10167497156E+04  0.00000000000E+00 0. -1.
         23    2    1    2    0    0 -0.44513117332E+03 -0.15323135037E+03  0.31190193372E+03  0.57275514079E+03  0.95624405100E+02 0.  0.
         11    1    3    3    0    0 -0.19634532173E+03 -0.11795922921E+03  0.14450372445E+03  0.27082686629E+03  0.00000000000E+00 0.  1.
        -11    1    3    3    0    0 -0.24878585159E+03 -0.35272121158E+02  0.16739820927E+03  0.30192827451E+03  0.00000000000E+00 0. -1.
         22    1    1    2    0    0  0.44513117332E+03  0.15323135037E+03 -0.82381159532E+03  0.94883462879E+03  0.00000000000E+00 0. -1.
<mgrwt>
<rscale>  0 0.14328935E+04</rscale>
<asrwt>0</asrwt>
<pdfrwt beam="1">  1        2 0.15642303E+00 0.14328935E+04</pdfrwt>
<pdfrwt beam="2">  1       -2 0.77667701E-01 0.14328935E+04</pdfrwt>
<totfact> 0.35254673E+01</totfact>
</mgrwt>
</event>
<event>
 6    1  0.9562506E-007  0.2648445E+04  0.7818608E-02  0.8351929E-01
          2   -1    0    0  501    0  0.00000000000E+00  0.00000000000E+00  0.11841468112E+04  0.11841468112E+04  0.00000000000E+00 0. -1.
         -2   -1    0    0    0  501 -0.00000000000E+00 -0.00000000000E+00 -0.14808681188E+04  0.14808681188E+04  0.00000000000E+00 0.  1.
         23    2    1    2    0    0  0.13426114503E+03  0.90800458175E+03 -0.11067676246E+04  0.14408117560E+04  0.92225624580E+02 0.  0.
         11    1    3    3    0    0  0.80510873602E+02  0.56627934930E+03 -0.61865987275E+03  0.84255227753E+03  0.00000000000E+00 0.  1.
        -11    1    3    3    0    0  0.53750271432E+02  0.34172523244E+03 -0.48810775185E+03  0.59825947847E+03  0.00000000000E+00 0. -1.
         22    1    1    2    0    0 -0.13426114503E+03 -0.90800458175E+03  0.81004631697E+03  0.12242031740E+04  0.00000000000E+00 0. -1.
<mgrwt>
<rscale>  0 0.26484450E+04</rscale>
<asrwt>0</asrwt>
<pdfrwt beam="1">  1        2 0.18217643E+00 0.26484450E+04</pdfrwt>
<pdfrwt beam="2">  1       -2 0.22782587E+00 0.26484450E+04</pdfrwt>
<totfact> 0.15047730E+00</totfact>
</mgrwt>
</event>
<event>
 6    1  0.9562506E-007  0.2021492E+04  0.7818608E-02  0.8596638E-01
          1   -1    0    0  501    0  0.00000000000E+00  0.00000000000E+00  0.10807189007E+04  0.10807189007E+04  0.00000000000E+00 0. -1.
         -1   -1    0    0    0  501 -0.00000000000E+00 -0.00000000000E+00 -0.94530375496E+03  0.94530375496E+03  0.00000000000E+00 0.  1.
         23    2    1    2    0    0 -0.78433520956E+03  0.11024225965E+03  0.69367618992E+03  0.10570074492E+04  0.93504088051E+02 0.  0.
         11    1    3    3    0    0 -0.55754820799E+02  0.33133316508E+02  0.59288606494E+02  0.87872382266E+02  0.00000000000E+00 0.  1.
        -11    1    3    3    0    0 -0.72858038876E+03  0.77108943140E+02  0.63438758343E+03  0.96913506695E+03  0.00000000000E+00 0. -1.
         22    1    1    2    0    0  0.78433520956E+03 -0.11024225965E+03 -0.55826104422E+03  0.96901520641E+03  0.00000000000E+00 0.  1.
<mgrwt>
<rscale>  0 0.20214922E+04</rscale>
<asrwt>0</asrwt>
<pdfrwt beam="1">  1        1 0.16626445E+00 0.20214922E+04</pdfrwt>
<pdfrwt beam="2">  1       -1 0.14543135E+00 0.20214922E+04</pdfrwt>
<totfact> 0.46026312E+00</totfact>
</mgrwt>
</event>
<event>
 6    1  0.9562506E-007  0.1692028E+04  0.7818608E-02  0.8765924E-01
          2   -1    0    0  501    0  0.00000000000E+00  0.00000000000E+00  0.12716211806E+04  0.12716211806E+04  0.00000000000E+00 0. -1.
         -2   -1    0    0    0  501 -0.00000000000E+00 -0.00000000000E+00 -0.56285602489E+03  0.56285602489E+03  0.00000000000E+00 0.  1.
         23    2    1    2    0    0  0.42068500686E+03  0.26971571633E+03 -0.38124901546E+03  0.63537198241E+03  0.92867117991E+02 0.  0.
         11    1    3    3    0    0  0.29443628322E+03  0.19498728595E+03 -0.31939794170E+03  0.47615943939E+03  0.00000000000E+00 0. -1.
        -11    1    3    3    0    0  0.12624872364E+03  0.74728430378E+02 -0.61851073761E+02  0.15921254302E+03  0.00000000000E+00 0.  1.
         22    1    1    2    0    0 -0.42068500686E+03 -0.26971571633E+03  0.10900141711E+04  0.11991052230E+04  0.00000000000E+00 0. -1.
<mgrwt>
<rscale>  0 0.16920279E+04</rscale>
<asrwt>0</asrwt>
<pdfrwt beam="1">  1        2 0.19563403E+00 0.16920279E+04</pdfrwt>
<pdfrwt beam="2">  1       -2 0.86593235E-01 0.16920279E+04</pdfrwt>
<totfact> 0.18889408E+01</totfact>
</mgrwt>
</event>
<event>
 6    1  0.9562506E-007  0.9168866E+03  0.7818608E-02  0.9404715E-01
         -1   -1    0    0    0  501 -0.00000000000E+00  0.00000000000E+00  0.22539190516E+03  0.22539190516E+03  0.00000000000E+00 0.  1.
          1   -1    0    0  501    0  0.00000000000E+00 -0.00000000000E+00 -0.93246580212E+03  0.93246580212E+03  0.00000000000E+00 0. -1.
         23    2    1    2    0    0 -0.28837696582E+03  0.23893510181E+03 -0.35042922766E+02  0.38852235286E+03  0.97315748700E+02 0.  0.
         13    1    3    3    0    0 -0.17075107909E+03  0.79039226065E+02 -0.24450808012E+02  0.18973922178E+03  0.00000000000E+00 0.  1.
        -13    1    3    3    0    0 -0.11762588672E+03  0.15989587574E+03 -0.10592114754E+02  0.19878313108E+03  0.00000000000E+00 0. -1.
         22    1    1    2    0    0  0.28837696582E+03 -0.23893510181E+03 -0.67203097420E+03  0.76933535443E+03  0.00000000000E+00 0. -1.
<mgrwt>
<rscale>  0 0.91688657E+03</rscale>
<asrwt>0</asrwt>
<pdfrwt beam="1">  1        1 0.14345628E+00 0.91688657E+03</pdfrwt>
<pdfrwt beam="2">  1       -1 0.34675678E-01 0.91688657E+03</pdfrwt>
<totfact> 0.13585634E+02</totfact>
</mgrwt>
</event>
<event>
 6    1  0.9562506E-007  0.1787002E+04  0.7818608E-02  0.8713242E-01
          1   -1    0    0  501    0  0.00000000000E+00  0.00000000000E+00  0.11420022925E+04  0.11420022925E+04  0.00000000000E+00 0. -1.
         -1   -1    0    0    0  501 -0.00000000000E+00 -0.00000000000E+00 -0.69907370760E+03  0.69907370760E+03  0.00000000000E+00 0.  1.
         23    2    1    2    0    0  0.96419383912E+02 -0.28529837582E+03  0.10862936892E+04  0.11307165712E+04  0.88284337827E+02 0.  0.
         13    1    3    3    0    0  0.50279566543E+02 -0.40366414359E+02  0.23537521378E+03  0.24404707226E+03  0.00000000000E+00 0. -1.
        -13    1    3    3    0    0  0.46139817369E+02 -0.24493196146E+03  0.85091847546E+03  0.88666949896E+03  0.00000000000E+00 0.  1.
         22    1    1    2    0    0 -0.96419383912E+02  0.28529837582E+03 -0.64336510430E+03  0.71035942893E+03  0.00000000000E+00 0.  1.
<mgrwt>
<rscale>  0 0.17870017E+04</rscale>
<asrwt>0</asrwt>
<pdfrwt beam="1">  1        1 0.17569266E+00 0.17870017E+04</pdfrwt>
<pdfrwt beam="2">  1       -1 0.10754980E+00 0.17870017E+04</pdfrwt>
<totfact> 0.89671301E+00</totfact>
</mgrwt>
</event>
<event>
 6    1  0.9562506E-007  0.9253478E+03  0.7818608E-02  0.9394439E-01
         -1   -1    0    0    0  501 -0.00000000000E+00  0.00000000000E+00  0.67082964358E+03  0.67082964358E+03  0.00000000000E+00 0.  1.
          1   -1    0    0  501    0  0.00000000000E+00 -0.00000000000E+00 -0.31910806262E+03  0.31910806262E+03  0.00000000000E+00 0. -1.
         23    2    1    2    0    0 -0.13630204769E+03  0.42543593415E+03  0.67478440102E+02  0.46043969355E+03  0.88754657568E+02 0.  0.
         11    1    3    3    0    0 -0.92071617339E+00  0.76467461914E+02 -0.13018129815E+02  0.77573140672E+02  0.00000000000E+00 0. -1.
        -11    1    3    3    0    0 -0.13538133152E+03  0.34896847224E+03  0.80496569917E+02  0.38286655287E+03  0.00000000000E+00 0.  1.
         22    1    1    2    0    0  0.13630204769E+03 -0.42543593415E+03  0.28424314086E+03  0.52949801265E+03  0.00000000000E+00 0.  1.
<mgrwt>
<rscale>  0 0.92534782E+03</rscale>
<asrwt>0</asrwt>
<pdfrwt beam="1">  1        1 0.49093548E-01 0.92534782E+03</pdfrwt>
<pdfrwt beam="2">  1       -1 0.10320456E+00 0.92534782E+03</pdfrwt>
<totfact> 0.72184982E+01</totfact>
</mgrwt>
</event>
<event>
 6    1  0.9562506E-007  0.4443659E+04  0.7818608E-02  0.7920575E-01
          2   -1    0    0  501    0  0.00000000000E+00  0.00000000000E+00  0.16214096374E+04  0.16214096374E+04  0.00000000000E+00 0. -1.
         -2   -1    0    0    0  501 -0.00000000000E+00 -0.00000000000E+00 -0.30445890982E+04  0.30445890982E+04  0.00000000000E+00 0.  1.
         23    2    1    2    0    0 -0.49064691409E+03  0.21655760203E+04 -0.65263439362E+03  0.23156384239E+04  0.76129920603E+02 0.  0.
         13    1    3    3    0    0 -0.30250331925E+03  0.14933234702E+04 -0.45301429391E+03  0.15895739037E+04  0.00000000000E+00 0.  1.
        -13    1    3    3    0    0 -0.18814359484E+03  0.67225255008E+03 -0.19962009972E+03  0.72606452026E+03  0.00000000000E+00 0. -1.
         22    1    1    2    0    0  0.49064691409E+03 -0.21655760203E+04 -0.77054506720E+03  0.23503603116E+04  0.00000000000E+00 0. -1.
<mgrwt>
<rscale>  0 0.44436589E+04</rscale>
<asrwt>0</asrwt>
<pdfrwt beam="1">  1        2 0.24944764E+00 0.44436589E+04</pdfrwt>
<pdfrwt beam="2">  1       -2 0.46839832E+00 0.44436589E+04</pdfrwt>
<totfact> 0.21731260E-02</totfact>
</mgrwt>
</event>
<event>
 6    1  0.9562506E-007  0.4162444E+04  0.7818608E-02  0.7972555E-01
         -1   -1    0    0    0  501 -0.00000000000E+00  0.00000000000E+00  0.25028185975E+04  0.25028185975E+04  0.00000000000E+00 0.  1.
          1   -1    0    0  501    0  0.00000000000E+00 -0.00000000000E+00 -0.17306431691E+04  0.17306431691E+04  0.00000000000E+00 0. -1.
         23    2    1    2    0    0 -0.15048035678E+04 -0.87020827058E+03  0.15483854493E+04  0.23297290625E+04  0.91890116093E+02 0.  0.
         13    1    3    3    0    0 -0.92436112774E+03 -0.51711782986E+03  0.99939976950E+03  0.14562466287E+04  0.00000000000E+00 0.  1.
        -13    1    3    3    0    0 -0.58044244004E+03 -0.35309044073E+03  0.54898567979E+03  0.87348243379E+03  0.00000000000E+00 0. -1.
         22    1    1    2    0    0  0.15048035678E+04  0.87020827058E+03 -0.77621002096E+03  0.19037327040E+04  0.00000000000E+00 0. -1.
<mgrwt>
<rscale>  0 0.41624444E+04</rscale>
<asrwt>0</asrwt>
<pdfrwt beam="1">  1        1 0.26625279E+00 0.41624444E+04</pdfrwt>
<pdfrwt beam="2">  1       -1 0.38504902E+00 0.41624444E+04</pdfrwt>
<totfact> 0.31708247E-02</totfact>
</mgrwt>
</event>
<event>
 6    1  0.9562506E-007  0.3228795E+04  0.7818608E-02  0.8181254E-01
          2   -1    0    0  501    0  0.00000000000E+00  0.00000000000E+00  0.15192002452E+04  0.15192002452E+04  0.00000000000E+00 0. -1.
         -2   -1    0    0    0  501 -0.00000000000E+00 -0.00000000000E+00 -0.17155595871E+04  0.17155595871E+04  0.00000000000E+00 0.  1.
         23    2    1    2    0    0  0.10050764117E+04  0.92807352526E+03 -0.95462357767E+03  0.16706422814E+04  0.90776624556E+02 0.  0.
         11    1    3    3    0    0  0.40063850480E+03  0.42411954004E+03 -0.38120829329E+03  0.69692780017E+03  0.00000000000E+00 0. -1.
        -11    1    3    3    0    0  0.60443790692E+03  0.50395398523E+03 -0.57341528439E+03  0.97371448121E+03  0.00000000000E+00 0.  1.
         22    1    1    2    0    0 -0.10050764117E+04 -0.92807352526E+03  0.75826423574E+03  0.15641175509E+04  0.00000000000E+00 0. -1.
<mgrwt>
<rscale>  0 0.32287945E+04</rscale>
<asrwt>0</asrwt>
<pdfrwt beam="1">  1        2 0.23372312E+00 0.32287945E+04</pdfrwt>
<pdfrwt beam="2">  1       -2 0.26393224E+00 0.32287945E+04</pdfrwt>
<totfact> 0.54902725E-01</totfact>
</mgrwt>
</event>
<event>
 6    1  0.9562506E-007  0.1629596E+04  0.7818608E-02  0.8802569E-01
         -1   -1    0    0    0  501 -0.00000000000E+00  0.00000000000E+00  0.78657859046E+03  0.78657859046E+03  0.00000000000E+00 0.  1.
          1   -1    0    0  501    0  0.00000000000E+00 -0.00000000000E+00 -0.84403031374E+03  0.84403031374E+03  0.00000000000E+00 0. -1.
         23    2    1    2    0    0  0.17800671614E+01  0.79993629066E+03 -0.17720211949E+03  0.82175700481E+03  0.63109001373E+02 0.  0.
         13    1    3    3    0    0 -0.12948884644E+02  0.65338620811E+03 -0.16463691454E+03  0.67393362002E+03  0.00000000000E+00 0. -1.
        -13    1    3    3    0    0  0.14728951806E+02  0.14655008255E+03 -0.12565204946E+02  0.14782338479E+03  0.00000000000E+00 0.  1.
         22    1    1    2    0    0 -0.17800671614E+01 -0.79993629066E+03  0.11975039621E+03  0.80885189939E+03  0.00000000000E+00 0. -1.
<mgrwt>
<rscale>  0 0.16295965E+04</rscale>
<asrwt>0</asrwt>
<pdfrwt beam="1">  1        1 0.12985082E+00 0.16295965E+04</pdfrwt>
<pdfrwt beam="2">  1       -1 0.12101209E+00 0.16295965E+04</pdfrwt>
<totfact> 0.11764620E+01</totfact>
</mgrwt>
</event>
<event>
 6    1  0.9562506E-007  0.5117952E+04  0.7818608E-02  0.7810565E-01
         -2   -1    0    0    0  501 -0.00000000000E+00  0.00000000000E+00  0.23688317777E+04  0.23688317777E+04  0.00000000000E+00 0.  1.
          2   -1    0    0  501    0  0.00000000000E+00 -0.00000000000E+00 -0.27643832121E+04  0.27643832121E+04  0.00000000000E+00 0. -1.
         23    2    1    2    0    0  0.25321356893E+04 -0.27093561827E+03 -0.44096165388E+03  0.25862208111E+04  0.94729327402E+02 0.  0.
         11    1    3    3    0    0  0.33971342450E+03 -0.64471870579E+02 -0.76569709303E+02  0.35415357299E+03  0.00000000000E+00 0. -1.
        -11    1    3    3    0    0  0.21924222648E+04 -0.20646374769E+03 -0.36439194457E+03  0.22320672381E+04  0.00000000000E+00 0.  1.
         22    1    1    2    0    0 -0.25321356893E+04  0.27093561827E+03  0.45410219467E+02  0.25469941787E+04  0.00000000000E+00 0.  1.
<mgrwt>
<rscale>  0 0.51179522E+04</rscale>
<asrwt>0</asrwt>
<pdfrwt beam="1">  1        2 0.42528972E+00 0.51179522E+04</pdfrwt>
<pdfrwt beam="2">  1       -2 0.36443566E+00 0.51179522E+04</pdfrwt>
<totfact> 0.22084478E-02</totfact>
</mgrwt>
</event>
<event>
 6    1  0.9562506E-007  0.6404499E+03  0.7818608E-02  0.9824866E-01
          2   -1    0    0  501    0  0.00000000000E+00  0.00000000000E+00  0.17177855034E+04  0.17177855034E+04  0.00000000000E+00 0. -1.
         -2   -1    0    0    0  501 -0.00000000000E+00 -0.00000000000E+00 -0.59695480405E+02  0.59695480405E+02  0.00000000000E+00 0.  1.
         23    2    1    2    0    0  0.20840311347E+03 -0.29027472516E+02  0.14915398522E+04  0.15091278372E+04  0.92202205612E+02 0.  0.
         11    1    3    3    0    0  0.17899015496E+02 -0.31833515809E+02  0.16632544341E+03  0.17028769953E+03  0.00000000000E+00 0. -1.
        -11    1    3    3    0    0  0.19050409798E+03  0.28060432924E+01  0.13252144087E+04  0.13388401377E+04  0.00000000000E+00 0.  1.
         22    1    1    2    0    0 -0.20840311347E+03  0.29027472516E+02  0.16655017086E+03  0.26835314658E+03  0.00000000000E+00 0.  1.
<mgrwt>
<rscale>  0 0.64044994E+03</rscale>
<asrwt>0</asrwt>
<pdfrwt beam="1">  1        2 0.26427466E+00 0.64044994E+03</pdfrwt>
<pdfrwt beam="2">  1       -2 0.91839214E-02 0.64044994E+03</pdfrwt>
<totfact> 0.77277104E+02</totfact>
</mgrwt>
</event>
<event>
 6    1  0.9562506E-007  0.1636602E+04  0.7818608E-02  0.8798373E-01
         -1   -1    0    0    0  501 -0.00000000000E+00  0.00000000000E+00  0.21299035525E+03  0.21299035525E+03  0.00000000000E+00 0.  1.
          1   -1    0    0  501    0  0.00000000000E+00 -0.00000000000E+00 -0.31438800659E+04  0.31438800659E+04  0.00000000000E+00 0. -1.
         23    2    1    2    0    0  0.25150380666E+03 -0.77283213004E+03 -0.13265220338E+04  0.15583934799E+04  0.91683508893E+02 0.  0.
         11    1    3    3    0    0  0.14657661591E+03 -0.44670671737E+03 -0.85229736470E+03  0.97336652580E+03  0.00000000000E+00 0.  1.
        -11    1    3    3    0    0  0.10492719075E+03 -0.32612541267E+03 -0.47422466914E+03  0.58502695405E+03  0.00000000000E+00 0. -1.
         22    1    1    2    0    0 -0.25150380666E+03  0.77283213004E+03 -0.16043676769E+04  0.17984769413E+04  0.00000000000E+00 0.  1.
<mgrwt>
<rscale>  0 0.16366015E+04</rscale>
<asrwt>0</asrwt>
<pdfrwt beam="1">  1        1 0.48367380E+00 0.16366015E+04</pdfrwt>
<pdfrwt beam="2">  1       -1 0.32767751E-01 0.16366015E+04</pdfrwt>
<totfact> 0.39323442E+00</totfact>
</mgrwt>
</event>
<event>
 6    1  0.9562506E-007  0.3704128E+04  0.7818608E-02  0.8067048E-01
          1   -1    0    0  501    0  0.00000000000E+00  0.00000000000E+00  0.32657155387E+04  0.32657155387E+04  0.00000000000E+00 0. -1.
         -1   -1    0    0    0  501 -0.00000000000E+00 -0.00000000000E+00 -0.10503492755E+04  0.10503492755E+04  0.00000000000E+00 0.  1.
         23    2    1    2    0    0 -0.67857796917E+03 -0.67589465248E+03  0.29539061774E+04  0.31066257516E+04  0.90885720395E+02 0.  0.
         11    1    3    3    0    0 -0.13146525424E+03 -0.17733255090E+03  0.61756156384E+03  0.65582942280E+03  0.00000000000E+00 0.  1.
        -11    1    3    3    0    0 -0.54711271492E+03 -0.49856210158E+03  0.23363446136E+04  0.24507963288E+04  0.00000000000E+00 0. -1.
         22    1    1    2    0    0  0.67857796917E+03  0.67589465248E+03 -0.73853991415E+03  0.12094390627E+04  0.00000000000E+00 0.  1.
<mgrwt>
<rscale>  0 0.37041285E+04</rscale>
<asrwt>0</asrwt>
<pdfrwt beam="1">  1        1 0.50241777E+00 0.37041285E+04</pdfrwt>
<pdfrwt beam="2">  1       -1 0.16159220E+00 0.37041285E+04</pdfrwt>
<totfact> 0.86357210E-02</totfact>
</mgrwt>
</event>
<event>
 6    1  0.9562506E-007  0.1479745E+04  0.7818608E-02  0.8898035E-01
          2   -1    0    0  501    0  0.00000000000E+00  0.00000000000E+00  0.11678912714E+04  0.11678912714E+04  0.00000000000E+00 0. -1.
         -2   -1    0    0    0  501 -0.00000000000E+00 -0.00000000000E+00 -0.46871740785E+03  0.46871740785E+03  0.00000000000E+00 0.  1.
         23    2    1    2    0    0 -0.62792535428E+03 -0.31170772625E+03  0.60518814863E+03  0.92930020920E+03  0.76773865436E+02 0.  0.
         13    1    3    3    0    0 -0.32471945575E+03 -0.20180926838E+03  0.34379914877E+03  0.51416686050E+03  0.00000000000E+00 0. -1.
        -13    1    3    3    0    0 -0.30320589854E+03 -0.10989845787E+03  0.26138899987E+03  0.41513334870E+03  0.00000000000E+00 0.  1.
         22    1    1    2    0    0  0.62792535428E+03  0.31170772625E+03  0.93985714887E+02  0.70730847002E+03  0.00000000000E+00 0.  1.
<mgrwt>
<rscale>  0 0.14797445E+04</rscale>
<asrwt>0</asrwt>
<pdfrwt beam="1">  1        2 0.17967558E+00 0.14797445E+04</pdfrwt>
<pdfrwt beam="2">  1       -2 0.72110371E-01 0.14797445E+04</pdfrwt>
<totfact> 0.33376646E+01</totfact>
</mgrwt>
</event>
<event>
 6    1  0.1133877E-006  0.4696756E+04  0.7818608E-02  0.7877068E-01
         -2   -1    0    0    0  501 -0.00000000000E+00  0.00000000000E+00  0.36366389868E+04  0.36366389868E+04  0.00000000000E+00 0.  1.
          2   -1    0    0  501    0  0.00000000000E+00 -0.00000000000E+00 -0.15164766636E+04  0.15164766636E+04  0.00000000000E+00 0. -1.
         23    2    1    2    0    0 -0.51972254420E+03  0.10965295097E+04 -0.11443371535E+04  0.16703803286E+04  0.90412570930E+02 0.  0.
         13    1    3    3    0    0 -0.21153164489E+03  0.35308791390E+03 -0.40841759239E+03  0.57984622229E+03  0.00000000000E+00 0. -1.
        -13    1    3    3    0    0 -0.30819089931E+03  0.74344159576E+03 -0.73591956109E+03  0.10905341064E+04  0.00000000000E+00 0.  1.
         22    1    1    2    0    0  0.51972254420E+03 -0.10965295097E+04  0.32644994766E+04  0.34827353217E+04  0.00000000000E+00 0.  1.
<mgrwt>
<rscale>  0 0.46967555E+04</rscale>
<asrwt>0</asrwt>
<pdfrwt beam="1">  1        2 0.23330410E+00 0.46967555E+04</pdfrwt>
<pdfrwt beam="2">  1       -2 0.55948292E+00 0.46967555E+04</pdfrwt>
<totfact> 0.71415905E-03</totfact>
</mgrwt>
</event>
<event>
 6    1  0.9562506E-007  0.5578351E+03  0.7818608E-02  0.9996965E-01
         -1   -1    0    0    0  501 -0.00000000000E+00  0.00000000000E+00  0.32956322394E+02  0.32956322394E+02  0.00000000000E+00 0.  1.
          1   -1    0    0  501    0  0.00000000000E+00 -0.00000000000E+00 -0.23605481563E+04  0.23605481563E+04  0.00000000000E+00 0. -1.
         23    2    1    2    0    0  0.12293546835E+03  0.22354510217E+03 -0.79510081055E+03  0.83992336438E+03  0.90556153941E+02 0.  0.
         11    1    3    3    0    0  0.50532522333E+02  0.88668120394E+02 -0.18905153760E+03  0.21483960356E+03  0.00000000000E+00 0.  1.
        -11    1    3    3    0    0  0.72402946016E+02  0.13487698177E+03 -0.60604927295E+03  0.62508376082E+03  0.00000000000E+00 0. -1.
         22    1    1    2    0    0 -0.12293546835E+03 -0.22354510217E+03 -0.15324910234E+04  0.15535811144E+04  0.00000000000E+00 0. -1.
<mgrwt>
<rscale>  0 0.55783505E+03</rscale>
<asrwt>0</asrwt>
<pdfrwt beam="1">  1        1 0.36316109E+00 0.55783505E+03</pdfrwt>
<pdfrwt beam="2">  1       -1 0.50702058E-02 0.55783505E+03</pdfrwt>
<totfact> 0.32487947E+02</totfact>
</mgrwt>
</event>
<event>
 6    1  0.9562506E-007  0.3649064E+04  0.7818608E-02  0.8079344E-01
         -2   -1    0    0    0  501 -0.00000000000E+00  0.00000000000E+00  0.18366956230E+04  0.18366956230E+04  0.00000000000E+00 0.  1.
          2   -1    0    0  501    0  0.00000000000E+00 -0.00000000000E+00 -0.18124491197E+04  0.18124491197E+04  0.00000000000E+00 0. -1.
         23    2    1    2    0    0  0.56882329709E+03 -0.15473740318E+04  0.79117550821E+03  0.18308745658E+04  0.90645756443E+02 0.  0.
         11    1    3    3    0    0  0.25324211844E+03 -0.73930084988E+03  0.42133665706E+03  0.88781861648E+03  0.00000000000E+00 0.  1.
        -11    1    3    3    0    0  0.31558117865E+03 -0.80807318194E+03  0.36983885115E+03  0.94305594930E+03  0.00000000000E+00 0. -1.
         22    1    1    2    0    0 -0.56882329709E+03  0.15473740318E+04 -0.76692900490E+03  0.18182701769E+04  0.00000000000E+00 0. -1.
<mgrwt>
<rscale>  0 0.36490642E+04</rscale>
<asrwt>0</asrwt>
<pdfrwt beam="1">  1        2 0.27883833E+00 0.36490642E+04</pdfrwt>
<pdfrwt beam="2">  1       -2 0.28256856E+00 0.36490642E+04</pdfrwt>
<totfact> 0.28003968E-01</totfact>
</mgrwt>
</event>
<event>
 6    1  0.9562506E-007  0.2419756E+04  0.7818608E-02  0.8432144E-01
         -1   -1    0    0    0  501 -0.00000000000E+00  0.00000000000E+00  0.14997685298E+04  0.14997685298E+04  0.00000000000E+00 0.  1.
          1   -1    0    0  501    0  0.00000000000E+00 -0.00000000000E+00 -0.97602076880E+03  0.97602076880E+03  0.00000000000E+00 0. -1.
         23    2    1    2    0    0 -0.80155910454E+03  0.25448746875E+03  0.11497138841E+04  0.14274122399E+04  0.91666883859E+02 0.  0.
         13    1    3    3    0    0 -0.48835410866E+03  0.12950247990E+03  0.75223950235E+03  0.90615942121E+03  0.00000000000E+00 0.  1.
        -13    1    3    3    0    0 -0.31320499588E+03  0.12498498884E+03  0.39747438173E+03  0.52125281871E+03  0.00000000000E+00 0. -1.
         22    1    1    2    0    0  0.80155910454E+03 -0.25448746875E+03 -0.62596612312E+03  0.10483770587E+04  0.00000000000E+00 0. -1.
<mgrwt>
<rscale>  0 0.24197564E+04</rscale>
<asrwt>0</asrwt>
<pdfrwt beam="1">  1        1 0.15015704E+00 0.24197564E+04</pdfrwt>
<pdfrwt beam="2">  1       -1 0.23073362E+00 0.24197564E+04</pdfrwt>
<totfact> 0.13194995E+00</totfact>
</mgrwt>
</event>
<event>
 6    1  0.9562506E-007  0.2776591E+04  0.7818608E-02  0.8310573E-01
          2   -1    0    0  501    0  0.00000000000E+00  0.00000000000E+00  0.21229680870E+04  0.21229680870E+04  0.00000000000E+00 0. -1.
         -2   -1    0    0    0  501 -0.00000000000E+00 -0.00000000000E+00 -0.90786312666E+03  0.90786312666E+03  0.00000000000E+00 0.  1.
         23    2    1    2    0    0  0.62954629274E+03  0.75048102974E+03 -0.46338370806E+03  0.10874129569E+04  0.90510592067E+02 0.  0.
         11    1    3    3    0    0  0.53865546069E+03  0.60906616194E+03 -0.35368606286E+03  0.88668208847E+03  0.00000000000E+00 0.  1.
        -11    1    3    3    0    0  0.90890832049E+02  0.14141486780E+03 -0.10969764520E+03  0.20073086845E+03  0.00000000000E+00 0. -1.
         22    1    1    2    0    0 -0.62954629274E+03 -0.75048102974E+03  0.16784886684E+04  0.19434182568E+04  0.00000000000E+00 0. -1.
<mgrwt>
<rscale>  0 0.27765910E+04</rscale>
<asrwt>0</asrwt>
<pdfrwt beam="1">  1        2 0.32661047E+00 0.27765910E+04</pdfrwt>
<pdfrwt beam="2">  1       -2 0.13967125E+00 0.27765910E+04</pdfrwt>
<totfact> 0.17971733E+00</totfact>
</mgrwt>
</event>
<event>
 6    1  0.9562506E-007  0.3760416E+04  0.7818608E-02  0.8054703E-01
          2   -1    0    0  501    0  0.00000000000E+00  0.00000000000E+00  0.22013118955E+04  0.22013118955E+04  0.00000000000E+00 0. -1.
         -2   -1    0    0    0  501 -0.00000000000E+00 -0.00000000000E+00 -0.16059430110E+04  0.16059430110E+04  0.00000000000E+00 0.  1.
         23    2    1    2    0    0 -0.85693335770E+03 -0.80441996114E+03  0.17822555296E+04  0.21368878325E+04  0.91807312575E+02 0.  0.
         11    1    3    3    0    0 -0.50767786142E+03 -0.53587790037E+03  0.11343700377E+04  0.13534021271E+04  0.00000000000E+00 0.  1.
        -11    1    3    3    0    0 -0.34925549628E+03 -0.26854206077E+03  0.64788549184E+03  0.78348570544E+03  0.00000000000E+00 0. -1.
         22    1    1    2    0    0  0.85693335770E+03  0.80441996114E+03 -0.11868866451E+04  0.16703670740E+04  0.00000000000E+00 0.  1.
<mgrwt>
<rscale>  0 0.37604156E+04</rscale>
<asrwt>0</asrwt>
<pdfrwt beam="1">  1        2 0.33866337E+00 0.37604156E+04</pdfrwt>
<pdfrwt beam="2">  1       -2 0.24706815E+00 0.37604156E+04</pdfrwt>
<totfact> 0.27781650E-01</totfact>
</mgrwt>
</event>
<event>
 6    1  0.9562506E-007  0.1391468E+04  0.7818608E-02  0.8960018E-01
         -1   -1    0    0    0  501 -0.00000000000E+00  0.00000000000E+00  0.15292343341E+04  0.15292343341E+04  0.00000000000E+00 0.  1.
          1   -1    0    0  501    0  0.00000000000E+00 -0.00000000000E+00 -0.31652830322E+03  0.31652830322E+03  0.00000000000E+00 0. -1.
         23    2    1    2    0    0  0.53037265302E+03  0.42806226439E+03  0.44646815310E+03  0.82026132643E+03  0.94669840129E+02 0.  0.
         11    1    3    3    0    0  0.15023641529E+02  0.32762693260E+02  0.89215444218E+01  0.37130820478E+02  0.00000000000E+00 0. -1.
        -11    1    3    3    0    0  0.51534901150E+03  0.39529957113E+03  0.43754660868E+03  0.78313050595E+03  0.00000000000E+00 0.  1.
         22    1    1    2    0    0 -0.53037265302E+03 -0.42806226439E+03  0.76623787775E+03  0.10255013109E+04  0.00000000000E+00 0.  1.
<mgrwt>
<rscale>  0 0.13914682E+04</rscale>
<asrwt>0</asrwt>
<pdfrwt beam="1">  1        1 0.48696663E-01 0.13914682E+04</pdfrwt>
<pdfrwt beam="2">  1       -1 0.23526682E+00 0.13914682E+04</pdfrwt>
<totfact> 0.69507762E+00</totfact>
</mgrwt>
</event>
<event>
 6    1  0.9562506E-007  0.1532546E+04  0.7818608E-02  0.8863094E-01
         -1   -1    0    0    0  501 -0.00000000000E+00  0.00000000000E+00  0.41801107456E+03  0.41801107456E+03  0.00000000000E+00 0.  1.
          1   -1    0    0  501    0  0.00000000000E+00 -0.00000000000E+00 -0.14046864907E+04  0.14046864907E+04  0.00000000000E+00 0. -1.
         23    2    1    2    0    0  0.33848914808E+03  0.54038062976E+03  0.39112263230E+01  0.64462794737E+03  0.94571477999E+02 0.  0.
         11    1    3    3    0    0  0.13268200856E+03  0.28259362953E+03  0.30586222444E+02  0.31368645467E+03  0.00000000000E+00 0.  1.
        -11    1    3    3    0    0  0.20580713953E+03  0.25778700023E+03 -0.26674996121E+02  0.33094149269E+03  0.00000000000E+00 0. -1.
         22    1    1    2    0    0 -0.33848914808E+03 -0.54038062976E+03 -0.99058664249E+03  0.11780696179E+04  0.00000000000E+00 0. -1.
<mgrwt>
<rscale>  0 0.15325463E+04</rscale>
<asrwt>0</asrwt>
<pdfrwt beam="1">  1        1 0.21610561E+00 0.15325463E+04</pdfrwt>
<pdfrwt beam="2">  1       -1 0.64309396E-01 0.15325463E+04</pdfrwt>
<totfact> 0.18036835E+01</totfact>
</mgrwt>
</event>
<event>
 6    1  0.9562506E-007  0.1802132E+04  0.7818608E-02  0.8705167E-01
         -2   -1    0    0    0  501 -0.00000000000E+00  0.00000000000E+00  0.50190366162E+03  0.50190366162E+03  0.00000000000E+00 0.  1.
          2   -1    0    0  501    0  0.00000000000E+00 -0.00000000000E+00 -0.16176807875E+04  0.16176807875E+04  0.00000000000E+00 0. -1.
         23    2    1    2    0    0 -0.44636886813E+03  0.74983533754E+03 -0.30621712368E+03  0.92925441212E+03  0.90810989207E+02 0.  0.
         11    1    3    3    0    0 -0.28160161706E+03  0.54790630215E+03 -0.19820133022E+03  0.64713565345E+03  0.00000000000E+00 0.  1.
        -11    1    3    3    0    0 -0.16476725107E+03  0.20192903538E+03 -0.10801579346E+03  0.28211875867E+03  0.00000000000E+00 0. -1.
         22    1    1    2    0    0  0.44636886813E+03 -0.74983533754E+03 -0.80956000223E+03  0.11903300370E+04  0.00000000000E+00 0. -1.
<mgrwt>
<rscale>  0 0.18021320E+04</rscale>
<asrwt>0</asrwt>
<pdfrwt beam="1">  1        2 0.24887397E+00 0.18021320E+04</pdfrwt>
<pdfrwt beam="2">  1       -2 0.77215948E-01 0.18021320E+04</pdfrwt>
<totfact> 0.15397610E+01</totfact>
</mgrwt>
</event>
<event>
 6    1  0.9562506E-007  0.3629299E+04  0.7818608E-02  0.8083813E-01
          2   -1    0    0  501    0  0.00000000000E+00  0.00000000000E+00  0.24670476281E+04  0.24670476281E+04  0.00000000000E+00 0. -1.
         -2   -1    0    0    0  501 -0.00000000000E+00 -0.00000000000E+00 -0.13347749097E+04  0.13347749097E+04  0.00000000000E+00 0.  1.
         23    2    1    2    0    0  0.18041199030E+04 -0.17804755684E+03  0.61623045240E+03  0.19169222282E+04  0.91111479882E+02 0.  0.
         11    1    3    3    0    0  0.69045806950E+03 -0.10152388452E+03  0.26812417392E+03  0.74761622341E+03  0.00000000000E+00 0.  1.
        -11    1    3    3    0    0  0.11136618335E+04 -0.76523672320E+02  0.34810627848E+03  0.11693060048E+04  0.00000000000E+00 0. -1.
         22    1    1    2    0    0 -0.18041199030E+04  0.17804755684E+03  0.51604226608E+03  0.18849003096E+04  0.00000000000E+00 0.  1.
<mgrwt>
<rscale>  0 0.36292993E+04</rscale>
<asrwt>0</asrwt>
<pdfrwt beam="1">  1        2 0.37954579E+00 0.36292993E+04</pdfrwt>
<pdfrwt beam="2">  1       -2 0.20534999E+00 0.36292993E+04</pdfrwt>
<totfact> 0.36291681E-01</totfact>
</mgrwt>
</event>
<event>
 6    1  0.9562506E-007  0.7805974E+03  0.7818608E-02  0.9588534E-01
          1   -1    0    0  501    0  0.00000000000E+00  0.00000000000E+00  0.88425639426E+03  0.88425639426E+03  0.00000000000E+00 0. -1.
         -1   -1    0    0    0  501 -0.00000000000E+00 -0.00000000000E+00 -0.17227252331E+03  0.17227252331E+03  0.00000000000E+00 0.  1.
         23    2    1    2    0    0  0.26308758189E+03  0.16103129759E+03  0.48204559572E+02  0.32458006091E+03  0.88782778899E+02 0.  0.
         13    1    3    3    0    0  0.18510907252E+03  0.10694582681E+03  0.74017077712E+02  0.22623285879E+03  0.00000000000E+00 0. -1.
        -13    1    3    3    0    0  0.77978509362E+02  0.54085470778E+02 -0.25812518140E+02  0.98347202118E+02  0.00000000000E+00 0.  1.
         22    1    1    2    0    0 -0.26308758189E+03 -0.16103129759E+03  0.66377931138E+03  0.73194885666E+03  0.00000000000E+00 0. -1.
<mgrwt>
<rscale>  0 0.78059741E+03</rscale>
<asrwt>0</asrwt>
<pdfrwt beam="1">  1        1 0.13603944E+00 0.78059741E+03</pdfrwt>
<pdfrwt beam="2">  1       -1 0.26503466E-01 0.78059741E+03</pdfrwt>
<totfact> 0.23985619E+02</totfact>
</mgrwt>
</event>
<event>
 6    1  0.9562506E-007  0.2672777E+04  0.7818608E-02  0.8343892E-01
          1   -1    0    0  501    0  0.00000000000E+00  0.00000000000E+00  0.16941232255E+04  0.16941232255E+04  0.00000000000E+00 0. -1.
         -1   -1    0    0    0  501 -0.00000000000E+00 -0.00000000000E+00 -0.10541940671E+04  0.10541940671E+04  0.00000000000E+00 0.  1.
         23    2    1    2    0    0  0.58263305951E+02 -0.92914555634E+03 -0.66261119947E+03  0.11472809216E+04  0.10243941474E+03 0.  0.
         11    1    3    3    0    0  0.61523363629E+02 -0.42834611033E+03 -0.35334629974E+03  0.55867622291E+03  0.00000000000E+00 0.  1.
        -11    1    3    3    0    0 -0.32600576776E+01 -0.50079944601E+03 -0.30926489973E+03  0.58860469868E+03  0.00000000000E+00 0. -1.
         22    1    1    2    0    0 -0.58263305951E+02  0.92914555634E+03  0.13025403579E+04  0.16010363711E+04  0.00000000000E+00 0. -1.
<mgrwt>
<rscale>  0 0.26727773E+04</rscale>
<asrwt>0</asrwt>
<pdfrwt beam="1">  1        1 0.26063434E+00 0.26727773E+04</pdfrwt>
<pdfrwt beam="2">  1       -1 0.16218370E+00 0.26727773E+04</pdfrwt>
<totfact> 0.11844470E+00</totfact>
</mgrwt>
</event>
<event>
 6    1  0.9562506E-007  0.3673751E+04  0.7818608E-02  0.8073804E-01
         -2   -1    0    0    0  501 -0.00000000000E+00  0.00000000000E+00  0.22199833405E+04  0.22199833405E+04  0.00000000000E+00 0.  1.
          2   -1    0    0  501    0  0.00000000000E+00 -0.00000000000E+00 -0.15198811819E+04  0.15198811819E+04  0.00000000000E+00 0. -1.
         23    2    1    2    0    0 -0.41420011588E+03 -0.17714312229E+04  0.99968777238E+02  0.18242209259E+04  0.90873079968E+02 0.  0.
         11    1    3    3    0    0 -0.14810900998E+03 -0.76851945906E+03  0.10111822194E+02  0.78272644439E+03  0.00000000000E+00 0.  1.
        -11    1    3    3    0    0 -0.26609110590E+03 -0.10029117638E+04  0.89856955045E+02  0.10414944815E+04  0.00000000000E+00 0. -1.
         22    1    1    2    0    0  0.41420011588E+03  0.17714312229E+04  0.60013338133E+03  0.19156435965E+04  0.00000000000E+00 0. -1.
<mgrwt>
<rscale>  0 0.36737506E+04</rscale>
<asrwt>0</asrwt>
<pdfrwt beam="1">  1        2 0.23382787E+00 0.36737506E+04</pdfrwt>
<pdfrwt beam="2">  1       -2 0.34153590E+00 0.36737506E+04</pdfrwt>
<totfact> 0.17618507E-01</totfact>
</mgrwt>
</event>
<event>
 6    1  0.9562506E-007  0.2752950E+04  0.7818608E-02  0.8318026E-01
         -1   -1    0    0    0  501 -0.00000000000E+00  0.00000000000E+00  0.74682257600E+03  0.74682257600E+03  0.00000000000E+00 0.  1.
          1   -1    0    0  501    0  0.00000000000E+00 -0.00000000000E+00 -0.25369929933E+04  0.25369929933E+04  0.00000000000E+00 0. -1.
         23    2    1    2    0    0 -0.49091068540E+03  0.12825551044E+04 -0.96438318498E+03  0.16813595013E+04  0.10485202950E+03 0.  0.
         13    1    3    3    0    0 -0.33682272542E+03  0.76970093588E+03 -0.62846501686E+03  0.10492174972E+04  0.00000000000E+00 0.  1.
        -13    1    3    3    0    0 -0.15408795998E+03  0.51285416853E+03 -0.33591816812E+03  0.63214200403E+03  0.00000000000E+00 0. -1.
         22    1    1    2    0    0  0.49091068540E+03 -0.12825551044E+04 -0.82578723229E+03  0.16024560680E+04  0.00000000000E+00 0.  1.
<mgrwt>
<rscale>  0 0.27529502E+04</rscale>
<asrwt>0</asrwt>
<pdfrwt beam="1">  1        1 0.39030662E+00 0.27529502E+04</pdfrwt>
<pdfrwt beam="2">  1       -1 0.11489578E+00 0.27529502E+04</pdfrwt>
<totfact> 0.76311102E-01</totfact>
</mgrwt>
</event>
<event>
 6    1  0.9562506E-007  0.7257637E+03  0.7818608E-02  0.9674160E-01
         -2   -1    0    0    0  501 -0.00000000000E+00  0.00000000000E+00  0.11340367558E+03  0.11340367558E+03  0.00000000000E+00 0.  1.
          2   -1    0    0  501    0  0.00000000000E+00 -0.00000000000E+00 -0.11611902205E+04  0.11611902205E+04  0.00000000000E+00 0. -1.
         23    2    1    2    0    0  0.14192107243E+03  0.15838788261E+03 -0.29492290901E+02  0.23432878567E+03  0.93871574043E+02 0.  0.
         11    1    3    3    0    0 -0.10595665393E+01  0.23945520730E+02  0.20790324323E+02  0.31729296080E+02  0.00000000000E+00 0. -1.
        -11    1    3    3    0    0  0.14298063897E+03  0.13444236188E+03 -0.50282615224E+02  0.20259948959E+03  0.00000000000E+00 0.  1.
         22    1    1    2    0    0 -0.14192107243E+03 -0.15838788261E+03 -0.10182942540E+04  0.10402651104E+04  0.00000000000E+00 0. -1.
<mgrwt>
<rscale>  0 0.72576371E+03</rscale>
<asrwt>0</asrwt>
<pdfrwt beam="1">  1        2 0.17864465E+00 0.72576371E+03</pdfrwt>
<pdfrwt beam="2">  1       -2 0.17446719E-01 0.72576371E+03</pdfrwt>
<totfact> 0.54534266E+02</totfact>
</mgrwt>
</event>
<event>
 6    1  0.9562506E-007  0.1267971E+04  0.7818608E-02  0.9055357E-01
          2   -1    0    0  501    0  0.00000000000E+00  0.00000000000E+00  0.23605861431E+03  0.23605861431E+03  0.00000000000E+00 0. -1.
         -2   -1    0    0    0  501 -0.00000000000E+00 -0.00000000000E+00 -0.17027021947E+04  0.17027021947E+04  0.00000000000E+00 0.  1.
         23    2    1    2    0    0 -0.17289650303E+03 -0.28715826091E+03  0.79485484196E+02  0.35671524965E+03  0.92599997631E+02 0.  0.
         13    1    3    3    0    0 -0.23673458202E+02 -0.96997667639E+02 -0.67513422118E+01  0.10007277738E+03  0.00000000000E+00 0. -1.
        -13    1    3    3    0    0 -0.14922304483E+03 -0.19016059327E+03  0.86236826408E+02  0.25664247227E+03  0.00000000000E+00 0.  1.
         22    1    1    2    0    0  0.17289650303E+03  0.28715826091E+03 -0.15461290646E+04  0.15820455594E+04  0.00000000000E+00 0.  1.
<mgrwt>
<rscale>  0 0.12679709E+04</rscale>
<asrwt>0</asrwt>
<pdfrwt beam="1">  1        2 0.36316711E-01 0.12679709E+04</pdfrwt>
<pdfrwt beam="2">  1       -2 0.26195418E+00 0.12679709E+04</pdfrwt>
<totfact> 0.76769332E+00</totfact>
</mgrwt>
</event>
<event>
 6    1  0.9562506E-007  0.3048589E+04  0.7818608E-02  0.8229991E-01
          2   -1    0    0  501    0  0.00000000000E+00  0.00000000000E+00  0.19252334805E+04  0.19252334805E+04  0.00000000000E+00 0. -1.
         -2   -1    0    0    0  501 -0.00000000000E+00 -0.00000000000E+00 -0.12068530022E+04  0.12068530022E+04  0.00000000000E+00 0.  1.
         23    2    1    2    0    0 -0.12807364131E+04  0.34259540776E+03 -0.41030998988E+03  0.13909375671E+04  0.93250493540E+02 0.  0.
         13    1    3    3    0    0 -0.43967891806E+03  0.11904186243E+03 -0.94953055790E+02  0.46530054675E+03  0.00000000000E+00 0. -1.
        -13    1    3    3    0    0 -0.84105749506E+03  0.22355354533E+03 -0.31535693409E+03  0.92563702038E+03  0.00000000000E+00 0.  1.
         22    1    1    2    0    0  0.12807364131E+04 -0.34259540776E+03  0.11286904682E+04  0.17411489156E+04  0.00000000000E+00 0. -1.
<mgrwt>
<rscale>  0 0.30485891E+04</rscale>
<asrwt>0</asrwt>
<pdfrwt beam="1">  1        2 0.29618977E+00 0.30485891E+04</pdfrwt>
<pdfrwt beam="2">  1       -2 0.18566969E+00 0.30485891E+04</pdfrwt>
<totfact> 0.10394712E+00</totfact>
</mgrwt>
</event>
<event>
 6    1  0.9562506E-007  0.1336001E+04  0.7818608E-02  0.9001493E-01
         -1   -1    0    0    0  501 -0.00000000000E+00  0.00000000000E+00  0.62590454012E+03  0.62590454012E+03  0.00000000000E+00 0.  1.
          1   -1    0    0  501    0  0.00000000000E+00 -0.00000000000E+00 -0.71292768838E+03  0.71292768838E+03  0.00000000000E+00 0. -1.
         23    2    1    2    0    0 -0.12889508736E+03  0.61730400390E+02  0.60707782390E+03  0.63017099390E+03  0.90263012380E+02 0.  0.
         11    1    3    3    0    0 -0.80523827331E+02  0.83285845085E+02  0.40112303495E+03  0.41751683550E+03  0.00000000000E+00 0.  1.
        -11    1    3    3    0    0 -0.48371260028E+02 -0.21555444695E+02  0.20595478895E+03  0.21265415840E+03  0.00000000000E+00 0. -1.
         22    1    1    2    0    0  0.12889508736E+03 -0.61730400390E+02 -0.69410097216E+03  0.70866123461E+03  0.00000000000E+00 0. -1.
<mgrwt>
<rscale>  0 0.13360010E+04</rscale>
<asrwt>0</asrwt>
<pdfrwt beam="1">  1        1 0.10968118E+00 0.13360010E+04</pdfrwt>
<pdfrwt beam="2">  1       -1 0.96293007E-01 0.13360010E+04</pdfrwt>
<totfact> 0.26974812E+01</totfact>
</mgrwt>
</event>
<event>
 6    1  0.9562506E-007  0.2910692E+04  0.7818608E-02  0.8269703E-01
         -1   -1    0    0    0  501 -0.00000000000E+00  0.00000000000E+00  0.60412109871E+03  0.60412109871E+03  0.00000000000E+00 0.  1.
          1   -1    0    0  501    0  0.00000000000E+00 -0.00000000000E+00 -0.35059730168E+04  0.35059730168E+04  0.00000000000E+00 0. -1.
         23    2    1    2    0    0  0.13408236698E+04  0.36781756352E+03 -0.85218340300E+03  0.16333545459E+04  0.92372326783E+02 0.  0.
         13    1    3    3    0    0  0.82358740668E+03  0.24294101963E+03 -0.57475416976E+03  0.10332758156E+04  0.00000000000E+00 0.  1.
        -13    1    3    3    0    0  0.51723626317E+03  0.12487654389E+03 -0.27742923324E+03  0.60007873034E+03  0.00000000000E+00 0. -1.
         22    1    1    2    0    0 -0.13408236698E+04 -0.36781756352E+03 -0.20496685151E+04  0.24767395695E+04  0.00000000000E+00 0. -1.
<mgrwt>
<rscale>  0 0.29106922E+04</rscale>
<asrwt>0</asrwt>
<pdfrwt beam="1">  1        1 0.53938047E+00 0.29106922E+04</pdfrwt>
<pdfrwt beam="2">  1       -1 0.92941706E-01 0.29106922E+04</pdfrwt>
<totfact> 0.23826001E-01</totfact>
</mgrwt>
</event>
<event>
 6    1  0.9562506E-007  0.2969623E+04  0.7818608E-02  0.8252459E-01
         -2   -1    0    0    0  501 -0.00000000000E+00  0.00000000000E+00  0.23509126126E+04  0.23509126126E+04  0.00000000000E+00 0.  1.
          2   -1    0    0  501    0  0.00000000000E+00 -0.00000000000E+00 -0.93779091556E+03  0.93779091556E+03  0.00000000000E+00 0. -1.
         23    2    1    2    0    0  0.11261199773E+04  0.23678741730E+03  0.17439418110E+04  0.20913495988E+04  0.90529663975E+02 0.  0.
         13    1    3    3    0    0  0.73455383254E+03  0.15524779925E+03  0.12142821775E+04  0.14276387563E+04  0.00000000000E+00 0. -1.
        -13    1    3    3    0    0  0.39156614481E+03  0.81539618052E+02  0.52965963351E+03  0.66371084249E+03  0.00000000000E+00 0.  1.
         22    1    1    2    0    0 -0.11261199773E+04 -0.23678741730E+03 -0.33082011392E+03  0.11973539294E+04  0.00000000000E+00 0. -1.
<mgrwt>
<rscale>  0 0.29696225E+04</rscale>
<asrwt>0</asrwt>
<pdfrwt beam="1">  1        2 0.14427553E+00 0.29696225E+04</pdfrwt>
<pdfrwt beam="2">  1       -2 0.36167886E+00 0.29696225E+04</pdfrwt>
<totfact> 0.31134333E-01</totfact>
</mgrwt>
</event>
<event>
 6    1  0.9562506E-007  0.1767834E+04  0.7818608E-02  0.8723595E-01
         -1   -1    0    0    0  501 -0.00000000000E+00  0.00000000000E+00  0.43504694024E+03  0.43504694024E+03  0.00000000000E+00 0.  1.
          1   -1    0    0  501    0  0.00000000000E+00 -0.00000000000E+00 -0.17959186973E+04  0.17959186973E+04  0.00000000000E+00 0. -1.
         23    2    1    2    0    0 -0.44736808226E+03 -0.16000848284E+02  0.27648260128E+03  0.53351946080E+03  0.88352465028E+02 0.  0.
         13    1    3    3    0    0 -0.25255101684E+03  0.14423939288E+02  0.19823249136E+03  0.32138168393E+03  0.00000000000E+00 0. -1.
        -13    1    3    3    0    0 -0.19481706541E+03 -0.30424787572E+02  0.78250109918E+02  0.21213777687E+03  0.00000000000E+00 0.  1.
         22    1    1    2    0    0  0.44736808226E+03  0.16000848284E+02 -0.16373543584E+04  0.16974461768E+04  0.00000000000E+00 0. -1.
<mgrwt>
<rscale>  0 0.17678336E+04</rscale>
<asrwt>0</asrwt>
<pdfrwt beam="1">  1        1 0.27629519E+00 0.17678336E+04</pdfrwt>
<pdfrwt beam="2">  1       -1 0.66930297E-01 0.17678336E+04</pdfrwt>
<totfact> 0.87732660E+00</totfact>
</mgrwt>
</event>
<event>
 6    1  0.9562506E-007  0.3028241E+04  0.7818608E-02  0.8235712E-01
         -2   -1    0    0    0  501 -0.00000000000E+00  0.00000000000E+00  0.21481502184E+04  0.21481502184E+04  0.00000000000E+00 0.  1.
          2   -1    0    0  501    0  0.00000000000E+00 -0.00000000000E+00 -0.10672258830E+04  0.10672258830E+04  0.00000000000E+00 0. -1.
         23    2    1    2    0    0  0.90802436219E+03 -0.10084132397E+04 -0.16897364315E+03  0.13704776053E+04  0.90836503317E+02 0.  0.
         13    1    3    3    0    0  0.31046072620E+03 -0.28873711000E+03 -0.71941680468E+02  0.43003556433E+03  0.00000000000E+00 0. -1.
        -13    1    3    3    0    0  0.59756363599E+03 -0.71967612966E+03 -0.97031962686E+02  0.94044204098E+03  0.00000000000E+00 0.  1.
         22    1    1    2    0    0 -0.90802436219E+03  0.10084132397E+04  0.12498979785E+04  0.18448984961E+04  0.00000000000E+00 0. -1.
<mgrwt>
<rscale>  0 0.30282414E+04</rscale>
<asrwt>0</asrwt>
<pdfrwt beam="1">  1        2 0.16418860E+00 0.30282414E+04</pdfrwt>
<pdfrwt beam="2">  1       -2 0.33048465E+00 0.30282414E+04</pdfrwt>
<totfact> 0.40191976E-01</totfact>
</mgrwt>
</event>
<event>
 6    1  0.9562506E-007  0.3032093E+04  0.7818608E-02  0.8234626E-01
         -3   -1    0    0    0  501 -0.00000000000E+00  0.00000000000E+00  0.20135164454E+04  0.20135164454E+04  0.00000000000E+00 0.  1.
          3   -1    0    0  501    0  0.00000000000E+00 -0.00000000000E+00 -0.11414839292E+04  0.11414839292E+04  0.00000000000E+00 0. -1.
         23    2    1    2    0    0  0.43592995402E+02  0.44936741171E+03 -0.10680034392E+04  0.11631241414E+04  0.91624244021E+02 0.  0.
         13    1    3    3    0    0  0.46546695479E+02  0.15331873469E+03 -0.30152803447E+03  0.34145627076E+03  0.00000000000E+00 0.  1.
        -13    1    3    3    0    0 -0.29537000767E+01  0.29604867701E+03 -0.76647540477E+03  0.82166787063E+03  0.00000000000E+00 0. -1.
         22    1    1    2    0    0 -0.43592995402E+02 -0.44936741171E+03  0.19400359554E+04  0.19918762332E+04  0.00000000000E+00 0.  1.
<mgrwt>
<rscale>  0 0.30320928E+04</rscale>
<asrwt>0</asrwt>
<pdfrwt beam="1">  1        3 0.17561291E+00 0.30320928E+04</pdfrwt>
<pdfrwt beam="2">  1       -3 0.30977176E+00 0.30320928E+04</pdfrwt>
<totfact> 0.15768246E-02</totfact>
</mgrwt>
</event>
<event>
 6    1  0.9562506E-007  0.4909770E+04  0.7818608E-02  0.7842579E-01
         -2   -1    0    0    0  501 -0.00000000000E+00  0.00000000000E+00  0.18044814663E+04  0.18044814663E+04  0.00000000000E+00 0.  1.
          2   -1    0    0  501    0  0.00000000000E+00 -0.00000000000E+00 -0.33397188661E+04  0.33397188661E+04  0.00000000000E+00 0. -1.
         23    2    1    2    0    0  0.89674631946E+03 -0.22840353059E+04 -0.73531455591E+03  0.25633385003E+04  0.95107994707E+02 0.  0.
         11    1    3    3    0    0  0.25550435888E+03 -0.73996549543E+03 -0.26594244654E+03  0.82677493715E+03  0.00000000000E+00 0. -1.
        -11    1    3    3    0    0  0.64124196057E+03 -0.15440698105E+04 -0.46937210937E+03  0.17365635631E+04  0.00000000000E+00 0.  1.
         22    1    1    2    0    0 -0.89674631946E+03  0.22840353059E+04 -0.79992284390E+03  0.25808618321E+04  0.00000000000E+00 0. -1.
<mgrwt>
<rscale>  0 0.49097702E+04</rscale>
<asrwt>0</asrwt>
<pdfrwt beam="1">  1        2 0.51380290E+00 0.49097702E+04</pdfrwt>
<pdfrwt beam="2">  1       -2 0.27761254E+00 0.49097702E+04</pdfrwt>
<totfact> 0.33405034E-02</totfact>
</mgrwt>
</event>
<event>
 6    1  0.9562506E-007  0.1289085E+04  0.7818608E-02  0.9038266E-01
         -2   -1    0    0    0  501 -0.00000000000E+00  0.00000000000E+00  0.84445222509E+03  0.84445222509E+03  0.00000000000E+00 0.  1.
          2   -1    0    0  501    0  0.00000000000E+00 -0.00000000000E+00 -0.49195835360E+03  0.49195835360E+03  0.00000000000E+00 0. -1.
         23    2    1    2    0    0 -0.18192922862E+03 -0.16487093571E+03 -0.43671881171E+03  0.50988935755E+03  0.94779569394E+02 0.  0.
         13    1    3    3    0    0 -0.12093399652E+03 -0.85177043241E+02 -0.17240398370E+03  0.22716358381E+03  0.00000000000E+00 0.  1.
        -13    1    3    3    0    0 -0.60995232092E+02 -0.79693892465E+02 -0.26431482801E+03  0.28272577375E+03  0.00000000000E+00 0. -1.
         22    1    1    2    0    0  0.18192922862E+03  0.16487093571E+03  0.78921268320E+03  0.82652122114E+03  0.00000000000E+00 0.  1.
<mgrwt>
<rscale>  0 0.12890855E+04</rscale>
<asrwt>0</asrwt>
<pdfrwt beam="1">  1        2 0.75685901E-01 0.12890855E+04</pdfrwt>
<pdfrwt beam="2">  1       -2 0.12991573E+00 0.12890855E+04</pdfrwt>
<totfact> 0.26762712E+01</totfact>
</mgrwt>
</event>
<event>
 6    1  0.9562506E-007  0.1209754E+04  0.7818608E-02  0.9104362E-01
         -1   -1    0    0    0  501 -0.00000000000E+00  0.00000000000E+00  0.21934866737E+03  0.21934866737E+03  0.00000000000E+00 0.  1.
          1   -1    0    0  501    0  0.00000000000E+00 -0.00000000000E+00 -0.16680110394E+04  0.16680110394E+04  0.00000000000E+00 0. -1.
         23    2    1    2    0    0 -0.45640715603E+02 -0.59797007690E+03 -0.65663946361E+03  0.89390534180E+03  0.90774925775E+02 0.  0.
         13    1    3    3    0    0 -0.26176892386E+01 -0.23214778842E+03 -0.19405395149E+03  0.30258285486E+03  0.00000000000E+00 0.  1.
        -13    1    3    3    0    0 -0.43023026365E+02 -0.36582228848E+03 -0.46258551212E+03  0.59132248694E+03  0.00000000000E+00 0. -1.
         22    1    1    2    0    0  0.45640715603E+02  0.59797007690E+03 -0.79202290840E+03  0.99345436494E+03  0.00000000000E+00 0.  1.
<mgrwt>
<rscale>  0 0.12097537E+04</rscale>
<asrwt>0</asrwt>
<pdfrwt beam="1">  1        1 0.25661709E+00 0.12097537E+04</pdfrwt>
<pdfrwt beam="2">  1       -1 0.33745948E-01 0.12097537E+04</pdfrwt>
<totfact> 0.41071732E+01</totfact>
</mgrwt>
</event>
<event>
 6    1  0.9562506E-007  0.4097117E+04  0.7818608E-02  0.7985236E-01
         -2   -1    0    0    0  501 -0.00000000000E+00  0.00000000000E+00  0.22999917328E+04  0.22999917328E+04  0.00000000000E+00 0.  1.
          2   -1    0    0  501    0  0.00000000000E+00 -0.00000000000E+00 -0.18246118285E+04  0.18246118285E+04  0.00000000000E+00 0. -1.
         23    2    1    2    0    0  0.14152852105E+04  0.11317046120E+04 -0.72178909531E+03  0.19527377346E+04  0.91747512806E+02 0.  0.
         13    1    3    3    0    0  0.80324208294E+03  0.58389389909E+03 -0.39743474370E+03  0.10696187661E+04  0.00000000000E+00 0. -1.
        -13    1    3    3    0    0  0.61204312752E+03  0.54781071295E+03 -0.32435435161E+03  0.88311896853E+03  0.00000000000E+00 0.  1.
         22    1    1    2    0    0 -0.14152852105E+04 -0.11317046120E+04  0.11971689996E+04  0.21718658267E+04  0.00000000000E+00 0.  1.
<mgrwt>
<rscale>  0 0.40971171E+04</rscale>
<asrwt>0</asrwt>
<pdfrwt beam="1">  1        2 0.28070951E+00 0.40971171E+04</pdfrwt>
<pdfrwt beam="2">  1       -2 0.35384488E+00 0.40971171E+04</pdfrwt>
<totfact> 0.96266316E-02</totfact>
</mgrwt>
</event>
<event>
 6    1  0.9562506E-007  0.1615719E+04  0.7818608E-02  0.8810949E-01
          2   -1    0    0  501    0  0.00000000000E+00  0.00000000000E+00  0.28372633414E+04  0.28372633414E+04  0.00000000000E+00 0. -1.
         -2   -1    0    0    0  501 -0.00000000000E+00 -0.00000000000E+00 -0.23002332208E+03  0.23002332208E+03  0.00000000000E+00 0.  1.
         23    2    1    2    0    0 -0.15580407506E+03  0.42931337244E+03  0.48434208305E+02  0.46804214630E+03  0.90181464926E+02 0.  0.
         13    1    3    3    0    0 -0.11559724817E+03  0.26080326080E+03 -0.93271347065E+01  0.28542610265E+03  0.00000000000E+00 0. -1.
        -13    1    3    3    0    0 -0.40206826889E+02  0.16851011164E+03  0.57761343012E+02  0.18261604365E+03  0.00000000000E+00 0.  1.
         22    1    1    2    0    0  0.15580407506E+03 -0.42931337244E+03  0.25588058110E+04  0.25992445171E+04  0.00000000000E+00 0. -1.
<mgrwt>
<rscale>  0 0.16157187E+04</rscale>
<asrwt>0</asrwt>
<pdfrwt beam="1">  1        2 0.43650203E+00 0.16157187E+04</pdfrwt>
<pdfrwt beam="2">  1       -2 0.35388205E-01 0.16157187E+04</pdfrwt>
<totfact> 0.15837200E+01</totfact>
</mgrwt>
</event>
<event>
 6    1  0.9562506E-007  0.1173652E+04  0.7818608E-02  0.9136237E-01
         -1   -1    0    0    0  501 -0.00000000000E+00  0.00000000000E+00  0.11194837881E+04  0.11194837881E+04  0.00000000000E+00 0.  1.
          1   -1    0    0  501    0  0.00000000000E+00 -0.00000000000E+00 -0.30761006364E+03  0.30761006364E+03  0.00000000000E+00 0. -1.
         23    2    1    2    0    0 -0.36222994490E+02  0.44462816624E+03 -0.48029418491E+02  0.45836286389E+03  0.93719679954E+02 0.  0.
         11    1    3    3    0    0  0.14716250185E+02  0.29155588083E+03 -0.74963918531E+01  0.29202327913E+03  0.00000000000E+00 0. -1.
        -11    1    3    3    0    0 -0.50939244675E+02  0.15307228542E+03 -0.40533026638E+02  0.16633958476E+03  0.00000000000E+00 0.  1.
         22    1    1    2    0    0  0.36222994490E+02 -0.44462816624E+03  0.85990314294E+03  0.96873098784E+03  0.00000000000E+00 0.  1.
<mgrwt>
<rscale>  0 0.11736515E+04</rscale>
<asrwt>0</asrwt>
<pdfrwt beam="1">  1        1 0.47324626E-01 0.11736515E+04</pdfrwt>
<pdfrwt beam="2">  1       -1 0.17222827E+00 0.11736515E+04</pdfrwt>
<totfact> 0.19937750E+01</totfact>
</mgrwt>
</event>
<event>
 6    1  0.9562506E-007  0.2556068E+04  0.7818608E-02  0.8383279E-01
          1   -1    0    0  501    0  0.00000000000E+00  0.00000000000E+00  0.16010308136E+04  0.16010308136E+04  0.00000000000E+00 0. -1.
         -1   -1    0    0    0  501 -0.00000000000E+00 -0.00000000000E+00 -0.10201995735E+04  0.10201995735E+04  0.00000000000E+00 0.  1.
         23    2    1    2    0    0  0.89595261728E+03  0.41513563347E+03 -0.53856435190E+03  0.11285431533E+04  0.92137945885E+02 0.  0.
         13    1    3    3    0    0  0.78668127329E+03  0.32993173200E+03 -0.45731260197E+03  0.96791383369E+03  0.00000000000E+00 0. -1.
        -13    1    3    3    0    0  0.10927134399E+03  0.85203901468E+02 -0.81251749929E+02  0.16062931958E+03  0.00000000000E+00 0.  1.
         22    1    1    2    0    0 -0.89595261728E+03 -0.41513563347E+03  0.11193955920E+04  0.14926872338E+04  0.00000000000E+00 0. -1.
<mgrwt>
<rscale>  0 0.25560680E+04</rscale>
<asrwt>0</asrwt>
<pdfrwt beam="1">  1        1 0.24631243E+00 0.25560680E+04</pdfrwt>
<pdfrwt beam="2">  1       -1 0.15695378E+00 0.25560680E+04</pdfrwt>
<totfact> 0.15184634E+00</totfact>
</mgrwt>
</event>
<event>
 6    1  0.9562506E-007  0.1732238E+04  0.7818608E-02  0.8743189E-01
          2   -1    0    0  501    0  0.00000000000E+00  0.00000000000E+00  0.14021530755E+04  0.14021530755E+04  0.00000000000E+00 0. -1.
         -2   -1    0    0    0  501 -0.00000000000E+00 -0.00000000000E+00 -0.53500717516E+03  0.53500717516E+03  0.00000000000E+00 0.  1.
         23    2    1    2    0    0 -0.30746491125E+03 -0.24407554416E+02  0.13366576165E+04  0.13754026054E+04  0.99741380912E+02 0.  0.
         11    1    3    3    0    0 -0.14088474531E+03 -0.60358094070E+02  0.67013264530E+03  0.68743681403E+03  0.00000000000E+00 0.  1.
        -11    1    3    3    0    0 -0.16658016593E+03  0.35950539654E+02  0.66652497116E+03  0.68796579142E+03  0.00000000000E+00 0. -1.
         22    1    1    2    0    0  0.30746491125E+03  0.24407554416E+02 -0.46951171613E+03  0.56175764520E+03  0.00000000000E+00 0.  1.
<mgrwt>
<rscale>  0 0.17322378E+04</rscale>
<asrwt>0</asrwt>
<pdfrwt beam="1">  1        2 0.21571586E+00 0.17322378E+04</pdfrwt>
<pdfrwt beam="2">  1       -2 0.82308797E-01 0.17322378E+04</pdfrwt>
<totfact> 0.17754343E+01</totfact>
</mgrwt>
</event>
<event>
 6    1  0.9562506E-007  0.2427574E+04  0.7818608E-02  0.8429252E-01
          2   -1    0    0  501    0  0.00000000000E+00  0.00000000000E+00  0.16626332514E+04  0.16626332514E+04  0.00000000000E+00 0. -1.
         -2   -1    0    0    0  501 -0.00000000000E+00 -0.00000000000E+00 -0.88611187444E+03  0.88611187444E+03  0.00000000000E+00 0.  1.
         23    2    1    2    0    0  0.23378358126E+03 -0.11893956504E+04  0.38398089583E+03  0.12746160879E+04  0.88814790669E+02 0.  0.
         13    1    3    3    0    0  0.42671053388E+02 -0.42991317482E+03  0.14810965622E+03  0.45670847041E+03  0.00000000000E+00 0.  1.
        -13    1    3    3    0    0  0.19111252787E+03 -0.75948247560E+03  0.23587123962E+03  0.81790761748E+03  0.00000000000E+00 0. -1.
         22    1    1    2    0    0 -0.23378358126E+03  0.11893956504E+04  0.39254048118E+03  0.12741290380E+04  0.00000000000E+00 0.  1.
<mgrwt>
<rscale>  0 0.24275742E+04</rscale>
<asrwt>0</asrwt>
<pdfrwt beam="1">  1        2 0.25578973E+00 0.24275742E+04</pdfrwt>
<pdfrwt beam="2">  1       -2 0.13632490E+00 0.24275742E+04</pdfrwt>
<totfact> 0.35522987E+00</totfact>
</mgrwt>
</event>
<event>
 6    1  0.9562506E-007  0.1400185E+04  0.7818608E-02  0.8953685E-01
          2   -1    0    0  501    0  0.00000000000E+00  0.00000000000E+00  0.16319270040E+04  0.16319270040E+04  0.00000000000E+00 0. -1.
         -2   -1    0    0    0  501 -0.00000000000E+00 -0.00000000000E+00 -0.30033767366E+03  0.30033767366E+03  0.00000000000E+00 0.  1.
         23    2    1    2    0    0  0.39078359480E+01 -0.42542875260E+03 -0.93242648756E+02  0.44527070881E+03  0.92557646119E+02 0.  0.
         13    1    3    3    0    0  0.25691141723E+02 -0.32945386979E+03 -0.38594392495E+02  0.33270018667E+03  0.00000000000E+00 0.  1.
        -13    1    3    3    0    0 -0.21783305775E+02 -0.95974882819E+02 -0.54648256261E+02  0.11257052214E+03  0.00000000000E+00 0. -1.
         22    1    1    2    0    0 -0.39078359480E+01  0.42542875260E+03  0.14248319791E+04  0.14869939689E+04  0.00000000000E+00 0. -1.
<mgrwt>
<rscale>  0 0.14001845E+04</rscale>
<asrwt>0</asrwt>
<pdfrwt beam="1">  1        2 0.25106569E+00 0.14001845E+04</pdfrwt>
<pdfrwt beam="2">  1       -2 0.46205797E-01 0.14001845E+04</pdfrwt>
<totfact> 0.46252577E+01</totfact>
</mgrwt>
</event>
<event>
 6    1  0.9562506E-007  0.2986168E+04  0.7818608E-02  0.8247692E-01
          1   -1    0    0  501    0  0.00000000000E+00  0.00000000000E+00  0.23159427888E+04  0.23159427888E+04  0.00000000000E+00 0. -1.
         -1   -1    0    0    0  501 -0.00000000000E+00 -0.00000000000E+00 -0.96258831170E+03  0.96258831170E+03  0.00000000000E+00 0.  1.
         23    2    1    2    0    0 -0.15025604406E+03  0.13690279908E+04  0.13063639433E+04  0.19004808007E+04  0.91793262565E+02 0.  0.
         13    1    3    3    0    0 -0.13906168542E+03  0.98726446899E+03  0.98180707363E+03  0.13992763894E+04  0.00000000000E+00 0.  1.
        -13    1    3    3    0    0 -0.11194358641E+02  0.38176352184E+03  0.32455686970E+03  0.50120441133E+03  0.00000000000E+00 0. -1.
         22    1    1    2    0    0  0.15025604406E+03 -0.13690279908E+04  0.46990533777E+02  0.13780502998E+04  0.00000000000E+00 0.  1.
<mgrwt>
<rscale>  0 0.29861678E+04</rscale>
<asrwt>0</asrwt>
<pdfrwt beam="1">  1        1 0.35629889E+00 0.29861678E+04</pdfrwt>
<pdfrwt beam="2">  1       -1 0.14809051E+00 0.29861678E+04</pdfrwt>
<totfact> 0.55833591E-01</totfact>
</mgrwt>
</event>
<event>
 6    1  0.9562506E-007  0.3576815E+04  0.7818608E-02  0.8095823E-01
          1   -1    0    0  501    0  0.00000000000E+00  0.00000000000E+00  0.29505422078E+04  0.29505422078E+04  0.00000000000E+00 0. -1.
         -1   -1    0    0    0  501 -0.00000000000E+00 -0.00000000000E+00 -0.10840046630E+04  0.10840046630E+04  0.00000000000E+00 0.  1.
         23    2    1    2    0    0  0.57505627426E+03  0.62081038691E+03 -0.84180476641E+03  0.11970808658E+04  0.90950972776E+02 0.  0.
         11    1    3    3    0    0  0.10012374501E+03  0.11492730591E+03 -0.10572284462E+03  0.18550032300E+03  0.00000000000E+00 0. -1.
        -11    1    3    3    0    0  0.47493252925E+03  0.50588308100E+03 -0.73608192179E+03  0.10115805428E+04  0.00000000000E+00 0.  1.
         22    1    1    2    0    0 -0.57505627426E+03 -0.62081038691E+03  0.27083423112E+04  0.28374660051E+04  0.00000000000E+00 0. -1.
<mgrwt>
<rscale>  0 0.35768151E+04</rscale>
<asrwt>0</asrwt>
<pdfrwt beam="1">  1        1 0.45392957E+00 0.35768151E+04</pdfrwt>
<pdfrwt beam="2">  1       -1 0.16676995E+00 0.35768151E+04</pdfrwt>
<totfact> 0.13676871E-01</totfact>
</mgrwt>
</event>
<event>
 6    1  0.9562506E-007  0.1939642E+04  0.7818608E-02  0.8635372E-01
         -1   -1    0    0    0  501 -0.00000000000E+00  0.00000000000E+00  0.79294859270E+03  0.79294859270E+03  0.00000000000E+00 0.  1.
          1   -1    0    0  501    0  0.00000000000E+00 -0.00000000000E+00 -0.11861461252E+04  0.11861461252E+04  0.00000000000E+00 0. -1.
         23    2    1    2    0    0 -0.80944123511E+03  0.52920499915E+03 -0.23492191185E+03  0.99914358836E+03  0.88580817752E+02 0.  0.
         13    1    3    3    0    0 -0.59867452619E+03  0.36738790204E+03 -0.13507680290E+03  0.71528372102E+03  0.00000000000E+00 0. -1.
        -13    1    3    3    0    0 -0.21076670892E+03  0.16181709711E+03 -0.99845108943E+02  0.28385986734E+03  0.00000000000E+00 0.  1.
         22    1    1    2    0    0  0.80944123511E+03 -0.52920499915E+03 -0.15827562069E+03  0.97995112956E+03  0.00000000000E+00 0.  1.
<mgrwt>
<rscale>  0 0.19396421E+04</rscale>
<asrwt>0</asrwt>
<pdfrwt beam="1">  1        1 0.18248402E+00 0.19396421E+04</pdfrwt>
<pdfrwt beam="2">  1       -1 0.12199209E+00 0.19396421E+04</pdfrwt>
<totfact> 0.60643541E+00</totfact>
</mgrwt>
</event>
<event>
 6    1  0.9562506E-007  0.3162792E+04  0.7818608E-02  0.8198713E-01
         -1   -1    0    0    0  501 -0.00000000000E+00  0.00000000000E+00  0.19833442400E+04  0.19833442400E+04  0.00000000000E+00 0.  1.
          1   -1    0    0  501    0  0.00000000000E+00 -0.00000000000E+00 -0.12609071470E+04  0.12609071470E+04  0.00000000000E+00 0. -1.
         23    2    1    2    0    0 -0.83916500299E+03 -0.75328760585E+03 -0.77389426483E+03  0.13705791500E+04  0.89077234929E+02 0.  0.
         13    1    3    3    0    0 -0.37723063785E+03 -0.38053758740E+03 -0.32880072116E+03  0.62866662373E+03  0.00000000000E+00 0.  1.
        -13    1    3    3    0    0 -0.46193436515E+03 -0.37275001845E+03 -0.44509354367E+03  0.74191252623E+03  0.00000000000E+00 0. -1.
         22    1    1    2    0    0  0.83916500299E+03  0.75328760585E+03  0.14963313578E+04  0.18736722370E+04  0.00000000000E+00 0.  1.
<mgrwt>
<rscale>  0 0.31627918E+04</rscale>
<asrwt>0</asrwt>
<pdfrwt beam="1">  1        1 0.19398572E+00 0.31627918E+04</pdfrwt>
<pdfrwt beam="2">  1       -1 0.30512988E+00 0.31627918E+04</pdfrwt>
<totfact> 0.24770084E-01</totfact>
</mgrwt>
</event>
<event>
 6    1  0.9562506E-007  0.3903761E+04  0.7818608E-02  0.8024247E-01
         -2   -1    0    0    0  501 -0.00000000000E+00  0.00000000000E+00  0.25581051123E+04  0.25581051123E+04  0.00000000000E+00 0.  1.
          2   -1    0    0  501    0  0.00000000000E+00 -0.00000000000E+00 -0.14893203041E+04  0.14893203041E+04  0.00000000000E+00 0. -1.
         23    2    1    2    0    0 -0.16586341707E+04  0.82530273510E+03 -0.98872946526E+02  0.18575357961E+04  0.92040520468E+02 0.  0.
         13    1    3    3    0    0 -0.11027331794E+04  0.58014220820E+03 -0.99261388987E+02  0.12499753078E+04  0.00000000000E+00 0. -1.
        -13    1    3    3    0    0 -0.55590099129E+03  0.24516052690E+03  0.38844246128E+00  0.60756048831E+03  0.00000000000E+00 0.  1.
         22    1    1    2    0    0  0.16586341707E+04 -0.82530273510E+03  0.11676577547E+04  0.21898896203E+04  0.00000000000E+00 0.  1.
<mgrwt>
<rscale>  0 0.39037612E+04</rscale>
<asrwt>0</asrwt>
<pdfrwt beam="1">  1        2 0.22912620E+00 0.39037612E+04</pdfrwt>
<pdfrwt beam="2">  1       -2 0.39355463E+00 0.39037612E+04</pdfrwt>
<totfact> 0.83637717E-02</totfact>
</mgrwt>
</event>
<event>
 6    1  0.9562506E-007  0.1044199E+04  0.7818608E-02  0.9261354E-01
          1   -1    0    0  501    0  0.00000000000E+00  0.00000000000E+00  0.23882288214E+03  0.23882288214E+03  0.00000000000E+00 0. -1.
         -1   -1    0    0    0  501 -0.00000000000E+00 -0.00000000000E+00 -0.11413814686E+04  0.11413814686E+04  0.00000000000E+00 0.  1.
         23    2    1    2    0    0  0.28822537219E+03 -0.42085720479E+03 -0.33487458603E+03  0.61701382647E+03  0.91490008662E+02 0.  0.
         11    1    3    3    0    0  0.57082806569E+02 -0.42547978839E+02 -0.73684334997E+02  0.10246052183E+03  0.00000000000E+00 0.  1.
        -11    1    3    3    0    0  0.23114256562E+03 -0.37830922595E+03 -0.26119025103E+03  0.51455330464E+03  0.00000000000E+00 0. -1.
         22    1    1    2    0    0 -0.28822537219E+03  0.42085720479E+03 -0.56768400042E+03  0.76319052427E+03  0.00000000000E+00 0.  1.
<mgrwt>
<rscale>  0 0.10441992E+04</rscale>
<asrwt>0</asrwt>
<pdfrwt beam="1">  1        1 0.36741983E-01 0.10441992E+04</pdfrwt>
<pdfrwt beam="2">  1       -1 0.17559715E+00 0.10441992E+04</pdfrwt>
<totfact> 0.26446523E+01</totfact>
</mgrwt>
</event>
<event>
 6    1  0.9562506E-007  0.3674683E+04  0.7818608E-02  0.8073596E-01
          2   -1    0    0  501    0  0.00000000000E+00  0.00000000000E+00  0.17809465847E+04  0.17809465847E+04  0.00000000000E+00 0. -1.
         -2   -1    0    0    0  501 -0.00000000000E+00 -0.00000000000E+00 -0.18955226592E+04  0.18955226592E+04  0.00000000000E+00 0.  1.
         23    2    1    2    0    0 -0.16764805831E+04 -0.62563630948E+03 -0.46917440290E+03  0.18522576576E+04  0.93412378385E+02 0.  0.
         11    1    3    3    0    0 -0.11699127130E+04 -0.41033363142E+03 -0.28816344087E+03  0.12728344801E+04  0.00000000000E+00 0. -1.
        -11    1    3    3    0    0 -0.50656787012E+03 -0.21530267806E+03 -0.18101096204E+03  0.57942317747E+03  0.00000000000E+00 0.  1.
         22    1    1    2    0    0  0.16764805831E+04  0.62563630948E+03  0.35459832832E+03  0.18242115863E+04  0.00000000000E+00 0. -1.
<mgrwt>
<rscale>  0 0.36746834E+04</rscale>
<asrwt>0</asrwt>
<pdfrwt beam="1">  1        2 0.27399178E+00 0.36746834E+04</pdfrwt>
<pdfrwt beam="2">  1       -2 0.29161887E+00 0.36746834E+04</pdfrwt>
<totfact> 0.25616181E-01</totfact>
</mgrwt>
</event>
<event>
 6    1  0.9562506E-007  0.2966989E+04  0.7818608E-02  0.8253221E-01
         -2   -1    0    0    0  501 -0.00000000000E+00  0.00000000000E+00  0.11136879156E+04  0.11136879156E+04  0.00000000000E+00 0.  1.
          2   -1    0    0  501    0  0.00000000000E+00 -0.00000000000E+00 -0.19760974719E+04  0.19760974719E+04  0.00000000000E+00 0. -1.
         23    2    1    2    0    0  0.12503472056E+03 -0.14589946899E+04 -0.66966801327E+03  0.16128126426E+04  0.91707063391E+02 0.  0.
         13    1    3    3    0    0  0.11794346498E+03 -0.11211508789E+04 -0.47966415220E+03  0.12251398504E+04  0.00000000000E+00 0.  1.
        -13    1    3    3    0    0  0.70912555860E+01 -0.33784381105E+03 -0.19000386107E+03  0.38767279217E+03  0.00000000000E+00 0. -1.
         22    1    1    2    0    0 -0.12503472056E+03  0.14589946899E+04 -0.19274154303E+03  0.14769727449E+04  0.00000000000E+00 0. -1.
<mgrwt>
<rscale>  0 0.29669890E+04</rscale>
<asrwt>0</asrwt>
<pdfrwt beam="1">  1        2 0.30401499E+00 0.29669890E+04</pdfrwt>
<pdfrwt beam="2">  1       -2 0.17133660E+00 0.29669890E+04</pdfrwt>
<totfact> 0.12331310E+00</totfact>
</mgrwt>
</event>
<event>
 6    1  0.9562506E-007  0.1990512E+04  0.7818608E-02  0.8611069E-01
         -2   -1    0    0    0  501 -0.00000000000E+00  0.00000000000E+00  0.72588609429E+03  0.72588609429E+03  0.00000000000E+00 0.  1.
          2   -1    0    0  501    0  0.00000000000E+00 -0.00000000000E+00 -0.13645872567E+04  0.13645872567E+04  0.00000000000E+00 0. -1.
         23    2    1    2    0    0  0.49024138426E+03 -0.36857001890E+03 -0.11401275475E+04  0.12982556451E+04  0.96935142136E+02 0.  0.
         11    1    3    3    0    0  0.26764567037E+03 -0.24617345294E+03 -0.73574175644E+03  0.82070183744E+03  0.00000000000E+00 0. -1.
        -11    1    3    3    0    0  0.22259571388E+03 -0.12239656596E+03 -0.40438579109E+03  0.47755380769E+03  0.00000000000E+00 0.  1.
         22    1    1    2    0    0 -0.49024138426E+03  0.36857001890E+03  0.50142638517E+03  0.79221770582E+03  0.00000000000E+00 0.  1.
<mgrwt>
<rscale>  0 0.19905124E+04</rscale>
<asrwt>0</asrwt>
<pdfrwt beam="1">  1        2 0.20993650E+00 0.19905124E+04</pdfrwt>
<pdfrwt beam="2">  1       -2 0.11167478E+00 0.19905124E+04</pdfrwt>
<totfact> 0.89318785E+00</totfact>
</mgrwt>
</event>
<event>
 6    1  0.9562506E-007  0.6641120E+03  0.7818608E-02  0.9780653E-01
          2   -1    0    0  501    0  0.00000000000E+00  0.00000000000E+00  0.32581832114E+03  0.32581832114E+03  0.00000000000E+00 0. -1.
         -2   -1    0    0    0  501 -0.00000000000E+00 -0.00000000000E+00 -0.33841311897E+03  0.33841311897E+03  0.00000000000E+00 0.  1.
         23    2    1    2    0    0 -0.18108669494E+03  0.80302061878E+01  0.26440928338E+03  0.33319045126E+03  0.90811521164E+02 0.  0.
         13    1    3    3    0    0 -0.34330165422E+02  0.39046300583E+02  0.56000265067E+02  0.76414681408E+02  0.00000000000E+00 0.  1.
        -13    1    3    3    0    0 -0.14675652952E+03 -0.31016094395E+02  0.20840901831E+03  0.25677576985E+03  0.00000000000E+00 0. -1.
         22    1    1    2    0    0  0.18108669494E+03 -0.80302061878E+01 -0.27700408120E+03  0.33104098885E+03  0.00000000000E+00 0.  1.
<mgrwt>
<rscale>  0 0.66411202E+03</rscale>
<asrwt>0</asrwt>
<pdfrwt beam="1">  1        2 0.50125895E-01 0.66411202E+03</pdfrwt>
<pdfrwt beam="2">  1       -2 0.52063557E-01 0.66411202E+03</pdfrwt>
<totfact> 0.35204546E+02</totfact>
</mgrwt>
</event>
<event>
 6    1  0.9562506E-007  0.1313719E+04  0.7818608E-02  0.9018756E-01
         -1   -1    0    0    0  501 -0.00000000000E+00  0.00000000000E+00  0.12315413682E+03  0.12315413682E+03  0.00000000000E+00 0.  1.
          1   -1    0    0  501    0  0.00000000000E+00 -0.00000000000E+00 -0.35034493152E+04  0.35034493152E+04  0.00000000000E+00 0. -1.
         23    2    1    2    0    0  0.58907187076E+02 -0.64934768449E+03 -0.18227259217E+04  0.19380702242E+04  0.93080267962E+02 0.  0.
         11    1    3    3    0    0  0.25491947512E+01 -0.35120560358E+03 -0.10832880257E+04  0.11387997283E+04  0.00000000000E+00 0. -1.
        -11    1    3    3    0    0  0.56357992325E+02 -0.29814208091E+03 -0.73943789599E+03  0.79927049597E+03  0.00000000000E+00 0.  1.
         22    1    1    2    0    0 -0.58907187076E+02  0.64934768449E+03 -0.15575692567E+04  0.16885332278E+04  0.00000000000E+00 0.  1.
<mgrwt>
<rscale>  0 0.13137188E+04</rscale>
<asrwt>0</asrwt>
<pdfrwt beam="1">  1        1 0.53899209E+00 0.13137188E+04</pdfrwt>
<pdfrwt beam="2">  1       -1 0.18946794E-01 0.13137188E+04</pdfrwt>
<totfact> 0.55537183E+00</totfact>
</mgrwt>
</event>
<event>
 6    1  0.9562506E-007  0.2856459E+04  0.7818608E-02  0.8285951E-01
          1   -1    0    0  501    0  0.00000000000E+00  0.00000000000E+00  0.35684455406E+04  0.35684455406E+04  0.00000000000E+00 0. -1.
         -1   -1    0    0    0  501 -0.00000000000E+00 -0.00000000000E+00 -0.57163254755E+03  0.57163254755E+03  0.00000000000E+00 0.  1.
         23    2    1    2    0    0 -0.36604789928E+03 -0.10981296976E+04  0.29090040949E+03  0.11969772052E+04  0.90837680600E+02 0.  0.
         13    1    3    3    0    0 -0.30038837875E+03 -0.77310347132E+03  0.21446125988E+03  0.85668885101E+03  0.00000000000E+00 0.  1.
        -13    1    3    3    0    0 -0.65659520526E+02 -0.32502622629E+03  0.76439149606E+02  0.34028835420E+03  0.00000000000E+00 0. -1.
         22    1    1    2    0    0  0.36604789928E+03  0.10981296976E+04  0.27059125835E+04  0.29431008829E+04  0.00000000000E+00 0. -1.
<mgrwt>
<rscale>  0 0.28564591E+04</rscale>
<asrwt>0</asrwt>
<pdfrwt beam="1">  1        1 0.54899161E+00 0.28564591E+04</pdfrwt>
<pdfrwt beam="2">  1       -1 0.87943471E-01 0.28564591E+04</pdfrwt>
<totfact> 0.24135258E-01</totfact>
</mgrwt>
</event>
<event>
 6    1  0.9562506E-007  0.2075557E+04  0.7818608E-02  0.8572088E-01
          2   -1    0    0  501    0  0.00000000000E+00  0.00000000000E+00  0.20347665188E+04  0.20347665188E+04  0.00000000000E+00 0. -1.
         -2   -1    0    0    0  501 -0.00000000000E+00 -0.00000000000E+00 -0.52929134791E+03  0.52929134791E+03  0.00000000000E+00 0.  1.
         23    2    1    2    0    0  0.88731621761E+03 -0.26108224040E+03  0.13298888477E+04  0.16226097465E+04  0.93616429006E+02 0.  0.
         13    1    3    3    0    0  0.28861708133E+03 -0.98822505942E+02  0.36726868445E+03  0.47744318394E+03  0.00000000000E+00 0. -1.
        -13    1    3    3    0    0  0.59869913628E+03 -0.16225973446E+03  0.96262016324E+03  0.11451665625E+04  0.00000000000E+00 0.  1.
         22    1    1    2    0    0 -0.88731621761E+03  0.26108224040E+03  0.17558632322E+03  0.94144812028E+03  0.00000000000E+00 0.  1.
<mgrwt>
<rscale>  0 0.20755571E+04</rscale>
<asrwt>0</asrwt>
<pdfrwt beam="1">  1        2 0.31304100E+00 0.20755571E+04</pdfrwt>
<pdfrwt beam="2">  1       -2 0.81429439E-01 0.20755571E+04</pdfrwt>
<totfact> 0.78358740E+00</totfact>
</mgrwt>
</event>
<event>
 6    1  0.9562506E-007  0.3187429E+04  0.7818608E-02  0.8192145E-01
         -1   -1    0    0    0  501 -0.00000000000E+00  0.00000000000E+00  0.14171279594E+04  0.14171279594E+04  0.00000000000E+00 0.  1.
          1   -1    0    0  501    0  0.00000000000E+00 -0.00000000000E+00 -0.17923052454E+04  0.17923052454E+04  0.00000000000E+00 0. -1.
         23    2    1    2    0    0  0.65660075280E+01  0.75654143882E+03  0.12230735136E+04  0.14411561678E+04  0.92866674625E+02 0.  0.
         13    1    3    3    0    0  0.28861328721E+02  0.26814161860E+03  0.36905345351E+03  0.45709228332E+03  0.00000000000E+00 0.  1.
        -13    1    3    3    0    0 -0.22295321193E+02  0.48839982022E+03  0.85402006007E+03  0.98406388449E+03  0.00000000000E+00 0. -1.
         22    1    1    2    0    0 -0.65660075280E+01 -0.75654143882E+03 -0.15982507996E+04  0.17682770370E+04  0.00000000000E+00 0. -1.
<mgrwt>
<rscale>  0 0.31874290E+04</rscale>
<asrwt>0</asrwt>
<pdfrwt beam="1">  1        1 0.27573927E+00 0.31874290E+04</pdfrwt>
<pdfrwt beam="2">  1       -1 0.21801969E+00 0.31874290E+04</pdfrwt>
<totfact> 0.39190802E-01</totfact>
</mgrwt>
</event>
<event>
 6    1  0.9562506E-007  0.8800118E+03  0.7818608E-02  0.9450918E-01
          2   -1    0    0  501    0  0.00000000000E+00  0.00000000000E+00  0.19907593536E+04  0.19907593536E+04  0.00000000000E+00 0. -1.
         -2   -1    0    0    0  501 -0.00000000000E+00 -0.00000000000E+00 -0.97251931286E+02  0.97251931286E+02  0.00000000000E+00 0.  1.
         23    2    1    2    0    0  0.21638055057E+03 -0.36900881210E+03  0.11476447959E+04  0.12281862425E+04  0.91459403934E+02 0.  0.
         13    1    3    3    0    0  0.11989627829E+03 -0.13477248614E+03  0.40010566187E+03  0.43888868888E+03  0.00000000000E+00 0. -1.
        -13    1    3    3    0    0  0.96484272280E+02 -0.23423632596E+03  0.74753913403E+03  0.78929755359E+03  0.00000000000E+00 0.  1.
         22    1    1    2    0    0 -0.21638055057E+03  0.36900881210E+03  0.74586262639E+03  0.85982504239E+03  0.00000000000E+00 0. -1.
<mgrwt>
<rscale>  0 0.88001180E+03</rscale>
<asrwt>0</asrwt>
<pdfrwt beam="1">  1        2 0.30627064E+00 0.88001180E+03</pdfrwt>
<pdfrwt beam="2">  1       -2 0.14961837E-01 0.88001180E+03</pdfrwt>
<totfact> 0.24101912E+02</totfact>
</mgrwt>
</event>
<event>
 6    1  0.9562506E-007  0.6542911E+04  0.7818608E-02  0.7626505E-01
         -1   -1    0    0    0  501 -0.00000000000E+00  0.00000000000E+00  0.36124176025E+04  0.36124176025E+04  0.00000000000E+00 0.  1.
          1   -1    0    0  501    0  0.00000000000E+00 -0.00000000000E+00 -0.29626752550E+04  0.29626752550E+04  0.00000000000E+00 0. -1.
         23    2    1    2    0    0 -0.36077668485E+03  0.14362019210E+04 -0.26058052473E+04  0.29985825589E+04  0.91872746031E+02 0.  0.
         13    1    3    3    0    0 -0.31798701190E+03  0.11387295159E+04 -0.20361973488E+04  0.23545530985E+04  0.00000000000E+00 0.  1.
        -13    1    3    3    0    0 -0.42789672956E+02  0.29747240515E+03 -0.56960789846E+03  0.64402946044E+03  0.00000000000E+00 0. -1.
         22    1    1    2    0    0  0.36077668485E+03 -0.14362019210E+04  0.32555475948E+04  0.35765102986E+04  0.00000000000E+00 0.  1.
<mgrwt>
<rscale>  0 0.65429107E+04</rscale>
<asrwt>0</asrwt>
<pdfrwt beam="1">  1        1 0.45579619E+00 0.65429107E+04</pdfrwt>
<pdfrwt beam="2">  1       -1 0.55575655E+00 0.65429107E+04</pdfrwt>
<totfact> 0.29201243E-04</totfact>
</mgrwt>
</event>
<event>
 6    1  0.9562506E-007  0.3335259E+04  0.7818608E-02  0.8153981E-01
         -3   -1    0    0    0  501 -0.00000000000E+00  0.00000000000E+00  0.14780051964E+04  0.14780051964E+04  0.00000000000E+00 0.  1.
          3   -1    0    0  501    0  0.00000000000E+00 -0.00000000000E+00 -0.18815817409E+04  0.18815817409E+04  0.00000000000E+00 0. -1.
         23    2    1    2    0    0 -0.20666209630E+03  0.25708669937E+03 -0.18471938738E+04  0.18787649404E+04  0.93966487338E+02 0.  0.
         11    1    3    3    0    0 -0.54052272205E+02  0.14157667144E+02 -0.27742308470E+03  0.28299409110E+03  0.00000000000E+00 0.  1.
        -11    1    3    3    0    0 -0.15260982410E+03  0.24292903222E+03 -0.15697707891E+04  0.15957708493E+04  0.00000000000E+00 0. -1.
         22    1    1    2    0    0  0.20666209630E+03 -0.25708669937E+03  0.14436173293E+04  0.14808219969E+04  0.00000000000E+00 0.  1.
<mgrwt>
<rscale>  0 0.33352587E+04</rscale>
<asrwt>0</asrwt>
<pdfrwt beam="1">  1        3 0.28947411E+00 0.33352587E+04</pdfrwt>
<pdfrwt beam="2">  1       -3 0.22738542E+00 0.33352587E+04</pdfrwt>
<totfact> 0.94684949E-03</totfact>
</mgrwt>
</event>
<event>
 6    1  0.9562506E-007  0.3713450E+04  0.7818608E-02  0.8064988E-01
          1   -1    0    0  501    0  0.00000000000E+00  0.00000000000E+00  0.26083638314E+04  0.26083638314E+04  0.00000000000E+00 0. -1.
         -1   -1    0    0    0  501 -0.00000000000E+00 -0.00000000000E+00 -0.13216822140E+04  0.13216822140E+04  0.00000000000E+00 0.  1.
         23    2    1    2    0    0  0.73584708680E+03 -0.43925492686E+03  0.23856250985E+04  0.25364562203E+04  0.89371252068E+02 0.  0.
         11    1    3    3    0    0  0.71629019892E+03 -0.44011201482E+03  0.23062058314E+04  0.24546599707E+04  0.00000000000E+00 0.  1.
        -11    1    3    3    0    0  0.19556887883E+02  0.85708796052E+00  0.79419267081E+02  0.81796249591E+02  0.00000000000E+00 0. -1.
         22    1    1    2    0    0 -0.73584708680E+03  0.43925492686E+03 -0.10989434812E+04  0.13935898251E+04  0.00000000000E+00 0.  1.
<mgrwt>
<rscale>  0 0.37134502E+04</rscale>
<asrwt>0</asrwt>
<pdfrwt beam="1">  1        1 0.40128674E+00 0.37134502E+04</pdfrwt>
<pdfrwt beam="2">  1       -1 0.20333573E+00 0.37134502E+04</pdfrwt>
<totfact> 0.13021816E-01</totfact>
</mgrwt>
</event>
<event>
 6    1  0.9562506E-007  0.1456974E+04  0.7818608E-02  0.8913580E-01
          1   -1    0    0  501    0  0.00000000000E+00  0.00000000000E+00  0.75336017148E+03  0.75336017148E+03  0.00000000000E+00 0. -1.
         -1   -1    0    0    0  501 -0.00000000000E+00 -0.00000000000E+00 -0.70443464658E+03  0.70443464658E+03  0.00000000000E+00 0.  1.
         23    2    1    2    0    0 -0.12633484476E+01  0.71537354658E+03  0.14632158154E+03  0.73582051170E+03  0.90889564918E+02 0.  0.
         13    1    3    3    0    0  0.24402973404E+02  0.39171758093E+03  0.11841389009E+03  0.40995123819E+03  0.00000000000E+00 0. -1.
        -13    1    3    3    0    0 -0.25666321852E+02  0.32365596565E+03  0.27907691450E+02  0.32586927351E+03  0.00000000000E+00 0.  1.
         22    1    1    2    0    0  0.12633484476E+01 -0.71537354658E+03 -0.97396056639E+02  0.72197430636E+03  0.00000000000E+00 0. -1.
<mgrwt>
<rscale>  0 0.14569736E+04</rscale>
<asrwt>0</asrwt>
<pdfrwt beam="1">  1        1 0.11590156E+00 0.14569736E+04</pdfrwt>
<pdfrwt beam="2">  1       -1 0.10837456E+00 0.14569736E+04</pdfrwt>
<totfact> 0.18670085E+01</totfact>
</mgrwt>
</event>
<event>
 6    1  0.9562506E-007  0.3025142E+04  0.7818608E-02  0.8236588E-01
          1   -1    0    0  501    0  0.00000000000E+00  0.00000000000E+00  0.14475867775E+04  0.14475867775E+04  0.00000000000E+00 0. -1.
         -1   -1    0    0    0  501 -0.00000000000E+00 -0.00000000000E+00 -0.15804722171E+04  0.15804722171E+04  0.00000000000E+00 0.  1.
         23    2    1    2    0    0  0.10647945478E+04  0.53120705056E+03  0.86576395867E+03  0.14745890142E+04  0.94324806742E+02 0.  0.
         13    1    3    3    0    0  0.38018883017E+03  0.14667713377E+03  0.32420567209E+03  0.52073702189E+03  0.00000000000E+00 0. -1.
        -13    1    3    3    0    0  0.68460571760E+03  0.38452991679E+03  0.54155828659E+03  0.95385199232E+03  0.00000000000E+00 0.  1.
         22    1    1    2    0    0 -0.10647945478E+04 -0.53120705056E+03 -0.99864939822E+03  0.15534699804E+04  0.00000000000E+00 0.  1.
<mgrwt>
<rscale>  0 0.30251418E+04</rscale>
<asrwt>0</asrwt>
<pdfrwt beam="1">  1        1 0.22270566E+00 0.30251418E+04</pdfrwt>
<pdfrwt beam="2">  1       -1 0.24314957E+00 0.30251418E+04</pdfrwt>
<totfact> 0.46709190E-01</totfact>
</mgrwt>
</event>
<event>
 6    1  0.9562506E-007  0.2287118E+04  0.7818608E-02  0.8483018E-01
         -2   -1    0    0    0  501 -0.00000000000E+00  0.00000000000E+00  0.79357606632E+03  0.79357606632E+03  0.00000000000E+00 0.  1.
          2   -1    0    0  501    0  0.00000000000E+00 -0.00000000000E+00 -0.16478917071E+04  0.16478917071E+04  0.00000000000E+00 0. -1.
         23    2    1    2    0    0  0.85071145914E+02 -0.11258539778E+04 -0.60915534686E+03  0.12860943062E+04  0.90465731443E+02 0.  0.
         11    1    3    3    0    0  0.67343226557E+02 -0.34535672394E+03 -0.18053874505E+03  0.39547517672E+03  0.00000000000E+00 0.  1.
        -11    1    3    3    0    0  0.17727919357E+02 -0.78049725384E+03 -0.42861660181E+03  0.89061912944E+03  0.00000000000E+00 0. -1.
         22    1    1    2    0    0 -0.85071145914E+02  0.11258539778E+04 -0.24516029394E+03  0.11553734673E+04  0.00000000000E+00 0.  1.
<mgrwt>
<rscale>  0 0.22871182E+04</rscale>
<asrwt>0</asrwt>
<pdfrwt beam="1">  1        2 0.25352180E+00 0.22871182E+04</pdfrwt>
<pdfrwt beam="2">  1       -2 0.12208863E+00 0.22871182E+04</pdfrwt>
<totfact> 0.48409042E+00</totfact>
</mgrwt>
</event>
<event>
 6    1  0.9562506E-007  0.3001992E+04  0.7818608E-02  0.8243162E-01
         -1   -1    0    0    0  501 -0.00000000000E+00  0.00000000000E+00  0.35616978208E+04  0.35616978208E+04  0.00000000000E+00 0.  1.
          1   -1    0    0  501    0  0.00000000000E+00 -0.00000000000E+00 -0.63256037389E+03  0.63256037389E+03  0.00000000000E+00 0. -1.
         23    2    1    2    0    0  0.25335377687E+03  0.13281534891E+04  0.23720941844E+04  0.27319049463E+04  0.91071341195E+02 0.  0.
         13    1    3    3    0    0  0.14900477537E+03  0.64484934448E+03  0.10843904794E+04  0.12704077345E+04  0.00000000000E+00 0. -1.
        -13    1    3    3    0    0  0.10434900150E+03  0.68330414460E+03  0.12877037050E+04  0.14614972118E+04  0.00000000000E+00 0.  1.
         22    1    1    2    0    0 -0.25335377687E+03 -0.13281534891E+04  0.55704326255E+03  0.14623532484E+04  0.00000000000E+00 0. -1.
<mgrwt>
<rscale>  0 0.30019919E+04</rscale>
<asrwt>0</asrwt>
<pdfrwt beam="1">  1        1 0.97316983E-01 0.30019919E+04</pdfrwt>
<pdfrwt beam="2">  1       -1 0.54795350E+00 0.30019919E+04</pdfrwt>
<totfact> 0.20641404E-02</totfact>
</mgrwt>
</event>
<event>
 6    1  0.9562506E-007  0.1652228E+04  0.7818608E-02  0.8789089E-01
          2   -1    0    0  501    0  0.00000000000E+00  0.00000000000E+00  0.11925222168E+04  0.11925222168E+04  0.00000000000E+00 0. -1.
         -2   -1    0    0    0  501 -0.00000000000E+00 -0.00000000000E+00 -0.57228664886E+03  0.57228664886E+03  0.00000000000E+00 0.  1.
         23    2    1    2    0    0 -0.31791723530E+03 -0.17239598978E+03 -0.47925918058E+03  0.60736320913E+03  0.91700380825E+02 0.  0.
         13    1    3    3    0    0 -0.93029932151E+02 -0.25256935739E+02 -0.18660945919E+03  0.21003707134E+03  0.00000000000E+00 0.  1.
        -13    1    3    3    0    0 -0.22488730314E+03 -0.14713905404E+03 -0.29264972140E+03  0.39732613779E+03  0.00000000000E+00 0. -1.
         22    1    1    2    0    0  0.31791723530E+03  0.17239598978E+03  0.10994947485E+04  0.11574456565E+04  0.00000000000E+00 0. -1.
<mgrwt>
<rscale>  0 0.16522282E+04</rscale>
<asrwt>0</asrwt>
<pdfrwt beam="1">  1        2 0.18346496E+00 0.16522282E+04</pdfrwt>
<pdfrwt beam="2">  1       -2 0.88044100E-01 0.16522282E+04</pdfrwt>
<totfact> 0.20322311E+01</totfact>
</mgrwt>
</event>
<event>
 6    1  0.9562506E-007  0.1395930E+04  0.7818608E-02  0.8956770E-01
         -2   -1    0    0    0  501 -0.00000000000E+00  0.00000000000E+00  0.21433934456E+04  0.21433934456E+04  0.00000000000E+00 0.  1.
          2   -1    0    0  501    0  0.00000000000E+00 -0.00000000000E+00 -0.22728223693E+03  0.22728223693E+03  0.00000000000E+00 0. -1.
         23    2    1    2    0    0 -0.69281588693E+03  0.28660983782E+02  0.88371394120E+03  0.11270280544E+04  0.91796515703E+02 0.  0.
         11    1    3    3    0    0 -0.12383681723E+03  0.22054920488E+02  0.11351287979E+03  0.16943184676E+03  0.00000000000E+00 0. -1.
        -11    1    3    3    0    0 -0.56897906970E+03  0.66060632940E+01  0.77020106141E+03  0.95759620760E+03  0.00000000000E+00 0.  1.
         22    1    1    2    0    0  0.69281588693E+03 -0.28660983782E+02  0.10323972675E+04  0.12436476282E+04  0.00000000000E+00 0.  1.
<mgrwt>
<rscale>  0 0.13959302E+04</rscale>
<asrwt>0</asrwt>
<pdfrwt beam="1">  1        2 0.34966500E-01 0.13959302E+04</pdfrwt>
<pdfrwt beam="2">  1       -2 0.32975282E+00 0.13959302E+04</pdfrwt>
<totfact> 0.30606517E+00</totfact>
</mgrwt>
</event>
<event>
 6    1  0.9562506E-007  0.3796245E+04  0.7818608E-02  0.8046961E-01
          1   -1    0    0  501    0  0.00000000000E+00  0.00000000000E+00  0.39726950965E+04  0.39726950965E+04  0.00000000000E+00 0. -1.
         -1   -1    0    0    0  501 -0.00000000000E+00 -0.00000000000E+00 -0.90690823851E+03  0.90690823851E+03  0.00000000000E+00 0.  1.
         23    2    1    2    0    0  0.25970521219E+03  0.13289239576E+04  0.32415716037E+04  0.35141781414E+04  0.90420492350E+02 0.  0.
         13    1    3    3    0    0  0.10436729607E+03  0.69465292155E+03  0.17653442618E+04  0.18999672567E+04  0.00000000000E+00 0. -1.
        -13    1    3    3    0    0  0.15533791612E+03  0.63427103606E+03  0.14762273420E+04  0.16142108848E+04  0.00000000000E+00 0.  1.
         22    1    1    2    0    0 -0.25970521219E+03 -0.13289239576E+04 -0.17578474574E+03  0.13654251936E+04  0.00000000000E+00 0.  1.
<mgrwt>
<rscale>  0 0.37962455E+04</rscale>
<asrwt>0</asrwt>
<pdfrwt beam="1">  1        1 0.61118385E+00 0.37962455E+04</pdfrwt>
<pdfrwt beam="2">  1       -1 0.13952435E+00 0.37962455E+04</pdfrwt>
<totfact> 0.34028721E-02</totfact>
</mgrwt>
</event>
<event>
 6    1  0.9562506E-007  0.3818019E+03  0.7818608E-02  0.1050270E+00
          2   -1    0    0  501    0  0.00000000000E+00  0.00000000000E+00  0.70013971314E+03  0.70013971314E+03  0.00000000000E+00 0. -1.
         -2   -1    0    0    0  501 -0.00000000000E+00 -0.00000000000E+00 -0.52051277458E+02  0.52051277458E+02  0.00000000000E+00 0.  1.
         23    2    1    2    0    0  0.17457684742E+03  0.42544109794E+02  0.33800039441E+03  0.39380339278E+03  0.92464958789E+02 0.  0.
         13    1    3    3    0    0  0.54755400185E+02 -0.29493994826E+02  0.99056961162E+02  0.11696294770E+03  0.00000000000E+00 0.  1.
        -13    1    3    3    0    0  0.11982144724E+03  0.72038104620E+02  0.23894343325E+03  0.27684044508E+03  0.00000000000E+00 0. -1.
         22    1    1    2    0    0 -0.17457684742E+03 -0.42544109794E+02  0.31008804127E+03  0.35838759782E+03  0.00000000000E+00 0. -1.
<mgrwt>
<rscale>  0 0.38180187E+03</rscale>
<asrwt>0</asrwt>
<pdfrwt beam="1">  1        2 0.10771380E+00 0.38180187E+03</pdfrwt>
<pdfrwt beam="2">  1       -2 0.80078893E-02 0.38180187E+03</pdfrwt>
<totfact> 0.39792820E+03</totfact>
</mgrwt>
</event>
<event>
 6    1  0.9562506E-007  0.3350427E+03  0.7818608E-02  0.1068927E+00
         -1   -1    0    0    0  501 -0.00000000000E+00  0.00000000000E+00  0.59341510734E+02  0.59341510734E+02  0.00000000000E+00 0.  1.
          1   -1    0    0  501    0  0.00000000000E+00 -0.00000000000E+00 -0.47291363599E+03  0.47291363599E+03  0.00000000000E+00 0. -1.
         23    2    1    2    0    0  0.40446179418E+02 -0.14436531396E+03 -0.13361865463E+03  0.21468439395E+03  0.75882849396E+02 0.  0.
         13    1    3    3    0    0  0.43717278788E+02 -0.11681525855E+03 -0.64955187754E+02  0.14062781201E+03  0.00000000000E+00 0.  1.
        -13    1    3    3    0    0 -0.32710993703E+01 -0.27550055419E+02 -0.68663466878E+02  0.74056581938E+02  0.00000000000E+00 0. -1.
         22    1    1    2    0    0 -0.40446179418E+02  0.14436531396E+03 -0.27995347062E+03  0.31757075278E+03  0.00000000000E+00 0.  1.
<mgrwt>
<rscale>  0 0.33504274E+03</rscale>
<asrwt>0</asrwt>
<pdfrwt beam="1">  1        1 0.72755946E-01 0.33504274E+03</pdfrwt>
<pdfrwt beam="2">  1       -1 0.91294630E-02 0.33504274E+03</pdfrwt>
<totfact> 0.34225643E+03</totfact>
</mgrwt>
</event>
<event>
 6    1  0.9562506E-007  0.2150181E+04  0.7818608E-02  0.8539455E-01
         -2   -1    0    0    0  501 -0.00000000000E+00  0.00000000000E+00  0.61258501056E+03  0.61258501056E+03  0.00000000000E+00 0.  1.
          2   -1    0    0  501    0  0.00000000000E+00 -0.00000000000E+00 -0.18867904262E+04  0.18867904262E+04  0.00000000000E+00 0. -1.
         23    2    1    2    0    0 -0.20658193402E+03 -0.34649995568E+03  0.51755931260E+03  0.66275921226E+03  0.92972128228E+02 0.  0.
         11    1    3    3    0    0 -0.56499652238E+02 -0.11294781150E+03  0.98853524800E+02  0.16037904536E+03  0.00000000000E+00 0. -1.
        -11    1    3    3    0    0 -0.15008228178E+03 -0.23355214418E+03  0.41870578780E+03  0.50238016690E+03  0.00000000000E+00 0.  1.
         22    1    1    2    0    0  0.20658193402E+03  0.34649995568E+03 -0.17917647282E+04  0.18366162245E+04  0.00000000000E+00 0. -1.
<mgrwt>
<rscale>  0 0.21501810E+04</rscale>
<asrwt>0</asrwt>
<pdfrwt beam="1">  1        2 0.29027545E+00 0.21501810E+04</pdfrwt>
<pdfrwt beam="2">  1       -2 0.94243848E-01 0.21501810E+04</pdfrwt>
<totfact> 0.67301131E+00</totfact>
</mgrwt>
</event>
<event>
 6    1  0.9562506E-007  0.2377080E+04  0.7818608E-02  0.8448135E-01
         -2   -1    0    0    0  501 -0.00000000000E+00  0.00000000000E+00  0.66636129941E+03  0.66636129941E+03  0.00000000000E+00 0.  1.
          2   -1    0    0  501    0  0.00000000000E+00 -0.00000000000E+00 -0.21199121164E+04  0.21199121164E+04  0.00000000000E+00 0. -1.
         23    2    1    2    0    0 -0.27499498554E+02  0.51676873625E+03  0.52401675600E+03  0.74211597205E+03  0.91303922194E+02 0.  0.
         11    1    3    3    0    0 -0.19016681960E+02  0.39925679623E+03  0.45474565228E+03  0.60544300458E+03  0.00000000000E+00 0. -1.
        -11    1    3    3    0    0 -0.84828165939E+01  0.11751194002E+03  0.69271103721E+02  0.13667296746E+03  0.00000000000E+00 0.  1.
         22    1    1    2    0    0  0.27499498554E+02 -0.51676873625E+03 -0.19775675730E+04  0.20441574438E+04  0.00000000000E+00 0. -1.
<mgrwt>
<rscale>  0 0.23770801E+04</rscale>
<asrwt>0</asrwt>
<pdfrwt beam="1">  1        2 0.32614033E+00 0.23770801E+04</pdfrwt>
<pdfrwt beam="2">  1       -2 0.10251712E+00 0.23770801E+04</pdfrwt>
<totfact> 0.40162448E+00</totfact>
</mgrwt>
</event>
<event>
 6    1  0.9562506E-007  0.1964399E+04  0.7818608E-02  0.8623448E-01
          1   -1    0    0  501    0  0.00000000000E+00  0.00000000000E+00  0.14422174925E+04  0.14422174925E+04  0.00000000000E+00 0. -1.
         -1   -1    0    0    0  501 -0.00000000000E+00 -0.00000000000E+00 -0.66891165454E+03  0.66891165454E+03  0.00000000000E+00 0.  1.
         23    2    1    2    0    0 -0.62137454549E+02  0.26533002799E+03  0.13992680839E+04  0.14284214347E+04  0.90418679774E+02 0.  0.
         13    1    3    3    0    0 -0.14261997313E+02  0.21877126863E+03  0.10167625093E+04  0.10401299307E+04  0.00000000000E+00 0.  1.
        -13    1    3    3    0    0 -0.47875457236E+02  0.46558759358E+02  0.38250557462E+03  0.38829150402E+03  0.00000000000E+00 0. -1.
         22    1    1    2    0    0  0.62137454549E+02 -0.26533002799E+03 -0.62596224596E+03  0.68270771226E+03  0.00000000000E+00 0.  1.
<mgrwt>
<rscale>  0 0.19643992E+04</rscale>
<asrwt>0</asrwt>
<pdfrwt beam="1">  1        1 0.22187961E+00 0.19643992E+04</pdfrwt>
<pdfrwt beam="2">  1       -1 0.10290949E+00 0.19643992E+04</pdfrwt>
<totfact> 0.59573704E+00</totfact>
</mgrwt>
</event>
<event>
 6    1  0.9562506E-007  0.1920289E+04  0.7818608E-02  0.8644823E-01
         -2   -1    0    0    0  501 -0.00000000000E+00  0.00000000000E+00  0.43276461618E+03  0.43276461618E+03  0.00000000000E+00 0.  1.
          2   -1    0    0  501    0  0.00000000000E+00 -0.00000000000E+00 -0.21302050263E+04  0.21302050263E+04  0.00000000000E+00 0. -1.
         23    2    1    2    0    0 -0.58898784510E+03 -0.30907288734E+03  0.68864896470E+02  0.67557271352E+03  0.96038460647E+02 0.  0.
         11    1    3    3    0    0 -0.21129241766E+02  0.37349102231E+00 -0.11231494645E+02  0.23931795276E+02  0.00000000000E+00 0.  1.
        -11    1    3    3    0    0 -0.56785860333E+03 -0.30944637836E+03  0.80096391115E+02  0.65164091824E+03  0.00000000000E+00 0. -1.
         22    1    1    2    0    0  0.58898784510E+03  0.30907288734E+03 -0.17663053065E+04  0.18873969289E+04  0.00000000000E+00 0. -1.
<mgrwt>
<rscale>  0 0.19202889E+04</rscale>
<asrwt>0</asrwt>
<pdfrwt beam="1">  1        2 0.32772385E+00 0.19202889E+04</pdfrwt>
<pdfrwt beam="2">  1       -2 0.66579172E-01 0.19202889E+04</pdfrwt>
<totfact> 0.10954593E+01</totfact>
</mgrwt>
</event>
<event>
 6    1  0.9562506E-007  0.2626088E+04  0.7818608E-02  0.8359393E-01
          1   -1    0    0  501    0  0.00000000000E+00  0.00000000000E+00  0.14388628147E+04  0.14388628147E+04  0.00000000000E+00 0. -1.
         -1   -1    0    0    0  501 -0.00000000000E+00 -0.00000000000E+00 -0.11982268342E+04  0.11982268342E+04  0.00000000000E+00 0.  1.
         23    2    1    2    0    0 -0.29998793620E+03 -0.19789219511E+03 -0.11460661046E+04  0.12045755109E+04  0.91545412266E+02 0.  0.
         11    1    3    3    0    0 -0.14978998806E+02 -0.31408417480E+02 -0.18937545247E+03  0.19254589347E+03  0.00000000000E+00 0. -1.
        -11    1    3    3    0    0 -0.28500893739E+03 -0.16648377763E+03 -0.95669065213E+03  0.10120296174E+04  0.00000000000E+00 0.  1.
         22    1    1    2    0    0  0.29998793620E+03  0.19789219511E+03  0.13867020851E+04  0.14325141380E+04  0.00000000000E+00 0. -1.
<mgrwt>
<rscale>  0 0.26260876E+04</rscale>
<asrwt>0</asrwt>
<pdfrwt beam="1">  1        1 0.22136351E+00 0.26260876E+04</pdfrwt>
<pdfrwt beam="2">  1       -1 0.18434259E+00 0.26260876E+04</pdfrwt>
<totfact> 0.12285584E+00</totfact>
</mgrwt>
</event>
<event>
 6    1  0.9562506E-007  0.1631461E+04  0.7818608E-02  0.8801450E-01
         -1   -1    0    0    0  501 -0.00000000000E+00  0.00000000000E+00  0.36454528516E+03  0.36454528516E+03  0.00000000000E+00 0.  1.
          1   -1    0    0  501    0  0.00000000000E+00 -0.00000000000E+00 -0.18253327426E+04  0.18253327426E+04  0.00000000000E+00 0. -1.
         23    2    1    2    0    0  0.17318017461E+03 -0.68155448359E+03 -0.12772559025E+04  0.14631100327E+04  0.12165706109E+03 0.  0.
         13    1    3    3    0    0  0.11661850700E+03 -0.30166938607E+03 -0.48926356783E+03  0.58650075318E+03  0.00000000000E+00 0.  1.
        -13    1    3    3    0    0  0.56561667602E+02 -0.37988509752E+03 -0.78799233464E+03  0.87660927955E+03  0.00000000000E+00 0. -1.
         22    1    1    2    0    0 -0.17318017461E+03  0.68155448359E+03 -0.18353155500E+03  0.72676799507E+03  0.00000000000E+00 0.  1.
<mgrwt>
<rscale>  0 0.16314612E+04</rscale>
<asrwt>0</asrwt>
<pdfrwt beam="1">  1        1 0.28082043E+00 0.16314612E+04</pdfrwt>
<pdfrwt beam="2">  1       -1 0.56083889E-01 0.16314612E+04</pdfrwt>
<totfact> 0.12055021E+01</totfact>
</mgrwt>
</event>
<event>
 6    1  0.9562506E-007  0.5512710E+03  0.7818608E-02  0.1001200E+00
          1   -1    0    0  501    0  0.00000000000E+00  0.00000000000E+00  0.41418764897E+03  0.41418764897E+03  0.00000000000E+00 0. -1.
         -1   -1    0    0    0  501 -0.00000000000E+00 -0.00000000000E+00 -0.18343118656E+03  0.18343118656E+03  0.00000000000E+00 0.  1.
         23    2    1    2    0    0  0.13073383259E+03  0.14033321299E+03 -0.83605934869E+02  0.22936829246E+03  0.93995295568E+02 0.  0.
         13    1    3    3    0    0  0.53141588781E+02  0.37143599406E+02  0.15435858809E+02  0.66647889481E+02  0.00000000000E+00 0. -1.
        -13    1    3    3    0    0  0.77592243809E+02  0.10318961359E+03 -0.99041793678E+02  0.16272040298E+03  0.00000000000E+00 0.  1.
         22    1    1    2    0    0 -0.13073383259E+03 -0.14033321299E+03  0.31436239727E+03  0.36825054307E+03  0.00000000000E+00 0. -1.
<mgrwt>
<rscale>  0 0.55127101E+03</rscale>
<asrwt>0</asrwt>
<pdfrwt beam="1">  1        1 0.63721176E-01 0.55127101E+03</pdfrwt>
<pdfrwt beam="2">  1       -1 0.28220183E-01 0.55127101E+03</pdfrwt>
<totfact> 0.65567728E+02</totfact>
</mgrwt>
</event>
<event>
 6    1  0.9562506E-007  0.4182748E+04  0.7818608E-02  0.7968662E-01
         -1   -1    0    0    0  501 -0.00000000000E+00  0.00000000000E+00  0.24008457700E+04  0.24008457700E+04  0.00000000000E+00 0.  1.
          1   -1    0    0  501    0  0.00000000000E+00 -0.00000000000E+00 -0.18217936983E+04  0.18217936983E+04  0.00000000000E+00 0. -1.
         23    2    1    2    0    0  0.44541348576E+03  0.84752117460E+03 -0.15862592617E+04  0.18550967579E+04  0.92088114770E+02 0.  0.
         11    1    3    3    0    0  0.25151018527E+03  0.56916258406E+03 -0.10507060447E+04  0.12211415204E+04  0.00000000000E+00 0.  1.
        -11    1    3    3    0    0  0.19390330049E+03  0.27835859054E+03 -0.53555321701E+03  0.63395523747E+03  0.00000000000E+00 0. -1.
         22    1    1    2    0    0 -0.44541348576E+03 -0.84752117460E+03  0.21653113334E+04  0.23675427104E+04  0.00000000000E+00 0.  1.
<mgrwt>
<rscale>  0 0.41827482E+04</rscale>
<asrwt>0</asrwt>
<pdfrwt beam="1">  1        1 0.28027595E+00 0.41827482E+04</pdfrwt>
<pdfrwt beam="2">  1       -1 0.36936089E+00 0.41827482E+04</pdfrwt>
<totfact> 0.35019812E-02</totfact>
</mgrwt>
</event>
<event>
 6    1  0.9562506E-007  0.2819635E+04  0.7818608E-02  0.8297198E-01
          2   -1    0    0  501    0  0.00000000000E+00  0.00000000000E+00  0.23989903870E+04  0.23989903870E+04  0.00000000000E+00 0. -1.
         -2   -1    0    0    0  501 -0.00000000000E+00 -0.00000000000E+00 -0.82850889819E+03  0.82850889819E+03  0.00000000000E+00 0.  1.
         23    2    1    2    0    0  0.61428600248E+02 -0.13734056356E+04  0.11358288631E+04  0.17856465126E+04  0.91704681677E+02 0.  0.
         11    1    3    3    0    0  0.66264462133E+02 -0.62839438791E+03  0.48864872780E+03  0.79877910894E+03  0.00000000000E+00 0. -1.
        -11    1    3    3    0    0 -0.48358618853E+01 -0.74501124770E+03  0.64718013533E+03  0.98686740362E+03  0.00000000000E+00 0.  1.
         22    1    1    2    0    0 -0.61428600248E+02  0.13734056356E+04  0.43465262566E+03  0.14418527726E+04  0.00000000000E+00 0.  1.
<mgrwt>
<rscale>  0 0.28196346E+04</rscale>
<asrwt>0</asrwt>
<pdfrwt beam="1">  1        2 0.36907544E+00 0.28196346E+04</pdfrwt>
<pdfrwt beam="2">  1       -2 0.12746291E+00 0.28196346E+04</pdfrwt>
<totfact> 0.15784600E+00</totfact>
</mgrwt>
</event>
<event>
 6    1  0.9562506E-007  0.2547220E+04  0.7818608E-02  0.8386354E-01
          1   -1    0    0  501    0  0.00000000000E+00  0.00000000000E+00  0.24759438230E+04  0.24759438230E+04  0.00000000000E+00 0. -1.
         -1   -1    0    0    0  501 -0.00000000000E+00 -0.00000000000E+00 -0.65513682631E+03  0.65513682631E+03  0.00000000000E+00 0.  1.
         23    2    1    2    0    0  0.12180171740E+04 -0.25697390227E+03  0.12325919711E+04  0.17542733501E+04  0.92685473552E+02 0.  0.
         11    1    3    3    0    0  0.66693799922E+03 -0.14291241602E+03  0.73980237204E+03  0.10062493742E+04  0.00000000000E+00 0. -1.
        -11    1    3    3    0    0  0.55107917482E+03 -0.11406148625E+03  0.49278959907E+03  0.74802397590E+03  0.00000000000E+00 0.  1.
         22    1    1    2    0    0 -0.12180171740E+04  0.25697390227E+03  0.58821502553E+03  0.13768072991E+04  0.00000000000E+00 0.  1.
<mgrwt>
<rscale>  0 0.25472196E+04</rscale>
<asrwt>0</asrwt>
<pdfrwt beam="1">  1        1 0.38091443E+00 0.25472196E+04</pdfrwt>
<pdfrwt beam="2">  1       -1 0.10079028E+00 0.25472196E+04</pdfrwt>
<totfact> 0.11655209E+00</totfact>
</mgrwt>
</event>
<event>
 6    1  0.9562506E-007  0.1071642E+04  0.7818608E-02  0.9233281E-01
          2   -1    0    0  501    0  0.00000000000E+00  0.00000000000E+00  0.12234720495E+03  0.12234720495E+03  0.00000000000E+00 0. -1.
         -2   -1    0    0    0  501 -0.00000000000E+00 -0.00000000000E+00 -0.23466325340E+04  0.23466325340E+04  0.00000000000E+00 0.  1.
         23    2    1    2    0    0  0.29533431586E+03 -0.23923778945E+02 -0.21380400873E+04  0.21603813802E+04  0.90761156541E+02 0.  0.
         13    1    3    3    0    0  0.19522443519E+03  0.19284356946E+02 -0.11856076690E+04  0.12017279273E+04  0.00000000000E+00 0. -1.
        -13    1    3    3    0    0  0.10010988067E+03 -0.43208135891E+02 -0.95243241831E+03  0.95865345285E+03  0.00000000000E+00 0.  1.
         22    1    1    2    0    0 -0.29533431586E+03  0.23923778945E+02 -0.86245241765E+02  0.30859835880E+03  0.00000000000E+00 0. -1.
<mgrwt>
<rscale>  0 0.10716416E+04</rscale>
<asrwt>0</asrwt>
<pdfrwt beam="1">  1        2 0.18822649E-01 0.10716416E+04</pdfrwt>
<pdfrwt beam="2">  1       -2 0.36102034E+00 0.10716416E+04</pdfrwt>
<totfact> 0.41154279E+00</totfact>
</mgrwt>
</event>
<event>
 6    1  0.9562506E-007  0.2623608E+04  0.7818608E-02  0.8360226E-01
          2   -1    0    0  501    0  0.00000000000E+00  0.00000000000E+00  0.19840521779E+04  0.19840521779E+04  0.00000000000E+00 0. -1.
         -2   -1    0    0    0  501 -0.00000000000E+00 -0.00000000000E+00 -0.86733109738E+03  0.86733109738E+03  0.00000000000E+00 0.  1.
         23    2    1    2    0    0  0.12289237787E+04 -0.26048427131E+03  0.96334070593E+03  0.15858275678E+04  0.93370497158E+02 0.  0.
         11    1    3    3    0    0  0.33290091898E+03 -0.28625715436E+02  0.25092417812E+03  0.41785810583E+03  0.00000000000E+00 0. -1.
        -11    1    3    3    0    0  0.89602285967E+03 -0.23185855587E+03  0.71241652781E+03  0.11679694620E+04  0.00000000000E+00 0.  1.
         22    1    1    2    0    0 -0.12289237787E+04  0.26048427131E+03  0.15338037456E+03  0.12655557074E+04  0.00000000000E+00 0.  1.
<mgrwt>
<rscale>  0 0.26236083E+04</rscale>
<asrwt>0</asrwt>
<pdfrwt beam="1">  1        2 0.30523879E+00 0.26236083E+04</pdfrwt>
<pdfrwt beam="2">  1       -2 0.13343555E+00 0.26236083E+04</pdfrwt>
<totfact> 0.24469383E+00</totfact>
</mgrwt>
</event>
<event>
 6    1  0.9562506E-007  0.1600178E+04  0.7818608E-02  0.8820439E-01
          2   -1    0    0  501    0  0.00000000000E+00  0.00000000000E+00  0.22803919556E+04  0.22803919556E+04  0.00000000000E+00 0. -1.
         -2   -1    0    0    0  501 -0.00000000000E+00 -0.00000000000E+00 -0.28071579959E+03  0.28071579959E+03  0.00000000000E+00 0.  1.
         23    2    1    2    0    0 -0.30206796131E+03  0.46587294843E+03  0.19193856032E+04  0.20001004199E+04  0.89877354811E+02 0.  0.
         11    1    3    3    0    0 -0.23416203724E+03  0.37575885050E+03  0.13894710085E+04  0.14583059545E+04  0.00000000000E+00 0. -1.
        -11    1    3    3    0    0 -0.67905924075E+02  0.90114097924E+02  0.52991459469E+03  0.54179446549E+03  0.00000000000E+00 0.  1.
         22    1    1    2    0    0  0.30206796131E+03 -0.46587294843E+03  0.80290552852E+02  0.56100733525E+03  0.00000000000E+00 0.  1.
<mgrwt>
<rscale>  0 0.16001776E+04</rscale>
<asrwt>0</asrwt>
<pdfrwt beam="1">  1        2 0.35082952E+00 0.16001776E+04</pdfrwt>
<pdfrwt beam="2">  1       -2 0.43187048E-01 0.16001776E+04</pdfrwt>
<totfact> 0.22698116E+01</totfact>
</mgrwt>
</event>
<event>
 6    1  0.9840313E-007  0.2543842E+04  0.7818608E-02  0.8387531E-01
          2   -1    0    0  501    0  0.00000000000E+00  0.00000000000E+00  0.23444838747E+04  0.23444838747E+04  0.00000000000E+00 0. -1.
         -2   -1    0    0    0  501 -0.00000000000E+00 -0.00000000000E+00 -0.69003818778E+03  0.69003818778E+03  0.00000000000E+00 0.  1.
         23    2    1    2    0    0 -0.75306854400E+03  0.56827273304E+02  0.20466077573E+04  0.21835622159E+04  0.94863415137E+02 0.  0.
         11    1    3    3    0    0 -0.85260861493E+02  0.27048171030E+02  0.31330774224E+03  0.32582627182E+03  0.00000000000E+00 0. -1.
        -11    1    3    3    0    0 -0.66780768250E+03  0.29779102275E+02  0.17333000151E+04  0.18577359441E+04  0.00000000000E+00 0.  1.
         22    1    1    2    0    0  0.75306854400E+03 -0.56827273304E+02 -0.39216207042E+03  0.85095984654E+03  0.00000000000E+00 0.  1.
<mgrwt>
<rscale>  0 0.25438423E+04</rscale>
<asrwt>0</asrwt>
<pdfrwt beam="1">  1        2 0.36068982E+00 0.25438423E+04</pdfrwt>
<pdfrwt beam="2">  1       -2 0.10615972E+00 0.25438423E+04</pdfrwt>
<totfact> 0.27205791E+00</totfact>
</mgrwt>
</event>
<event>
 6    1  0.9562506E-007  0.6199977E+04  0.7818608E-02  0.7666090E-01
         -2   -1    0    0    0  501 -0.00000000000E+00  0.00000000000E+00  0.19720259787E+04  0.19720259787E+04  0.00000000000E+00 0.  1.
          2   -1    0    0  501    0  0.00000000000E+00 -0.00000000000E+00 -0.48731245638E+04  0.48731245638E+04  0.00000000000E+00 0. -1.
         23    2    1    2    0    0 -0.26310024889E+04  0.16277280907E+04 -0.16551171097E+04  0.35098630480E+04  0.89739260877E+02 0.  0.
         13    1    3    3    0    0 -0.24327466649E+04  0.15174572471E+04 -0.15095847080E+04  0.32403362206E+04  0.00000000000E+00 0.  1.
        -13    1    3    3    0    0 -0.19825582404E+03  0.11027084360E+03 -0.14553240171E+03  0.26952682735E+03  0.00000000000E+00 0. -1.
         22    1    1    2    0    0  0.26310024889E+04 -0.16277280907E+04 -0.12459814754E+04  0.33352874945E+04  0.00000000000E+00 0.  1.
<mgrwt>
<rscale>  0 0.61999769E+04</rscale>
<asrwt>0</asrwt>
<pdfrwt beam="1">  1        2 0.74971147E+00 0.61999769E+04</pdfrwt>
<pdfrwt beam="2">  1       -2 0.30338861E+00 0.61999769E+04</pdfrwt>
<totfact> 0.96572005E-04</totfact>
</mgrwt>
</event>
<event>
 6    1  0.9562506E-007  0.4883224E+04  0.7818608E-02  0.7846778E-01
          1   -1    0    0  501    0  0.00000000000E+00  0.00000000000E+00  0.27411662191E+04  0.27411662191E+04  0.00000000000E+00 0. -1.
         -1   -1    0    0    0  501 -0.00000000000E+00 -0.00000000000E+00 -0.21747934345E+04  0.21747934345E+04  0.00000000000E+00 0.  1.
         23    2    1    2    0    0  0.13592854148E+04 -0.70662229549E+03 -0.16295913803E+04  0.22384177733E+04  0.89298116116E+02 0.  0.
         13    1    3    3    0    0  0.60957002823E+03 -0.33099556694E+03 -0.80018381593E+03  0.10589748930E+04  0.00000000000E+00 0. -1.
        -13    1    3    3    0    0  0.74971538653E+03 -0.37562672855E+03 -0.82940756441E+03  0.11794428803E+04  0.00000000000E+00 0.  1.
         22    1    1    2    0    0 -0.13592854148E+04  0.70662229549E+03  0.21959641649E+04  0.26775418803E+04  0.00000000000E+00 0. -1.
<mgrwt>
<rscale>  0 0.48832245E+04</rscale>
<asrwt>0</asrwt>
<pdfrwt beam="1">  1        1 0.42171788E+00 0.48832245E+04</pdfrwt>
<pdfrwt beam="2">  1       -1 0.33458361E+00 0.48832245E+04</pdfrwt>
<totfact> 0.13135384E-02</totfact>
</mgrwt>
</event>
<event>
 6    1  0.9562506E-007  0.3715291E+04  0.7818608E-02  0.8064582E-01
          1   -1    0    0  501    0  0.00000000000E+00  0.00000000000E+00  0.32906570618E+04  0.32906570618E+04  0.00000000000E+00 0. -1.
         -1   -1    0    0    0  501 -0.00000000000E+00 -0.00000000000E+00 -0.10486799956E+04  0.10486799956E+04  0.00000000000E+00 0.  1.
         23    2    1    2    0    0 -0.70772944189E+03 -0.78694578919E+03 -0.65980368557E+03  0.12505676957E+04  0.91727967666E+02 0.  0.
         13    1    3    3    0    0 -0.22499204989E+03 -0.18929572596E+03 -0.17688205786E+03  0.34313489588E+03  0.00000000000E+00 0.  1.
        -13    1    3    3    0    0 -0.48273739200E+03 -0.59765006323E+03 -0.48292162771E+03  0.90743279984E+03  0.00000000000E+00 0. -1.
         22    1    1    2    0    0  0.70772944189E+03  0.78694578919E+03  0.29017807518E+04  0.30887693616E+04  0.00000000000E+00 0. -1.
<mgrwt>
<rscale>  0 0.37152907E+04</rscale>
<asrwt>0</asrwt>
<pdfrwt beam="1">  1        1 0.50625493E+00 0.37152907E+04</pdfrwt>
<pdfrwt beam="2">  1       -1 0.16133539E+00 0.37152907E+04</pdfrwt>
<totfact> 0.82959150E-02</totfact>
</mgrwt>
</event>
<event>
 6    1  0.9562506E-007  0.1416832E+04  0.7818608E-02  0.8941724E-01
         -2   -1    0    0    0  501 -0.00000000000E+00  0.00000000000E+00  0.26859838292E+03  0.26859838292E+03  0.00000000000E+00 0.  1.
          2   -1    0    0  501    0  0.00000000000E+00 -0.00000000000E+00 -0.18684157091E+04  0.18684157091E+04  0.00000000000E+00 0. -1.
         23    2    1    2    0    0 -0.21719207054E+03 -0.56812725807E+03 -0.26461281809E+03  0.66980175043E+03  0.93131436759E+02 0.  0.
         11    1    3    3    0    0 -0.11738542569E+03 -0.32660915934E+03 -0.20014930506E+03  0.40064026938E+03  0.00000000000E+00 0.  1.
        -11    1    3    3    0    0 -0.99806644848E+02 -0.24151809873E+03 -0.64463513026E+02  0.26916148105E+03  0.00000000000E+00 0. -1.
         22    1    1    2    0    0  0.21719207054E+03  0.56812725807E+03 -0.13352045080E+04  0.14672123415E+04  0.00000000000E+00 0. -1.
<mgrwt>
<rscale>  0 0.14168323E+04</rscale>
<asrwt>0</asrwt>
<pdfrwt beam="1">  1        2 0.28744858E+00 0.14168323E+04</pdfrwt>
<pdfrwt beam="2">  1       -2 0.41322827E-01 0.14168323E+04</pdfrwt>
<totfact> 0.42646943E+01</totfact>
</mgrwt>
</event>
<event>
 6    1  0.1179966E-006  0.2818296E+04  0.7818608E-02  0.8297610E-01
          1   -1    0    0  501    0  0.00000000000E+00  0.00000000000E+00  0.22182586159E+04  0.22182586159E+04  0.00000000000E+00 0. -1.
         -1   -1    0    0    0  501 -0.00000000000E+00 -0.00000000000E+00 -0.89516103654E+03  0.89516103654E+03  0.00000000000E+00 0.  1.
         23    2    1    2    0    0  0.11763585199E+04 -0.43675298535E+02  0.15150642429E+04  0.19207008679E+04  0.89136215902E+02 0.  0.
         13    1    3    3    0    0  0.36620531298E+03 -0.93343738354E+01  0.40625871132E+03  0.54702797214E+03  0.00000000000E+00 0. -1.
        -13    1    3    3    0    0  0.81015320688E+03 -0.34340924700E+02  0.11088055316E+04  0.13736728958E+04  0.00000000000E+00 0.  1.
         22    1    1    2    0    0 -0.11763585199E+04  0.43675298535E+02 -0.19196666358E+03  0.11927187845E+04  0.00000000000E+00 0.  1.
<mgrwt>
<rscale>  0 0.28182964E+04</rscale>
<asrwt>0</asrwt>
<pdfrwt beam="1">  1        1 0.34127055E+00 0.28182964E+04</pdfrwt>
<pdfrwt beam="2">  1       -1 0.13771708E+00 0.28182964E+04</pdfrwt>
<totfact> 0.80042065E-01</totfact>
</mgrwt>
</event>
<event>
 6    1  0.1797188E-006  0.2955620E+04  0.7818608E-02  0.8256518E-01
         -2   -1    0    0    0  501 -0.00000000000E+00  0.00000000000E+00  0.15352297876E+04  0.15352297876E+04  0.00000000000E+00 0.  1.
          2   -1    0    0  501    0  0.00000000000E+00 -0.00000000000E+00 -0.14225382360E+04  0.14225382360E+04  0.00000000000E+00 0. -1.
         23    2    1    2    0    0 -0.56848319549E+03 -0.97111356816E+03  0.10128762003E+04  0.15167381461E+04  0.91332912348E+02 0.  0.
         13    1    3    3    0    0 -0.28327935452E+03 -0.56346739766E+03  0.59434086469E+03  0.86659319427E+03  0.00000000000E+00 0. -1.
        -13    1    3    3    0    0 -0.28520384097E+03 -0.40764617050E+03  0.41853533561E+03  0.65014495182E+03  0.00000000000E+00 0.  1.
         22    1    1    2    0    0  0.56848319549E+03  0.97111356816E+03 -0.90018464871E+03  0.14410298774E+04  0.00000000000E+00 0. -1.
<mgrwt>
<rscale>  0 0.29556205E+04</rscale>
<asrwt>0</asrwt>
<pdfrwt beam="1">  1        2 0.21885204E+00 0.29556205E+04</pdfrwt>
<pdfrwt beam="2">  1       -2 0.23618920E+00 0.29556205E+04</pdfrwt>
<totfact> 0.94407046E-01</totfact>
</mgrwt>
</event>
<event>
 6    1  0.9562506E-007  0.2275981E+04  0.7818608E-02  0.8487452E-01
         -2   -1    0    0    0  501 -0.00000000000E+00  0.00000000000E+00  0.81517771678E+03  0.81517771678E+03  0.00000000000E+00 0.  1.
          2   -1    0    0  501    0  0.00000000000E+00 -0.00000000000E+00 -0.15886384192E+04  0.15886384192E+04  0.00000000000E+00 0. -1.
         23    2    1    2    0    0  0.53169844273E+03 -0.94113242384E+03 -0.75691643879E+03  0.13227485221E+04  0.91146498724E+02 0.  0.
         11    1    3    3    0    0  0.39951788087E+03 -0.68600476727E+03 -0.50712283449E+03  0.94201414379E+03  0.00000000000E+00 0.  1.
        -11    1    3    3    0    0  0.13218056186E+03 -0.25512765657E+03 -0.24979360430E+03  0.38073437832E+03  0.00000000000E+00 0. -1.
         22    1    1    2    0    0 -0.53169844273E+03  0.94113242384E+03 -0.16544263674E+02  0.10810676139E+04  0.00000000000E+00 0.  1.
<mgrwt>
<rscale>  0 0.22759812E+04</rscale>
<asrwt>0</asrwt>
<pdfrwt beam="1">  1        2 0.24440591E+00 0.22759812E+04</pdfrwt>
<pdfrwt beam="2">  1       -2 0.12541196E+00 0.22759812E+04</pdfrwt>
<totfact> 0.48891699E+00</totfact>
</mgrwt>
</event>
<event>
 6    1  0.9562506E-007  0.2380634E+04  0.7818608E-02  0.8446790E-01
          1   -1    0    0  501    0  0.00000000000E+00  0.00000000000E+00  0.10511790697E+04  0.10511790697E+04  0.00000000000E+00 0. -1.
         -1   -1    0    0    0  501 -0.00000000000E+00 -0.00000000000E+00 -0.13478713453E+04  0.13478713453E+04  0.00000000000E+00 0.  1.
         23    2    1    2    0    0  0.11594253685E+04  0.14237121503E+03  0.72801124985E+02  0.11738720112E+04  0.90215003317E+02 0.  0.
         13    1    3    3    0    0  0.27394887694E+03  0.22981520316E+02  0.54120844926E+02  0.28018780007E+03  0.00000000000E+00 0. -1.
        -13    1    3    3    0    0  0.88547649157E+03  0.11938969471E+03  0.18680280059E+02  0.89368421111E+03  0.00000000000E+00 0.  1.
         22    1    1    2    0    0 -0.11594253685E+04 -0.14237121503E+03 -0.36949340063E+03  0.12251784038E+04  0.00000000000E+00 0. -1.
<mgrwt>
<rscale>  0 0.23806337E+04</rscale>
<asrwt>0</asrwt>
<pdfrwt beam="1">  1        1 0.16171986E+00 0.23806337E+04</pdfrwt>
<pdfrwt beam="2">  1       -1 0.20736482E+00 0.23806337E+04</pdfrwt>
<totfact> 0.16608133E+00</totfact>
</mgrwt>
</event>
<event>
 6    1  0.9562506E-007  0.3713273E+04  0.7818608E-02  0.8065027E-01
         -2   -1    0    0    0  501 -0.00000000000E+00  0.00000000000E+00  0.13333281332E+04  0.13333281332E+04  0.00000000000E+00 0.  1.
          2   -1    0    0  501    0  0.00000000000E+00 -0.00000000000E+00 -0.25853342999E+04  0.25853342999E+04  0.00000000000E+00 0. -1.
         23    2    1    2    0    0  0.93659071138E+03 -0.32632935449E+03  0.10285602185E+04  0.14317615412E+04  0.91170058272E+02 0.  0.
         11    1    3    3    0    0  0.85520004622E+03 -0.31856278542E+03  0.92001891011E+03  0.12958719699E+04  0.00000000000E+00 0. -1.
        -11    1    3    3    0    0  0.81390665156E+02 -0.77665690669E+01  0.10854130842E+03  0.13588957135E+03  0.00000000000E+00 0.  1.
         22    1    1    2    0    0 -0.93659071138E+03  0.32632935449E+03 -0.22805663853E+04  0.24869008918E+04  0.00000000000E+00 0. -1.
<mgrwt>
<rscale>  0 0.37132729E+04</rscale>
<asrwt>0</asrwt>
<pdfrwt beam="1">  1        2 0.39774373E+00 0.37132729E+04</pdfrwt>
<pdfrwt beam="2">  1       -2 0.20512741E+00 0.37132729E+04</pdfrwt>
<totfact> 0.30859730E-01</totfact>
</mgrwt>
</event>
<event>
 6    1  0.9562506E-007  0.1377044E+04  0.7818608E-02  0.8970605E-01
          2   -1    0    0  501    0  0.00000000000E+00  0.00000000000E+00  0.12226575087E+04  0.12226575087E+04  0.00000000000E+00 0. -1.
         -2   -1    0    0    0  501 -0.00000000000E+00 -0.00000000000E+00 -0.38773153089E+03  0.38773153089E+03  0.00000000000E+00 0.  1.
         23    2    1    2    0    0  0.37628804662E+02 -0.67718294522E+03  0.53570928648E+03  0.86909065394E+03  0.91331576699E+02 0.  0.
         11    1    3    3    0    0  0.11390385730E+02 -0.59641864241E+03  0.44069590193E+03  0.74165882714E+03  0.00000000000E+00 0.  1.
        -11    1    3    3    0    0  0.26238418932E+02 -0.80764302813E+02  0.95013384551E+02  0.12743182680E+03  0.00000000000E+00 0. -1.
         22    1    1    2    0    0 -0.37628804662E+02  0.67718294522E+03  0.29921669138E+03  0.74129838570E+03  0.00000000000E+00 0. -1.
<mgrwt>
<rscale>  0 0.13770445E+04</rscale>
<asrwt>0</asrwt>
<pdfrwt beam="1">  1        2 0.18810115E+00 0.13770445E+04</pdfrwt>
<pdfrwt beam="2">  1       -2 0.59651005E-01 0.13770445E+04</pdfrwt>
<totfact> 0.46933178E+01</totfact>
</mgrwt>
</event>
<event>
 6    1  0.9562506E-007  0.4345007E+04  0.7818608E-02  0.7938348E-01
         -1   -1    0    0    0  501 -0.00000000000E+00  0.00000000000E+00  0.24781591316E+04  0.24781591316E+04  0.00000000000E+00 0.  1.
          1   -1    0    0  501    0  0.00000000000E+00 -0.00000000000E+00 -0.19045476514E+04  0.19045476514E+04  0.00000000000E+00 0. -1.
         23    2    1    2    0    0 -0.14663888147E+04  0.91294688138E+03  0.16142656726E+04  0.23660934556E+04  0.93682519703E+02 0.  0.
         11    1    3    3    0    0 -0.10830740301E+04  0.62512016122E+03  0.11619018481E+04  0.17069975030E+04  0.00000000000E+00 0. -1.
        -11    1    3    3    0    0 -0.38331478463E+03  0.28782672015E+03  0.45236382457E+03  0.65909595260E+03  0.00000000000E+00 0.  1.
         22    1    1    2    0    0  0.14663888147E+04 -0.91294688138E+03 -0.10406541924E+04  0.20166133274E+04  0.00000000000E+00 0. -1.
<mgrwt>
<rscale>  0 0.43450073E+04</rscale>
<asrwt>0</asrwt>
<pdfrwt beam="1">  1        1 0.29300733E+00 0.43450073E+04</pdfrwt>
<pdfrwt beam="2">  1       -1 0.38125525E+00 0.43450073E+04</pdfrwt>
<totfact> 0.25249195E-02</totfact>
</mgrwt>
</event>
<event>
 6    1  0.9562506E-007  0.2207563E+04  0.7818608E-02  0.8515287E-01
         -1   -1    0    0    0  501 -0.00000000000E+00  0.00000000000E+00  0.82743509242E+03  0.82743509242E+03  0.00000000000E+00 0.  1.
          1   -1    0    0  501    0  0.00000000000E+00 -0.00000000000E+00 -0.14724213003E+04  0.14724213003E+04  0.00000000000E+00 0. -1.
         23    2    1    2    0    0 -0.91950781830E+03 -0.46313439564E+03 -0.73186500674E+03  0.12666400446E+04  0.93608322668E+02 0.  0.
         13    1    3    3    0    0 -0.40325846885E+03 -0.25103357445E+03 -0.31378929907E+03  0.56929691060E+03  0.00000000000E+00 0. -1.
        -13    1    3    3    0    0 -0.51624934944E+03 -0.21210082119E+03 -0.41807570767E+03  0.69734313397E+03  0.00000000000E+00 0.  1.
         22    1    1    2    0    0  0.91950781830E+03  0.46313439564E+03  0.86878798898E+02  0.10332163481E+04  0.00000000000E+00 0.  1.
<mgrwt>
<rscale>  0 0.22075625E+04</rscale>
<asrwt>0</asrwt>
<pdfrwt beam="1">  1        1 0.22652635E+00 0.22075625E+04</pdfrwt>
<pdfrwt beam="2">  1       -1 0.12729771E+00 0.22075625E+04</pdfrwt>
<totfact> 0.33308660E+00</totfact>
</mgrwt>
</event>
<event>
 6    1  0.9562506E-007  0.2451925E+04  0.7818608E-02  0.8420315E-01
         -1   -1    0    0    0  501 -0.00000000000E+00  0.00000000000E+00  0.11496652814E+04  0.11496652814E+04  0.00000000000E+00 0.  1.
          1   -1    0    0  501    0  0.00000000000E+00 -0.00000000000E+00 -0.13073234612E+04  0.13073234612E+04  0.00000000000E+00 0. -1.
         23    2    1    2    0    0  0.91202467933E+03 -0.18981455663E+03 -0.87515194600E+03  0.12811418621E+04  0.87263742325E+02 0.  0.
         13    1    3    3    0    0  0.25660991917E+03 -0.62361639686E+02 -0.30214118172E+03  0.40128159491E+03  0.00000000000E+00 0. -1.
        -13    1    3    3    0    0  0.65541476016E+03 -0.12745291694E+03 -0.57301076428E+03  0.87986026723E+03  0.00000000000E+00 0.  1.
         22    1    1    2    0    0 -0.91202467933E+03  0.18981455663E+03  0.71749376622E+03  0.11758468804E+04  0.00000000000E+00 0.  1.
<mgrwt>
<rscale>  0 0.24519253E+04</rscale>
<asrwt>0</asrwt>
<pdfrwt beam="1">  1        1 0.20112669E+00 0.24519253E+04</pdfrwt>
<pdfrwt beam="2">  1       -1 0.17687158E+00 0.24519253E+04</pdfrwt>
<totfact> 0.17479134E+00</totfact>
</mgrwt>
</event>
<event>
 6    1  0.9562506E-007  0.3186599E+04  0.7818608E-02  0.8192365E-01
         -1   -1    0    0    0  501 -0.00000000000E+00  0.00000000000E+00  0.10539660604E+04  0.10539660604E+04  0.00000000000E+00 0.  1.
          1   -1    0    0  501    0  0.00000000000E+00 -0.00000000000E+00 -0.24086194881E+04  0.24086194881E+04  0.00000000000E+00 0. -1.
         23    2    1    2    0    0  0.50352565833E+03 -0.16485360359E+03 -0.23091502224E+04  0.23708992702E+04  0.90960435331E+02 0.  0.
         11    1    3    3    0    0  0.65835944793E+02 -0.30482322064E+02 -0.47270328532E+03  0.47823837104E+03  0.00000000000E+00 0. -1.
        -11    1    3    3    0    0  0.43768971354E+03 -0.13437128153E+03 -0.18364469370E+04  0.18926608992E+04  0.00000000000E+00 0.  1.
         22    1    1    2    0    0 -0.50352565833E+03  0.16485360359E+03  0.95449679470E+03  0.10916862783E+04  0.00000000000E+00 0.  1.
<mgrwt>
<rscale>  0 0.31865989E+04</rscale>
<asrwt>0</asrwt>
<pdfrwt beam="1">  1        1 0.37055685E+00 0.31865989E+04</pdfrwt>
<pdfrwt beam="2">  1       -1 0.16214862E+00 0.31865989E+04</pdfrwt>
<totfact> 0.36942876E-01</totfact>
</mgrwt>
</event>
<event>
 6    1  0.9562506E-007  0.3208341E+04  0.7818608E-02  0.8186618E-01
         -2   -1    0    0    0  501 -0.00000000000E+00  0.00000000000E+00  0.22180373519E+04  0.22180373519E+04  0.00000000000E+00 0.  1.
          2   -1    0    0  501    0  0.00000000000E+00 -0.00000000000E+00 -0.11601979559E+04  0.11601979559E+04  0.00000000000E+00 0. -1.
         23    2    1    2    0    0  0.10100577942E+04 -0.42291734385E+02 -0.78105714123E+03  0.12797725817E+04  0.75909581203E+02 0.  0.
         11    1    3    3    0    0  0.66732723945E+03 -0.17621583181E+02 -0.47150132117E+03  0.81728187339E+03  0.00000000000E+00 0. -1.
        -11    1    3    3    0    0  0.34273055480E+03 -0.24670151205E+02 -0.30955582006E+03  0.46249070832E+03  0.00000000000E+00 0.  1.
         22    1    1    2    0    0 -0.10100577942E+04  0.42291734385E+02  0.18388965371E+04  0.20984627261E+04  0.00000000000E+00 0.  1.
<mgrwt>
<rscale>  0 0.32083406E+04</rscale>
<asrwt>0</asrwt>
<pdfrwt beam="1">  1        2 0.17849199E+00 0.32083406E+04</pdfrwt>
<pdfrwt beam="2">  1       -2 0.34123652E+00 0.32083406E+04</pdfrwt>
<totfact> 0.29738821E-01</totfact>
</mgrwt>
</event>
<event>
 6    1  0.9562506E-007  0.2812665E+04  0.7818608E-02  0.8299347E-01
          1   -1    0    0  501    0  0.00000000000E+00  0.00000000000E+00  0.12645890030E+04  0.12645890030E+04  0.00000000000E+00 0. -1.
         -1   -1    0    0    0  501 -0.00000000000E+00 -0.00000000000E+00 -0.15639635078E+04  0.15639635078E+04  0.00000000000E+00 0.  1.
         23    2    1    2    0    0 -0.11795408376E+04 -0.43946200883E+03 -0.77717182899E+03  0.14821745075E+04  0.91661192157E+02 0.  0.
         11    1    3    3    0    0 -0.12447780469E+03 -0.63339278478E+02 -0.59031696563E+02  0.15162891959E+03  0.00000000000E+00 0.  1.
        -11    1    3    3    0    0 -0.10550630329E+04 -0.37612273035E+03 -0.71814013243E+03  0.13305455879E+04  0.00000000000E+00 0. -1.
         22    1    1    2    0    0  0.11795408376E+04  0.43946200883E+03  0.47779732414E+03  0.13463780033E+04  0.00000000000E+00 0. -1.
<mgrwt>
<rscale>  0 0.28126650E+04</rscale>
<asrwt>0</asrwt>
<pdfrwt beam="1">  1        1 0.19455215E+00 0.28126650E+04</pdfrwt>
<pdfrwt beam="2">  1       -1 0.24060977E+00 0.28126650E+04</pdfrwt>
<totfact> 0.66627281E-01</totfact>
</mgrwt>
</event>
<event>
 6    1  0.9562506E-007  0.2725918E+04  0.7818608E-02  0.8326644E-01
          1   -1    0    0  501    0  0.00000000000E+00  0.00000000000E+00  0.52408727921E+04  0.52408727921E+04  0.00000000000E+00 0. -1.
         -1   -1    0    0    0  501 -0.00000000000E+00 -0.00000000000E+00 -0.35445567629E+03  0.35445567629E+03  0.00000000000E+00 0.  1.
         23    2    1    2    0    0 -0.24899834531E+03  0.51655116788E+02  0.51912772526E+04  0.51983295639E+04  0.92748663384E+02 0.  0.
         11    1    3    3    0    0 -0.16394331753E+03  0.55945582816E+01  0.25421251736E+04  0.25474122377E+04  0.00000000000E+00 0.  1.
        -11    1    3    3    0    0 -0.85055027782E+02  0.46060558506E+02  0.26491520790E+04  0.26509173263E+04  0.00000000000E+00 0. -1.
         22    1    1    2    0    0  0.24899834531E+03 -0.51655116788E+02 -0.30486013686E+03  0.39699890441E+03  0.00000000000E+00 0.  1.
<mgrwt>
<rscale>  0 0.27259179E+04</rscale>
<asrwt>0</asrwt>
<pdfrwt beam="1">  1        1 0.80628806E+00 0.27259179E+04</pdfrwt>
<pdfrwt beam="2">  1       -1 0.54531646E-01 0.27259179E+04</pdfrwt>
<totfact> 0.11988536E-02</totfact>
</mgrwt>
</event>
<event>
 6    1  0.9562506E-007  0.2729596E+04  0.7818608E-02  0.8325466E-01
         -2   -1    0    0    0  501 -0.00000000000E+00  0.00000000000E+00  0.90673487580E+03  0.90673487580E+03  0.00000000000E+00 0.  1.
          2   -1    0    0  501    0  0.00000000000E+00 -0.00000000000E+00 -0.20542645541E+04  0.20542645541E+04  0.00000000000E+00 0. -1.
         23    2    1    2    0    0 -0.64189603818E+03 -0.10950518299E+04 -0.34907750227E+02  0.12730727168E+04  0.91249970920E+02 0.  0.
         11    1    3    3    0    0 -0.44861937418E+03 -0.69225826533E+03  0.43113749312E+00  0.82491274368E+03  0.00000000000E+00 0. -1.
        -11    1    3    3    0    0 -0.19327666400E+03 -0.40279356457E+03 -0.35338887720E+02  0.44815997310E+03  0.00000000000E+00 0.  1.
         22    1    1    2    0    0  0.64189603818E+03  0.10950518299E+04 -0.11126219281E+04  0.16879267131E+04  0.00000000000E+00 0. -1.
<mgrwt>
<rscale>  0 0.27295958E+04</rscale>
<asrwt>0</asrwt>
<pdfrwt beam="1">  1        2 0.31604069E+00 0.27295958E+04</pdfrwt>
<pdfrwt beam="2">  1       -2 0.13949768E+00 0.27295958E+04</pdfrwt>
<totfact> 0.19773089E+00</totfact>
</mgrwt>
</event>
<event>
 6    1  0.9562506E-007  0.3254185E+04  0.7818608E-02  0.8174652E-01
         -1   -1    0    0    0  501 -0.00000000000E+00  0.00000000000E+00  0.12288171343E+04  0.12288171343E+04  0.00000000000E+00 0.  1.
          1   -1    0    0  501    0  0.00000000000E+00 -0.00000000000E+00 -0.21544537643E+04  0.21544537643E+04  0.00000000000E+00 0. -1.
         23    2    1    2    0    0 -0.73442909923E+03  0.52944202279E+02  0.10437799744E+04  0.12807031940E+04  0.92384228938E+02 0.  0.
         13    1    3    3    0    0 -0.26838448994E+03 -0.17953699362E+02  0.42174895043E+03  0.50022469646E+03  0.00000000000E+00 0. -1.
        -13    1    3    3    0    0 -0.46604460929E+03  0.70897901641E+02  0.62203102399E+03  0.78047849753E+03  0.00000000000E+00 0.  1.
         22    1    1    2    0    0  0.73442909923E+03 -0.52944202279E+02 -0.19694166045E+04  0.21025677046E+04  0.00000000000E+00 0. -1.
<mgrwt>
<rscale>  0 0.32541848E+04</rscale>
<asrwt>0</asrwt>
<pdfrwt beam="1">  1        1 0.33145443E+00 0.32541848E+04</pdfrwt>
<pdfrwt beam="2">  1       -1 0.18904879E+00 0.32541848E+04</pdfrwt>
<totfact> 0.34968737E-01</totfact>
</mgrwt>
</event>
<event>
 6    1  0.9562506E-007  0.3320403E+04  0.7818608E-02  0.8157723E-01
          1   -1    0    0  501    0  0.00000000000E+00  0.00000000000E+00  0.17156848134E+04  0.17156848134E+04  0.00000000000E+00 0. -1.
         -1   -1    0    0    0  501 -0.00000000000E+00 -0.00000000000E+00 -0.16065124372E+04  0.16065124372E+04  0.00000000000E+00 0.  1.
         23    2    1    2    0    0  0.81202262147E+03  0.73731136422E+03 -0.11906343210E+04  0.16214602822E+04  0.92274453693E+02 0.  0.
         11    1    3    3    0    0  0.82428878263E+02  0.45406821510E+02 -0.82733502709E+02  0.12530415748E+03  0.00000000000E+00 0. -1.
        -11    1    3    3    0    0  0.72959374321E+03  0.69190454271E+03 -0.11079008183E+04  0.14961561247E+04  0.00000000000E+00 0.  1.
         22    1    1    2    0    0 -0.81202262147E+03 -0.73731136422E+03  0.12998066972E+04  0.17007369684E+04  0.00000000000E+00 0. -1.
<mgrwt>
<rscale>  0 0.33204030E+04</rscale>
<asrwt>0</asrwt>
<pdfrwt beam="1">  1        1 0.26395151E+00 0.33204030E+04</pdfrwt>
<pdfrwt beam="2">  1       -1 0.24715576E+00 0.33204030E+04</pdfrwt>
<totfact> 0.28026010E-01</totfact>
</mgrwt>
</event>
<event>
 6    1  0.9562506E-007  0.4222431E+04  0.7818608E-02  0.7961119E-01
         -2   -1    0    0    0  501 -0.00000000000E+00  0.00000000000E+00  0.12418360226E+04  0.12418360226E+04  0.00000000000E+00 0.  1.
          2   -1    0    0  501    0  0.00000000000E+00 -0.00000000000E+00 -0.35892271691E+04  0.35892271691E+04  0.00000000000E+00 0. -1.
         23    2    1    2    0    0  0.37343382340E+03  0.17792240459E+04 -0.24011446888E+04  0.30122777538E+04  0.56836813534E+02 0.  0.
         11    1    3    3    0    0  0.13915130053E+03  0.68061003122E+03 -0.96313146083E+03  0.11875248671E+04  0.00000000000E+00 0. -1.
        -11    1    3    3    0    0  0.23428252287E+03  0.10986140147E+04 -0.14380132279E+04  0.18247528867E+04  0.00000000000E+00 0.  1.
         22    1    1    2    0    0 -0.37343382340E+03 -0.17792240459E+04  0.53753542209E+02  0.18187854380E+04  0.00000000000E+00 0.  1.
<mgrwt>
<rscale>  0 0.42224313E+04</rscale>
<asrwt>0</asrwt>
<pdfrwt beam="1">  1        2 0.55218878E+00 0.42224313E+04</pdfrwt>
<pdfrwt beam="2">  1       -2 0.19105170E+00 0.42224313E+04</pdfrwt>
<totfact> 0.82870659E-02</totfact>
</mgrwt>
</event>
<event>
 6    1  0.9562506E-007  0.1656678E+04  0.7818608E-02  0.8786465E-01
          2   -1    0    0  501    0  0.00000000000E+00  0.00000000000E+00  0.73760823172E+03  0.73760823172E+03  0.00000000000E+00 0. -1.
         -2   -1    0    0    0  501 -0.00000000000E+00 -0.00000000000E+00 -0.93023054307E+03  0.93023054307E+03  0.00000000000E+00 0.  1.
         23    2    1    2    0    0 -0.40575055319E+03 -0.60048125889E+03  0.30204828113E+03  0.79039347805E+03  0.90980395243E+02 0.  0.
         11    1    3    3    0    0 -0.24088758513E+03 -0.28327133989E+03  0.13267700214E+03  0.39480712705E+03  0.00000000000E+00 0. -1.
        -11    1    3    3    0    0 -0.16486296806E+03 -0.31720991901E+03  0.16937127899E+03  0.39558635100E+03  0.00000000000E+00 0.  1.
         22    1    1    2    0    0  0.40575055319E+03  0.60048125889E+03 -0.49467059248E+03  0.87744529673E+03  0.00000000000E+00 0.  1.
<mgrwt>
<rscale>  0 0.16566782E+04</rscale>
<asrwt>0</asrwt>
<pdfrwt beam="1">  1        2 0.11347819E+00 0.16566782E+04</pdfrwt>
<pdfrwt beam="2">  1       -2 0.14311239E+00 0.16566782E+04</pdfrwt>
<totfact> 0.12401889E+01</totfact>
</mgrwt>
</event>
<event>
 6    1  0.9562506E-007  0.1782103E+04  0.7818608E-02  0.8715875E-01
         -1   -1    0    0    0  501 -0.00000000000E+00  0.00000000000E+00  0.71960238070E+03  0.71960238070E+03  0.00000000000E+00 0.  1.
          1   -1    0    0  501    0  0.00000000000E+00 -0.00000000000E+00 -0.11033495413E+04  0.11033495413E+04  0.00000000000E+00 0. -1.
         23    2    1    2    0    0  0.61890324910E+03  0.62438773866E+03 -0.32494074247E+03  0.94183928742E+03  0.92593073675E+02 0.  0.
         11    1    3    3    0    0  0.19477609307E+03  0.16063700160E+03 -0.12921349644E+03  0.28361611445E+03  0.00000000000E+00 0. -1.
        -11    1    3    3    0    0  0.42412715603E+03  0.46375073705E+03 -0.19572724603E+03  0.65822317297E+03  0.00000000000E+00 0.  1.
         22    1    1    2    0    0 -0.61890324910E+03 -0.62438773866E+03 -0.58806418094E+02  0.88111263453E+03  0.00000000000E+00 0. -1.
<mgrwt>
<rscale>  0 0.17821032E+04</rscale>
<asrwt>0</asrwt>
<pdfrwt beam="1">  1        1 0.16974608E+00 0.17821032E+04</pdfrwt>
<pdfrwt beam="2">  1       -1 0.11070806E+00 0.17821032E+04</pdfrwt>
<totfact> 0.89555480E+00</totfact>
</mgrwt>
</event>
<event>
 6    1  0.9562506E-007  0.2647783E+04  0.7818608E-02  0.8352149E-01
          2   -1    0    0  501    0  0.00000000000E+00  0.00000000000E+00  0.10638749645E+04  0.10638749645E+04  0.00000000000E+00 0. -1.
         -2   -1    0    0    0  501 -0.00000000000E+00 -0.00000000000E+00 -0.16474577079E+04  0.16474577079E+04  0.00000000000E+00 0.  1.
         23    2    1    2    0    0 -0.55420461617E+03  0.89625290535E+03  0.52582221810E+03  0.11812374481E+04  0.91765335172E+02 0.  0.
         11    1    3    3    0    0 -0.17969069839E+03  0.31243938059E+03  0.13347937144E+03  0.38434861289E+03  0.00000000000E+00 0. -1.
        -11    1    3    3    0    0 -0.37451391778E+03  0.58381352476E+03  0.39234284667E+03  0.79688883518E+03  0.00000000000E+00 0.  1.
         22    1    1    2    0    0  0.55420461617E+03 -0.89625290535E+03 -0.11094049615E+04  0.15300952243E+04  0.00000000000E+00 0.  1.
<mgrwt>
<rscale>  0 0.26477832E+04</rscale>
<asrwt>0</asrwt>
<pdfrwt beam="1">  1        2 0.16367307E+00 0.26477832E+04</pdfrwt>
<pdfrwt beam="2">  1       -2 0.25345503E+00 0.26477832E+04</pdfrwt>
<totfact> 0.12369386E+00</totfact>
</mgrwt>
</event>
<event>
 6    1  0.9562506E-007  0.2489322E+04  0.7818608E-02  0.8406800E-01
          1   -1    0    0  501    0  0.00000000000E+00  0.00000000000E+00  0.20562928566E+04  0.20562928566E+04  0.00000000000E+00 0. -1.
         -1   -1    0    0    0  501 -0.00000000000E+00 -0.00000000000E+00 -0.75338533456E+03  0.75338533456E+03  0.00000000000E+00 0.  1.
         23    2    1    2    0    0 -0.90873793765E+03  0.50386361273E+03 -0.11749305076E+03  0.10497858743E+04  0.92534239296E+02 0.  0.
         13    1    3    3    0    0 -0.53607660032E+03  0.24513081211E+03 -0.61110972861E+02  0.59262280369E+03  0.00000000000E+00 0. -1.
        -13    1    3    3    0    0 -0.37266133733E+03  0.25873280063E+03 -0.56382077901E+02  0.45716307065E+03  0.00000000000E+00 0.  1.
         22    1    1    2    0    0  0.90873793765E+03 -0.50386361273E+03  0.14204005728E+04  0.17598923168E+04  0.00000000000E+00 0. -1.
<mgrwt>
<rscale>  0 0.24893219E+04</rscale>
<asrwt>0</asrwt>
<pdfrwt beam="1">  1        1 0.31635274E+00 0.24893219E+04</pdfrwt>
<pdfrwt beam="2">  1       -1 0.11590544E+00 0.24893219E+04</pdfrwt>
<totfact> 0.16341580E+00</totfact>
</mgrwt>
</event>
<event>
 6    1  0.9562506E-007  0.1323668E+04  0.7818608E-02  0.9011004E-01
          2   -1    0    0  501    0  0.00000000000E+00  0.00000000000E+00  0.25372476730E+04  0.25372476730E+04  0.00000000000E+00 0. -1.
         -2   -1    0    0    0  501 -0.00000000000E+00 -0.00000000000E+00 -0.17263750762E+03  0.17263750762E+03  0.00000000000E+00 0.  1.
         23    2    1    2    0    0 -0.56298167009E+03 -0.26584987140E+03  0.16295815503E+04  0.17466138896E+04  0.86599858953E+02 0.  0.
         11    1    3    3    0    0 -0.34234396795E+03 -0.17200811111E+03  0.11131542015E+04  0.11772418863E+04  0.00000000000E+00 0.  1.
        -11    1    3    3    0    0 -0.22063770214E+03 -0.93841760290E+02  0.51642734878E+03  0.56937200330E+03  0.00000000000E+00 0. -1.
         22    1    1    2    0    0  0.56298167009E+03  0.26584987140E+03  0.73502861513E+03  0.96327129099E+03  0.00000000000E+00 0.  1.
<mgrwt>
<rscale>  0 0.13236678E+04</rscale>
<asrwt>0</asrwt>
<pdfrwt beam="1">  1        2 0.39034577E+00 0.13236678E+04</pdfrwt>
<pdfrwt beam="2">  1       -2 0.26559618E-01 0.13236678E+04</pdfrwt>
<totfact> 0.41837669E+01</totfact>
</mgrwt>
</event>
<event>
 6    1  0.9562506E-007  0.1207995E+04  0.7818608E-02  0.9105887E-01
         -1   -1    0    0    0  501 -0.00000000000E+00  0.00000000000E+00  0.38342339811E+03  0.38342339811E+03  0.00000000000E+00 0.  1.
          1   -1    0    0  501    0  0.00000000000E+00 -0.00000000000E+00 -0.95146216661E+03  0.95146216661E+03  0.00000000000E+00 0. -1.
         23    2    1    2    0    0 -0.16374193886E+03 -0.53570124405E+03 -0.52471199330E+03  0.77304532509E+03  0.92136601385E+02 0.  0.
         11    1    3    3    0    0 -0.12813983208E+03 -0.34122974109E+03 -0.28741487863E+03  0.46418193118E+03  0.00000000000E+00 0. -1.
        -11    1    3    3    0    0 -0.35602106771E+02 -0.19447150295E+03 -0.23729711467E+03  0.30886339391E+03  0.00000000000E+00 0.  1.
         22    1    1    2    0    0  0.16374193886E+03  0.53570124405E+03 -0.43326775194E+02  0.56184023962E+03  0.00000000000E+00 0.  1.
<mgrwt>
<rscale>  0 0.12079948E+04</rscale>
<asrwt>0</asrwt>
<pdfrwt beam="1">  1        1 0.14637879E+00 0.12079948E+04</pdfrwt>
<pdfrwt beam="2">  1       -1 0.58988216E-01 0.12079948E+04</pdfrwt>
<totfact> 0.47628790E+01</totfact>
</mgrwt>
</event>
<event>
 6    1  0.9562506E-007  0.4024488E+04  0.7818608E-02  0.7999625E-01
          2   -1    0    0  501    0  0.00000000000E+00  0.00000000000E+00  0.31533486189E+04  0.31533486189E+04  0.00000000000E+00 0. -1.
         -2   -1    0    0    0  501 -0.00000000000E+00 -0.00000000000E+00 -0.12840715563E+04  0.12840715563E+04  0.00000000000E+00 0.  1.
         23    2    1    2    0    0  0.15366156823E+04 -0.44320200784E+03 -0.40950919051E+03  0.16534513244E+04  0.92670007306E+02 0.  0.
         13    1    3    3    0    0  0.87024844347E+03 -0.25603554004E+03 -0.18505791013E+03  0.92581476616E+03  0.00000000000E+00 0. -1.
        -13    1    3    3    0    0  0.66636723882E+03 -0.18716646781E+03 -0.22445128038E+03  0.72763655826E+03  0.00000000000E+00 0.  1.
         22    1    1    2    0    0 -0.15366156823E+04  0.44320200784E+03  0.22787862531E+04  0.27839688508E+04  0.00000000000E+00 0. -1.
<mgrwt>
<rscale>  0 0.40244877E+04</rscale>
<asrwt>0</asrwt>
<pdfrwt beam="1">  1        2 0.48513055E+00 0.40244877E+04</pdfrwt>
<pdfrwt beam="2">  1       -2 0.19754947E+00 0.40244877E+04</pdfrwt>
<totfact> 0.15098889E-01</totfact>
</mgrwt>
</event>
<event>
 6    1  0.9562506E-007  0.2007743E+04  0.7818608E-02  0.8603009E-01
          2   -1    0    0  501    0  0.00000000000E+00  0.00000000000E+00  0.23575890857E+04  0.23575890857E+04  0.00000000000E+00 0. -1.
         -2   -1    0    0    0  501 -0.00000000000E+00 -0.00000000000E+00 -0.42745274203E+03  0.42745274203E+03  0.00000000000E+00 0.  1.
         23    2    1    2    0    0  0.55665439397E+03  0.58636821061E+03  0.17875568315E+04  0.19640541847E+04  0.91965329325E+02 0.  0.
         13    1    3    3    0    0  0.19919392292E+03  0.15372120994E+03  0.51139826598E+03  0.56994439708E+03  0.00000000000E+00 0. -1.
        -13    1    3    3    0    0  0.35746047105E+03  0.43264700067E+03  0.12761585655E+04  0.13941097876E+04  0.00000000000E+00 0.  1.
         22    1    1    2    0    0 -0.55665439397E+03 -0.58636821061E+03  0.14257951216E+03  0.82098764304E+03  0.00000000000E+00 0.  1.
<mgrwt>
<rscale>  0 0.20077429E+04</rscale>
<asrwt>0</asrwt>
<pdfrwt beam="1">  1        2 0.36270601E+00 0.20077429E+04</pdfrwt>
<pdfrwt beam="2">  1       -2 0.65761961E-01 0.20077429E+04</pdfrwt>
<totfact> 0.83120370E+00</totfact>
</mgrwt>
</event>
<event>
 6    1  0.9562506E-007  0.2678367E+04  0.7818608E-02  0.8342058E-01
          2   -1    0    0  501    0  0.00000000000E+00  0.00000000000E+00  0.25125976666E+04  0.25125976666E+04  0.00000000000E+00 0. -1.
         -2   -1    0    0    0  501 -0.00000000000E+00 -0.00000000000E+00 -0.71376838480E+03  0.71376838480E+03  0.00000000000E+00 0.  1.
         23    2    1    2    0    0  0.32118114656E+03  0.11487947065E+04  0.17119672720E+03  0.12084279108E+04  0.90017163029E+02 0.  0.
         11    1    3    3    0    0  0.18058241020E+03  0.57546441484E+03  0.12774353405E+03  0.61651253849E+03  0.00000000000E+00 0. -1.
        -11    1    3    3    0    0  0.14059873636E+03  0.57333029163E+03  0.43453193151E+02  0.59191537230E+03  0.00000000000E+00 0.  1.
         22    1    1    2    0    0 -0.32118114656E+03 -0.11487947065E+04  0.16276325546E+04  0.20179381406E+04  0.00000000000E+00 0. -1.
<mgrwt>
<rscale>  0 0.26783672E+04</rscale>
<asrwt>0</asrwt>
<pdfrwt beam="1">  1        2 0.38655348E+00 0.26783672E+04</pdfrwt>
<pdfrwt beam="2">  1       -2 0.10981052E+00 0.26783672E+04</pdfrwt>
<totfact> 0.19842922E+00</totfact>
</mgrwt>
</event>
<event>
 6    1  0.9562506E-007  0.1005848E+04  0.7818608E-02  0.9302154E-01
          2   -1    0    0  501    0  0.00000000000E+00  0.00000000000E+00  0.11193998164E+04  0.11193998164E+04  0.00000000000E+00 0. -1.
         -2   -1    0    0    0  501 -0.00000000000E+00 -0.00000000000E+00 -0.22595371909E+03  0.22595371909E+03  0.00000000000E+00 0.  1.
         23    2    1    2    0    0 -0.45891677744E+03 -0.19100046294E+03  0.50576090344E+03  0.71496826043E+03  0.91102889677E+02 0.  0.
         13    1    3    3    0    0 -0.37594190580E+03 -0.15504181746E+03  0.35829728205E+03  0.54198452379E+03  0.00000000000E+00 0. -1.
        -13    1    3    3    0    0 -0.82974871635E+02 -0.35958645484E+02  0.14746362139E+03  0.17298373664E+03  0.00000000000E+00 0.  1.
         22    1    1    2    0    0  0.45891677744E+03  0.19100046294E+03  0.38768519384E+03  0.63038527504E+03  0.00000000000E+00 0.  1.
<mgrwt>
<rscale>  0 0.10058480E+04</rscale>
<asrwt>0</asrwt>
<pdfrwt beam="1">  1        2 0.17221535E+00 0.10058480E+04</pdfrwt>
<pdfrwt beam="2">  1       -2 0.34762111E-01 0.10058480E+04</pdfrwt>
<totfact> 0.16397986E+02</totfact>
</mgrwt>
</event>
<event>
 6    1  0.1164907E-006  0.3101842E+04  0.7818608E-02  0.8215233E-01
          1   -1    0    0  501    0  0.00000000000E+00  0.00000000000E+00  0.25701806925E+04  0.25701806925E+04  0.00000000000E+00 0. -1.
         -1   -1    0    0    0  501 -0.00000000000E+00 -0.00000000000E+00 -0.93587022533E+03  0.93587022533E+03  0.00000000000E+00 0.  1.
         23    2    1    2    0    0  0.40937691955E+03 -0.33301706053E+03  0.24646648641E+04  0.25221920614E+04  0.91597364436E+02 0.  0.
         11    1    3    3    0    0  0.23356781201E+03 -0.19505140497E+03  0.12031694861E+04  0.12410543041E+04  0.00000000000E+00 0. -1.
        -11    1    3    3    0    0  0.17580910754E+03 -0.13796565557E+03  0.12614953780E+04  0.12811377573E+04  0.00000000000E+00 0.  1.
         22    1    1    2    0    0 -0.40937691955E+03  0.33301706053E+03 -0.83035439696E+03  0.98385885645E+03  0.00000000000E+00 0.  1.
<mgrwt>
<rscale>  0 0.31018418E+04</rscale>
<asrwt>0</asrwt>
<pdfrwt beam="1">  1        1 0.39541241E+00 0.31018418E+04</pdfrwt>
<pdfrwt beam="2">  1       -1 0.14398004E+00 0.31018418E+04</pdfrwt>
<totfact> 0.39745433E-01</totfact>
</mgrwt>
</event>
<event>
 6    1  0.9562506E-007  0.3723612E+04  0.7818608E-02  0.8062749E-01
          2   -1    0    0  501    0  0.00000000000E+00  0.00000000000E+00  0.19515745728E+04  0.19515745728E+04  0.00000000000E+00 0. -1.
         -2   -1    0    0    0  501 -0.00000000000E+00 -0.00000000000E+00 -0.17761661776E+04  0.17761661776E+04  0.00000000000E+00 0.  1.
         23    2    1    2    0    0  0.18829176302E+03 -0.16672592057E+04  0.89311397502E+03  0.19028275069E+04  0.88842004455E+02 0.  0.
         13    1    3    3    0    0  0.40142839830E+01 -0.34861745627E+03  0.19427865858E+03  0.39911707865E+03  0.00000000000E+00 0.  1.
        -13    1    3    3    0    0  0.18427747904E+03 -0.13186417494E+04  0.69883531644E+03  0.15037104283E+04  0.00000000000E+00 0. -1.
         22    1    1    2    0    0 -0.18829176302E+03  0.16672592057E+04 -0.71770557990E+03  0.18249132435E+04  0.00000000000E+00 0.  1.
<mgrwt>
<rscale>  0 0.37236116E+04</rscale>
<asrwt>0</asrwt>
<pdfrwt beam="1">  1        2 0.30024224E+00 0.37236116E+04</pdfrwt>
<pdfrwt beam="2">  1       -2 0.27325634E+00 0.37236116E+04</pdfrwt>
<totfact> 0.26555768E-01</totfact>
</mgrwt>
</event>
<event>
 6    1  0.9562506E-007  0.2339172E+04  0.7818608E-02  0.8462634E-01
         -1   -1    0    0    0  501 -0.00000000000E+00  0.00000000000E+00  0.86708971830E+03  0.86708971830E+03  0.00000000000E+00 0.  1.
          1   -1    0    0  501    0  0.00000000000E+00 -0.00000000000E+00 -0.15776122115E+04  0.15776122115E+04  0.00000000000E+00 0. -1.
         23    2    1    2    0    0 -0.74942472715E+03  0.88472377015E+03 -0.21001717979E+03  0.11818166857E+04  0.90608452189E+02 0.  0.
         11    1    3    3    0    0 -0.29037273056E+03  0.39148287663E+03 -0.12048851506E+03  0.50208828667E+03  0.00000000000E+00 0. -1.
        -11    1    3    3    0    0 -0.45905199659E+03  0.49324089352E+03 -0.89528664730E+02  0.67972839901E+03  0.00000000000E+00 0.  1.
         22    1    1    2    0    0  0.74942472715E+03 -0.88472377015E+03 -0.50050531344E+03  0.12628852442E+04  0.00000000000E+00 0. -1.
<mgrwt>
<rscale>  0 0.23391719E+04</rscale>
<asrwt>0</asrwt>
<pdfrwt beam="1">  1        1 0.24270957E+00 0.23391719E+04</pdfrwt>
<pdfrwt beam="2">  1       -1 0.13339842E+00 0.23391719E+04</pdfrwt>
<totfact> 0.24735990E+00</totfact>
</mgrwt>
</event>
<event>
 6    1  0.9562506E-007  0.2608914E+04  0.7818608E-02  0.8365179E-01
         -1   -1    0    0    0  501 -0.00000000000E+00  0.00000000000E+00  0.11082173396E+04  0.11082173396E+04  0.00000000000E+00 0.  1.
          1   -1    0    0  501    0  0.00000000000E+00 -0.00000000000E+00 -0.15354465939E+04  0.15354465939E+04  0.00000000000E+00 0. -1.
         23    2    1    2    0    0  0.13139658768E+03  0.11533325384E+04 -0.81337221070E+03  0.14203293962E+04  0.91215313377E+02 0.  0.
         13    1    3    3    0    0  0.13067539000E+03  0.87909132233E+03 -0.65041175507E+03  0.11013233230E+04  0.00000000000E+00 0.  1.
        -13    1    3    3    0    0  0.72119768506E+00  0.27424121602E+03 -0.16296045562E+03  0.31900607328E+03  0.00000000000E+00 0. -1.
         22    1    1    2    0    0 -0.13139658768E+03 -0.11533325384E+04  0.38614295645E+03  0.12233345373E+04  0.00000000000E+00 0.  1.
<mgrwt>
<rscale>  0 0.26089144E+04</rscale>
<asrwt>0</asrwt>
<pdfrwt beam="1">  1        1 0.23622255E+00 0.26089144E+04</pdfrwt>
<pdfrwt beam="2">  1       -1 0.17049498E+00 0.26089144E+04</pdfrwt>
<totfact> 0.13276349E+00</totfact>
</mgrwt>
</event>
<event>
 6    1  0.9562506E-007  0.2479394E+04  0.7818608E-02  0.8410364E-01
          2   -1    0    0  501    0  0.00000000000E+00  0.00000000000E+00  0.26035929093E+04  0.26035929093E+04  0.00000000000E+00 0. -1.
         -2   -1    0    0    0  501 -0.00000000000E+00 -0.00000000000E+00 -0.59027986928E+03  0.59027986928E+03  0.00000000000E+00 0.  1.
         23    2    1    2    0    0  0.91103980959E+03  0.74228209567E+03  0.50544641314E+03  0.12821620241E+04  0.86528234478E+02 0.  0.
         13    1    3    3    0    0  0.37723598690E+03  0.31206613777E+03  0.16454718241E+03  0.51649592389E+03  0.00000000000E+00 0. -1.
        -13    1    3    3    0    0  0.53380382269E+03  0.43021595790E+03  0.34089923073E+03  0.76566610024E+03  0.00000000000E+00 0.  1.
         22    1    1    2    0    0 -0.91103980959E+03 -0.74228209567E+03  0.15078666269E+04  0.19117107544E+04  0.00000000000E+00 0. -1.
<mgrwt>
<rscale>  0 0.24793939E+04</rscale>
<asrwt>0</asrwt>
<pdfrwt beam="1">  1        2 0.40055275E+00 0.24793939E+04</pdfrwt>
<pdfrwt beam="2">  1       -2 0.90812289E-01 0.24793939E+04</pdfrwt>
<totfact> 0.28001487E+00</totfact>
</mgrwt>
</event>
<event>
 6    1  0.9562506E-007  0.2261602E+04  0.7818608E-02  0.8493216E-01
          2   -1    0    0  501    0  0.00000000000E+00  0.00000000000E+00  0.17594495101E+04  0.17594495101E+04  0.00000000000E+00 0. -1.
         -2   -1    0    0    0  501 -0.00000000000E+00 -0.00000000000E+00 -0.72676786857E+03  0.72676786857E+03  0.00000000000E+00 0.  1.
         23    2    1    2    0    0 -0.80206334848E+03 -0.29296626785E+03  0.13290339855E+04  0.15823592256E+04  0.91621695832E+02 0.  0.
         11    1    3    3    0    0 -0.62867998443E+03 -0.22615460308E+03  0.96602587961E+03  0.11745596738E+04  0.00000000000E+00 0. -1.
        -11    1    3    3    0    0 -0.17338336405E+03 -0.66811664770E+02  0.36300810587E+03  0.40779955175E+03  0.00000000000E+00 0.  1.
         22    1    1    2    0    0  0.80206334848E+03  0.29296626785E+03 -0.29635234398E+03  0.90385815306E+03  0.00000000000E+00 0.  1.
<mgrwt>
<rscale>  0 0.22616024E+04</rscale>
<asrwt>0</asrwt>
<pdfrwt beam="1">  1        2 0.27068454E+00 0.22616024E+04</pdfrwt>
<pdfrwt beam="2">  1       -2 0.11181044E+00 0.22616024E+04</pdfrwt>
<totfact> 0.52197363E+00</totfact>
</mgrwt>
</event>
<event>
 6    1  0.9562506E-007  0.1173675E+04  0.7818608E-02  0.9136216E-01
         -2   -1    0    0    0  501 -0.00000000000E+00  0.00000000000E+00  0.30746572397E+03  0.30746572397E+03  0.00000000000E+00 0.  1.
          2   -1    0    0  501    0  0.00000000000E+00 -0.00000000000E+00 -0.11200545805E+04  0.11200545805E+04  0.00000000000E+00 0. -1.
         23    2    1    2    0    0  0.20902587640E+03 -0.29364633126E+03 -0.96655470219E+03  0.10355694575E+04  0.90863215960E+02 0.  0.
         11    1    3    3    0    0  0.12798850776E+03 -0.24382906511E+03 -0.75345949650E+03  0.80220626025E+03  0.00000000000E+00 0. -1.
        -11    1    3    3    0    0  0.81037368639E+02 -0.49817266158E+02 -0.21309520569E+03  0.23336319721E+03  0.00000000000E+00 0.  1.
         22    1    1    2    0    0 -0.20902587640E+03  0.29364633126E+03  0.15396584564E+03  0.39195084704E+03  0.00000000000E+00 0.  1.
<mgrwt>
<rscale>  0 0.11736752E+04</rscale>
<asrwt>0</asrwt>
<pdfrwt beam="1">  1        2 0.17231609E+00 0.11736752E+04</pdfrwt>
<pdfrwt beam="2">  1       -2 0.47302419E-01 0.11736752E+04</pdfrwt>
<totfact> 0.88621958E+01</totfact>
</mgrwt>
</event>
<event>
 6    1  0.9562506E-007  0.4734856E+04  0.7818608E-02  0.7870763E-01
          2   -1    0    0  501    0  0.00000000000E+00  0.00000000000E+00  0.47521025816E+04  0.47521025816E+04  0.00000000000E+00 0. -1.
         -2   -1    0    0    0  501 -0.00000000000E+00 -0.00000000000E+00 -0.11794180234E+04  0.11794180234E+04  0.00000000000E+00 0.  1.
         23    2    1    2    0    0 -0.22403410258E+04 -0.73539243843E+03  0.15403796440E+04  0.28186130872E+04  0.10899695984E+03 0.  0.
         11    1    3    3    0    0 -0.91119710172E+03 -0.24518292292E+03  0.59789214213E+03  0.11170809449E+04  0.00000000000E+00 0. -1.
        -11    1    3    3    0    0 -0.13291439241E+04 -0.49020951551E+03  0.94248750188E+03  0.17015321423E+04  0.00000000000E+00 0.  1.
         22    1    1    2    0    0  0.22403410258E+04  0.73539243843E+03  0.20323049141E+04  0.31129075178E+04  0.00000000000E+00 0. -1.
<mgrwt>
<rscale>  0 0.47348560E+04</rscale>
<asrwt>0</asrwt>
<pdfrwt beam="1">  1        2 0.73109269E+00 0.47348560E+04</pdfrwt>
<pdfrwt beam="2">  1       -2 0.18144893E+00 0.47348560E+04</pdfrwt>
<totfact> 0.87615851E-03</totfact>
</mgrwt>
</event>
<event>
 6    1  0.9562506E-007  0.2538609E+04  0.7818608E-02  0.8389359E-01
          1   -1    0    0  501    0  0.00000000000E+00  0.00000000000E+00  0.30202009263E+04  0.30202009263E+04  0.00000000000E+00 0. -1.
         -1   -1    0    0    0  501 -0.00000000000E+00 -0.00000000000E+00 -0.53345243731E+03  0.53345243731E+03  0.00000000000E+00 0.  1.
         23    2    1    2    0    0 -0.32305621475E+03 -0.12256999579E+04  0.12669284505E+04  0.17944869044E+04  0.91486867021E+02 0.  0.
         13    1    3    3    0    0 -0.15809243774E+02 -0.63642815739E+02  0.39597489346E+02  0.76604838923E+02  0.00000000000E+00 0. -1.
        -13    1    3    3    0    0 -0.30724697098E+03 -0.11620571422E+04  0.12273309611E+04  0.17178820655E+04  0.00000000000E+00 0.  1.
         22    1    1    2    0    0  0.32305621475E+03  0.12256999579E+04  0.12198200385E+04  0.17591664592E+04  0.00000000000E+00 0. -1.
<mgrwt>
<rscale>  0 0.25386087E+04</rscale>
<asrwt>0</asrwt>
<pdfrwt beam="1">  1        1 0.46464629E+00 0.25386087E+04</pdfrwt>
<pdfrwt beam="2">  1       -1 0.82069607E-01 0.25386087E+04</pdfrwt>
<totfact> 0.75545236E-01</totfact>
</mgrwt>
</event>
<event>
 6    1  0.9562506E-007  0.4709075E+03  0.7818608E-02  0.1021664E+00
          2   -1    0    0  501    0  0.00000000000E+00  0.00000000000E+00  0.19935755082E+04  0.19935755082E+04  0.00000000000E+00 0. -1.
         -2   -1    0    0    0  501 -0.00000000000E+00 -0.00000000000E+00 -0.27808567905E+02  0.27808567905E+02  0.00000000000E+00 0.  1.
         23    2    1    2    0    0  0.41051256928E+02  0.22248116427E+03  0.11155242137E+04  0.11415569521E+04  0.87034069206E+02 0.  0.
         11    1    3    3    0    0  0.10937238106E+02  0.20132506748E+03  0.85529696295E+03  0.87874017822E+03  0.00000000000E+00 0. -1.
        -11    1    3    3    0    0  0.30114018822E+02  0.21156096787E+02  0.26022725079E+03  0.26281677385E+03  0.00000000000E+00 0.  1.
         22    1    1    2    0    0 -0.41051256928E+02 -0.22248116427E+03  0.85024272657E+03  0.87982712407E+03  0.00000000000E+00 0.  1.
<mgrwt>
<rscale>  0 0.47090755E+03</rscale>
<asrwt>0</asrwt>
<pdfrwt beam="1">  1        2 0.30670381E+00 0.47090755E+03</pdfrwt>
<pdfrwt beam="2">  1       -2 0.42782428E-02 0.47090755E+03</pdfrwt>
<totfact> 0.18361435E+03</totfact>
</mgrwt>
</event>
<event>
 6    1  0.9562506E-007  0.2865535E+04  0.7818608E-02  0.8283206E-01
          2   -1    0    0  501    0  0.00000000000E+00  0.00000000000E+00  0.11167812576E+04  0.11167812576E+04  0.00000000000E+00 0. -1.
         -2   -1    0    0    0  501 -0.00000000000E+00 -0.00000000000E+00 -0.18381602253E+04  0.18381602253E+04  0.00000000000E+00 0.  1.
         23    2    1    2    0    0 -0.13539384958E+04 -0.46145976847E+03 -0.41324641094E+03  0.14917120953E+04  0.91311613336E+02 0.  0.
         11    1    3    3    0    0 -0.96738261858E+03 -0.29454402893E+03 -0.26567991327E+03  0.10455482447E+04  0.00000000000E+00 0. -1.
        -11    1    3    3    0    0 -0.38655587723E+03 -0.16691573954E+03 -0.14756649767E+03  0.44616385058E+03  0.00000000000E+00 0.  1.
         22    1    1    2    0    0  0.13539384958E+04  0.46145976847E+03 -0.30813255672E+03  0.14632293876E+04  0.00000000000E+00 0. -1.
<mgrwt>
<rscale>  0 0.28655351E+04</rscale>
<asrwt>0</asrwt>
<pdfrwt beam="1">  1        2 0.17181250E+00 0.28655351E+04</pdfrwt>
<pdfrwt beam="2">  1       -2 0.28279388E+00 0.28655351E+04</pdfrwt>
<totfact> 0.74552808E-01</totfact>
</mgrwt>
</event>
<event>
 6    1  0.9562506E-007  0.2110185E+04  0.7818608E-02  0.8556770E-01
          1   -1    0    0  501    0  0.00000000000E+00  0.00000000000E+00  0.25602640239E+04  0.25602640239E+04  0.00000000000E+00 0. -1.
         -1   -1    0    0    0  501 -0.00000000000E+00 -0.00000000000E+00 -0.43480697422E+03  0.43480697422E+03  0.00000000000E+00 0.  1.
         23    2    1    2    0    0  0.16063460315E+03 -0.19715945315E+03  0.25152374774E+04  0.25296635341E+04  0.90015010875E+02 0.  0.
         13    1    3    3    0    0  0.30052513905E+02 -0.50735768342E+02  0.10061055124E+04  0.10078321159E+04  0.00000000000E+00 0.  1.
        -13    1    3    3    0    0  0.13058208925E+03 -0.14642368481E+03  0.15091319650E+04  0.15218314182E+04  0.00000000000E+00 0. -1.
         22    1    1    2    0    0 -0.16063460315E+03  0.19715945315E+03 -0.38978042775E+03  0.46540746401E+03  0.00000000000E+00 0.  1.
<mgrwt>
<rscale>  0 0.21101854E+04</rscale>
<asrwt>0</asrwt>
<pdfrwt beam="1">  1        1 0.39388676E+00 0.21101854E+04</pdfrwt>
<pdfrwt beam="2">  1       -1 0.66893382E-01 0.21101854E+04</pdfrwt>
<totfact> 0.25596470E+00</totfact>
</mgrwt>
</event>
<event>
 6    1  0.9562506E-007  0.2733876E+04  0.7818608E-02  0.8324096E-01
          3   -1    0    0  501    0  0.00000000000E+00  0.00000000000E+00  0.16011985776E+04  0.16011985776E+04  0.00000000000E+00 0. -1.
         -3   -1    0    0    0  501 -0.00000000000E+00 -0.00000000000E+00 -0.11669504029E+04  0.11669504029E+04  0.00000000000E+00 0.  1.
         23    2    1    2    0    0  0.12416239713E+04  0.38974297891E+03  0.63589154082E+03  0.14512626061E+04  0.90969359854E+02 0.  0.
         11    1    3    3    0    0  0.84342807601E+03  0.25738432017E+03  0.47699767523E+03  0.10025688953E+04  0.00000000000E+00 0. -1.
        -11    1    3    3    0    0  0.39819589531E+03  0.13235865875E+03  0.15889386559E+03  0.44869371080E+03  0.00000000000E+00 0.  1.
         22    1    1    2    0    0 -0.12416239713E+04 -0.38974297891E+03 -0.20164336613E+03  0.13168863743E+04  0.00000000000E+00 0. -1.
<mgrwt>
<rscale>  0 0.27338759E+04</rscale>
<asrwt>0</asrwt>
<pdfrwt beam="1">  1        3 0.24633824E+00 0.27338759E+04</pdfrwt>
<pdfrwt beam="2">  1       -3 0.17953083E+00 0.27338759E+04</pdfrwt>
<totfact> 0.35121048E-02</totfact>
</mgrwt>
</event>
<event>
 6    1  0.9562506E-007  0.2943027E+04  0.7818608E-02  0.8260190E-01
         -1   -1    0    0    0  501 -0.00000000000E+00  0.00000000000E+00  0.22527281697E+04  0.22527281697E+04  0.00000000000E+00 0.  1.
          1   -1    0    0  501    0  0.00000000000E+00 -0.00000000000E+00 -0.96121289646E+03  0.96121289646E+03  0.00000000000E+00 0. -1.
         23    2    1    2    0    0  0.11108628930E+04  0.11511026185E+03  0.16903312564E+04  0.20280570382E+04  0.92351798531E+02 0.  0.
         11    1    3    3    0    0  0.85127733637E+03  0.10876609697E+03  0.12353096488E+04  0.15041586006E+04  0.00000000000E+00 0. -1.
        -11    1    3    3    0    0  0.25958555660E+03  0.63441648840E+01  0.45502160753E+03  0.52389843762E+03  0.00000000000E+00 0.  1.
         22    1    1    2    0    0 -0.11108628930E+04 -0.11511026185E+03 -0.39881598310E+03  0.11858840280E+04  0.00000000000E+00 0. -1.
<mgrwt>
<rscale>  0 0.29430266E+04</rscale>
<asrwt>0</asrwt>
<pdfrwt beam="1">  1        1 0.14787891E+00 0.29430266E+04</pdfrwt>
<pdfrwt beam="2">  1       -1 0.34657356E+00 0.29430266E+04</pdfrwt>
<totfact> 0.22727731E-01</totfact>
</mgrwt>
</event>
<event>
 6    1  0.9562506E-007  0.2132968E+04  0.7818608E-02  0.8546858E-01
         -2   -1    0    0    0  501 -0.00000000000E+00  0.00000000000E+00  0.15747689904E+04  0.15747689904E+04  0.00000000000E+00 0.  1.
          2   -1    0    0  501    0  0.00000000000E+00 -0.00000000000E+00 -0.72225734227E+03  0.72225734227E+03  0.00000000000E+00 0. -1.
         23    2    1    2    0    0  0.19363019836E+03  0.15935494199E+03  0.15414316111E+04  0.15638842136E+04  0.82678718000E+02 0.  0.
         11    1    3    3    0    0  0.36460635048E+02  0.19001198614E+02  0.11838410805E+03  0.12532047118E+03  0.00000000000E+00 0. -1.
        -11    1    3    3    0    0  0.15716956331E+03  0.14035374338E+03  0.14230475031E+04  0.14385637424E+04  0.00000000000E+00 0.  1.
         22    1    1    2    0    0 -0.19363019836E+03 -0.15935494199E+03 -0.68891996304E+03  0.73314211905E+03  0.00000000000E+00 0. -1.
<mgrwt>
<rscale>  0 0.21329683E+04</rscale>
<asrwt>0</asrwt>
<pdfrwt beam="1">  1        2 0.11111651E+00 0.21329683E+04</pdfrwt>
<pdfrwt beam="2">  1       -2 0.24227215E+00 0.21329683E+04</pdfrwt>
<totfact> 0.25941640E+00</totfact>
</mgrwt>
</event>
<event>
 6    1  0.9562506E-007  0.1904627E+04  0.7818608E-02  0.8652557E-01
          2   -1    0    0  501    0  0.00000000000E+00  0.00000000000E+00  0.24568020114E+04  0.24568020114E+04  0.00000000000E+00 0. -1.
         -2   -1    0    0    0  501 -0.00000000000E+00 -0.00000000000E+00 -0.36913868256E+03  0.36913868256E+03  0.00000000000E+00 0.  1.
         23    2    1    2    0    0  0.83293750244E+03 -0.45513419490E+03  0.98546649806E+03  0.13713720733E+04  0.92655957130E+02 0.  0.
         11    1    3    3    0    0  0.26053245670E+03 -0.18601405675E+03  0.36190637963E+03  0.48317141670E+03  0.00000000000E+00 0.  1.
        -11    1    3    3    0    0  0.57240504574E+03 -0.26912013815E+03  0.62356011843E+03  0.88820065663E+03  0.00000000000E+00 0. -1.
         22    1    1    2    0    0 -0.83293750244E+03  0.45513419490E+03  0.11021968308E+04  0.14545686206E+04  0.00000000000E+00 0.  1.
<mgrwt>
<rscale>  0 0.19046266E+04</rscale>
<asrwt>0</asrwt>
<pdfrwt beam="1">  1        2 0.37796953E+00 0.19046266E+04</pdfrwt>
<pdfrwt beam="2">  1       -2 0.56790568E-01 0.19046266E+04</pdfrwt>
<totfact> 0.10045026E+01</totfact>
</mgrwt>
</event>
<event>
 6    1  0.9562506E-007  0.3327453E+04  0.7818608E-02  0.8155945E-01
         -1   -1    0    0    0  501 -0.00000000000E+00  0.00000000000E+00  0.85896248576E+03  0.85896248576E+03  0.00000000000E+00 0.  1.
          1   -1    0    0  501    0  0.00000000000E+00 -0.00000000000E+00 -0.32224761860E+04  0.32224761860E+04  0.00000000000E+00 0. -1.
         23    2    1    2    0    0  0.11935897644E+04 -0.45439939039E+03  0.12280277778E+03  0.12862812593E+04  0.91124222901E+02 0.  0.
         13    1    3    3    0    0  0.54260463015E+03 -0.25228288422E+03  0.73034803105E+02  0.60282710689E+03  0.00000000000E+00 0. -1.
        -13    1    3    3    0    0  0.65098513428E+03 -0.20211650617E+03  0.49767974677E+02  0.68345415239E+03  0.00000000000E+00 0.  1.
         22    1    1    2    0    0 -0.11935897644E+04  0.45439939039E+03 -0.24863164780E+04  0.27951574125E+04  0.00000000000E+00 0. -1.
<mgrwt>
<rscale>  0 0.33274532E+04</rscale>
<asrwt>0</asrwt>
<pdfrwt beam="1">  1        1 0.49576557E+00 0.33274532E+04</pdfrwt>
<pdfrwt beam="2">  1       -1 0.13214807E+00 0.33274532E+04</pdfrwt>
<totfact> 0.16445311E-01</totfact>
</mgrwt>
</event>
<event>
 6    1  0.9562506E-007  0.2742782E+04  0.7818608E-02  0.8321256E-01
          2   -1    0    0  501    0  0.00000000000E+00  0.00000000000E+00  0.54376981140E+03  0.54376981140E+03  0.00000000000E+00 0. -1.
         -2   -1    0    0    0  501 -0.00000000000E+00 -0.00000000000E+00 -0.34586582178E+04  0.34586582178E+04  0.00000000000E+00 0.  1.
         23    2    1    2    0    0  0.34005214315E+03 -0.13185231292E+04 -0.16772790497E+04  0.21623694372E+04  0.91857879901E+02 0.  0.
         13    1    3    3    0    0  0.29202525294E+03 -0.10943877683E+04 -0.13402141523E+04  0.17547470786E+04  0.00000000000E+00 0.  1.
        -13    1    3    3    0    0  0.48026890204E+02 -0.22413536085E+03 -0.33706489741E+03  0.40762235860E+03  0.00000000000E+00 0. -1.
         22    1    1    2    0    0 -0.34005214315E+03  0.13185231292E+04 -0.12376093566E+04  0.18400585920E+04  0.00000000000E+00 0. -1.
<mgrwt>
<rscale>  0 0.27427825E+04</rscale>
<asrwt>0</asrwt>
<pdfrwt beam="1">  1        2 0.83656893E-01 0.27427825E+04</pdfrwt>
<pdfrwt beam="2">  1       -2 0.53210127E+00 0.27427825E+04</pdfrwt>
<totfact> 0.51591271E-02</totfact>
</mgrwt>
</event>
<event>
 6    1  0.9562506E-007  0.3129573E+04  0.7818608E-02  0.8207668E-01
         -2   -1    0    0    0  501 -0.00000000000E+00  0.00000000000E+00  0.11881765462E+04  0.11881765462E+04  0.00000000000E+00 0.  1.
          2   -1    0    0  501    0  0.00000000000E+00 -0.00000000000E+00 -0.20607682391E+04  0.20607682391E+04  0.00000000000E+00 0. -1.
         23    2    1    2    0    0  0.12896414950E+04 -0.61791092942E+02  0.47836670680E+03  0.13802334853E+04  0.96002306155E+02 0.  0.
         13    1    3    3    0    0  0.78387557335E+03  0.46462715949E+01  0.31167366251E+03  0.84357748561E+03  0.00000000000E+00 0. -1.
        -13    1    3    3    0    0  0.50576592170E+03 -0.66437364537E+02  0.16669304429E+03  0.53665599966E+03  0.00000000000E+00 0.  1.
         22    1    1    2    0    0 -0.12896414950E+04  0.61791092942E+02 -0.13509583997E+04  0.18687113000E+04  0.00000000000E+00 0. -1.
<mgrwt>
<rscale>  0 0.31295728E+04</rscale>
<asrwt>0</asrwt>
<pdfrwt beam="1">  1        2 0.31704126E+00 0.31295728E+04</pdfrwt>
<pdfrwt beam="2">  1       -2 0.18279639E+00 0.31295728E+04</pdfrwt>
<totfact> 0.90799603E-01</totfact>
</mgrwt>
</event>
<event>
 6    1  0.9562506E-007  0.2896549E+04  0.7818608E-02  0.8273905E-01
          2   -1    0    0  501    0  0.00000000000E+00  0.00000000000E+00  0.19008301061E+04  0.19008301061E+04  0.00000000000E+00 0. -1.
         -2   -1    0    0    0  501 -0.00000000000E+00 -0.00000000000E+00 -0.11034651126E+04  0.11034651126E+04  0.00000000000E+00 0.  1.
         23    2    1    2    0    0 -0.65167756832E+03 -0.62181406228E+03  0.15733836474E+04  0.18153707752E+04  0.93266117020E+02 0.  0.
         13    1    3    3    0    0 -0.40632349470E+03 -0.40457684224E+03  0.10856642626E+04  0.12277817781E+04  0.00000000000E+00 0.  1.
        -13    1    3    3    0    0 -0.24535407362E+03 -0.21723722005E+03  0.48771938479E+03  0.58758899710E+03  0.00000000000E+00 0. -1.
         22    1    1    2    0    0  0.65167756832E+03  0.62181406228E+03 -0.77601865386E+03  0.11889244435E+04  0.00000000000E+00 0.  1.
<mgrwt>
<rscale>  0 0.28965495E+04</rscale>
<asrwt>0</asrwt>
<pdfrwt beam="1">  1        2 0.29243540E+00 0.28965495E+04</pdfrwt>
<pdfrwt beam="2">  1       -2 0.16976386E+00 0.28965495E+04</pdfrwt>
<totfact> 0.14012883E+00</totfact>
</mgrwt>
</event>
<event>
 6    1  0.9562506E-007  0.2342705E+04  0.7818608E-02  0.8461271E-01
          1   -1    0    0  501    0  0.00000000000E+00  0.00000000000E+00  0.14846282641E+04  0.14846282641E+04  0.00000000000E+00 0. -1.
         -1   -1    0    0    0  501 -0.00000000000E+00 -0.00000000000E+00 -0.92418165329E+03  0.92418165329E+03  0.00000000000E+00 0.  1.
         23    2    1    2    0    0  0.10613015790E+04 -0.65796963339E+02  0.78137212514E+03  0.13227627891E+04  0.92025628253E+02 0.  0.
         13    1    3    3    0    0  0.65996897179E+03 -0.70671625609E+02  0.52776108673E+03  0.84798896636E+03  0.00000000000E+00 0. -1.
        -13    1    3    3    0    0  0.40133260720E+03  0.48746622708E+01  0.25361103841E+03  0.47477382271E+03  0.00000000000E+00 0.  1.
         22    1    1    2    0    0 -0.10613015790E+04  0.65796963339E+02 -0.22092551438E+03  0.10860471283E+04  0.00000000000E+00 0.  1.
<mgrwt>
<rscale>  0 0.23427046E+04</rscale>
<asrwt>0</asrwt>
<pdfrwt beam="1">  1        1 0.22840435E+00 0.23427046E+04</pdfrwt>
<pdfrwt beam="2">  1       -1 0.14218179E+00 0.23427046E+04</pdfrwt>
<totfact> 0.24300978E+00</totfact>
</mgrwt>
</event>
<event>
 6    1  0.9562506E-007  0.2465852E+04  0.7818608E-02  0.8415253E-01
          1   -1    0    0  501    0  0.00000000000E+00  0.00000000000E+00  0.10107430828E+04  0.10107430828E+04  0.00000000000E+00 0. -1.
         -1   -1    0    0    0  501 -0.00000000000E+00 -0.00000000000E+00 -0.15039495474E+04  0.15039495474E+04  0.00000000000E+00 0.  1.
         23    2    1    2    0    0  0.67568053933E+03  0.84881524344E+03 -0.84057362179E+03  0.13755282651E+04  0.92100411335E+02 0.  0.
         13    1    3    3    0    0  0.48364353801E+03  0.66350328700E+03 -0.65783003916E+03  0.10520874698E+04  0.00000000000E+00 0. -1.
        -13    1    3    3    0    0  0.19203700131E+03  0.18531195643E+03 -0.18274358263E+03  0.32344079530E+03  0.00000000000E+00 0.  1.
         22    1    1    2    0    0 -0.67568053933E+03 -0.84881524344E+03  0.34736715726E+03  0.11391643651E+04  0.00000000000E+00 0. -1.
<mgrwt>
<rscale>  0 0.24658521E+04</rscale>
<asrwt>0</asrwt>
<pdfrwt beam="1">  1        1 0.15549894E+00 0.24658521E+04</pdfrwt>
<pdfrwt beam="2">  1       -1 0.23137685E+00 0.24658521E+04</pdfrwt>
<totfact> 0.12222333E+00</totfact>
</mgrwt>
</event>
<event>
 6    1  0.9562506E-007  0.8842041E+03  0.7818608E-02  0.9445545E-01
         -2   -1    0    0    0  501 -0.00000000000E+00  0.00000000000E+00  0.20051304671E+03  0.20051304671E+03  0.00000000000E+00 0.  1.
          2   -1    0    0  501    0  0.00000000000E+00 -0.00000000000E+00 -0.97477059222E+03  0.97477059222E+03  0.00000000000E+00 0. -1.
         23    2    1    2    0    0 -0.14221668328E+03  0.45936282117E+01 -0.94089513631E+03  0.95616090371E+03  0.93345218644E+02 0.  0.
         13    1    3    3    0    0 -0.33019622511E+02  0.42765944429E+02 -0.33358519402E+03  0.33793239434E+03  0.00000000000E+00 0. -1.
        -13    1    3    3    0    0 -0.10919706077E+03 -0.38172316217E+02 -0.60730994229E+03  0.61822850938E+03  0.00000000000E+00 0.  1.
         22    1    1    2    0    0  0.14221668328E+03 -0.45936282117E+01  0.16663759079E+03  0.21912273521E+03  0.00000000000E+00 0.  1.
<mgrwt>
<rscale>  0 0.88420410E+03</rscale>
<asrwt>0</asrwt>
<pdfrwt beam="1">  1        2 0.14996471E+00 0.88420410E+03</pdfrwt>
<pdfrwt beam="2">  1       -2 0.30848161E-01 0.88420410E+03</pdfrwt>
<totfact> 0.25500283E+02</totfact>
</mgrwt>
</event>
<event>
 6    1  0.9562506E-007  0.2219075E+04  0.7818608E-02  0.8510531E-01
         -2   -1    0    0    0  501 -0.00000000000E+00  0.00000000000E+00  0.29458308434E+03  0.29458308434E+03  0.00000000000E+00 0.  1.
          2   -1    0    0  501    0  0.00000000000E+00 -0.00000000000E+00 -0.41790349971E+04  0.41790349971E+04  0.00000000000E+00 0. -1.
         23    2    1    2    0    0 -0.37979924099E+03  0.90723634252E+03 -0.91888091209E+03  0.13492082804E+04  0.93250247787E+02 0.  0.
         13    1    3    3    0    0 -0.18752412510E+03  0.43115312593E+03 -0.50239778048E+03  0.68808563807E+03  0.00000000000E+00 0.  1.
        -13    1    3    3    0    0 -0.19227511589E+03  0.47608321659E+03 -0.41648313161E+03  0.66112264235E+03  0.00000000000E+00 0. -1.
         22    1    1    2    0    0  0.37979924099E+03 -0.90723634252E+03 -0.29655710006E+04  0.31244098010E+04  0.00000000000E+00 0. -1.
<mgrwt>
<rscale>  0 0.22190746E+04</rscale>
<asrwt>0</asrwt>
<pdfrwt beam="1">  1        2 0.64292842E+00 0.22190746E+04</pdfrwt>
<pdfrwt beam="2">  1       -2 0.45320478E-01 0.22190746E+04</pdfrwt>
<totfact> 0.10301224E+00</totfact>
</mgrwt>
</event>
<event>
 6    1  0.9562506E-007  0.3653189E+04  0.7818608E-02  0.8078416E-01
         -1   -1    0    0    0  501 -0.00000000000E+00  0.00000000000E+00  0.15709848079E+04  0.15709848079E+04  0.00000000000E+00 0.  1.
          1   -1    0    0  501    0  0.00000000000E+00 -0.00000000000E+00 -0.21237932366E+04  0.21237932366E+04  0.00000000000E+00 0. -1.
         23    2    1    2    0    0  0.10184082321E+04 -0.10098242941E+04 -0.14187949407E+04  0.20194174651E+04  0.90373571797E+02 0.  0.
         13    1    3    3    0    0  0.25966379189E+03 -0.22369601218E+03 -0.38207480025E+03  0.51327024429E+03  0.00000000000E+00 0.  1.
        -13    1    3    3    0    0  0.75874444020E+03 -0.78612828192E+03 -0.10367201405E+04  0.15061472208E+04  0.00000000000E+00 0. -1.
         22    1    1    2    0    0 -0.10184082321E+04  0.10098242941E+04  0.86598651196E+03  0.16753605794E+04  0.00000000000E+00 0.  1.
<mgrwt>
<rscale>  0 0.36531887E+04</rscale>
<asrwt>0</asrwt>
<pdfrwt beam="1">  1        1 0.32673742E+00 0.36531887E+04</pdfrwt>
<pdfrwt beam="2">  1       -1 0.24168997E+00 0.36531887E+04</pdfrwt>
<totfact> 0.15629664E-01</totfact>
</mgrwt>
</event>
<event>
 6    1  0.9562506E-007  0.2305063E+04  0.7818608E-02  0.8475927E-01
          2   -1    0    0  501    0  0.00000000000E+00  0.00000000000E+00  0.14130612109E+04  0.14130612109E+04  0.00000000000E+00 0. -1.
         -2   -1    0    0    0  501 -0.00000000000E+00 -0.00000000000E+00 -0.94003647999E+03  0.94003647999E+03  0.00000000000E+00 0.  1.
         23    2    1    2    0    0  0.34194243417E+03  0.10755714803E+04  0.46613108187E+03  0.12244586167E+04  0.90785907257E+02 0.  0.
         13    1    3    3    0    0  0.19111051405E+03  0.45401060074E+03  0.19608151266E+03  0.53018564086E+03  0.00000000000E+00 0.  1.
        -13    1    3    3    0    0  0.15083192011E+03  0.62156087956E+03  0.27004956921E+03  0.69427297582E+03  0.00000000000E+00 0. -1.
         22    1    1    2    0    0 -0.34194243417E+03 -0.10755714803E+04  0.68936490796E+01  0.11286390743E+04  0.00000000000E+00 0.  1.
<mgrwt>
<rscale>  0 0.23050632E+04</rscale>
<asrwt>0</asrwt>
<pdfrwt beam="1">  1        2 0.21739403E+00 0.23050632E+04</pdfrwt>
<pdfrwt beam="2">  1       -2 0.14462100E+00 0.23050632E+04</pdfrwt>
<totfact> 0.42536155E+00</totfact>
</mgrwt>
</event>
<event>
 6    1  0.9562506E-007  0.3013238E+03  0.7818608E-02  0.1084581E+00
          2   -1    0    0  501    0  0.00000000000E+00  0.00000000000E+00  0.62507793394E+03  0.62507793394E+03  0.00000000000E+00 0. -1.
         -2   -1    0    0    0  501 -0.00000000000E+00 -0.00000000000E+00 -0.36313887081E+02  0.36313887081E+02  0.00000000000E+00 0.  1.
         23    2    1    2    0    0  0.31537344183E+02  0.10621551190E+03  0.12846926348E+03  0.18794950494E+03  0.80897006769E+02 0.  0.
         11    1    3    3    0    0  0.23283538153E+02 -0.25497386851E+01  0.64740341565E+01  0.24300976000E+02  0.00000000000E+00 0.  1.
        -11    1    3    3    0    0  0.82538060304E+01  0.10876525058E+03  0.12199522932E+03  0.16364852894E+03  0.00000000000E+00 0. -1.
         22    1    1    2    0    0 -0.31537344183E+02 -0.10621551190E+03  0.46029478338E+03  0.47344231608E+03  0.00000000000E+00 0. -1.
<mgrwt>
<rscale>  0 0.30132381E+03</rscale>
<asrwt>0</asrwt>
<pdfrwt beam="1">  1        2 0.96165828E-01 0.30132381E+03</pdfrwt>
<pdfrwt beam="2">  1       -2 0.55867523E-02 0.30132381E+03</pdfrwt>
<totfact> 0.79383670E+03</totfact>
</mgrwt>
</event>
<event>
 6    1  0.9562506E-007  0.1610517E+04  0.7818608E-02  0.8814113E-01
          2   -1    0    0  501    0  0.00000000000E+00  0.00000000000E+00  0.61657515799E+03  0.61657515799E+03  0.00000000000E+00 0. -1.
         -2   -1    0    0    0  501 -0.00000000000E+00 -0.00000000000E+00 -0.10516829680E+04  0.10516829680E+04  0.00000000000E+00 0.  1.
         23    2    1    2    0    0 -0.10010661492E+03  0.79582810745E+03 -0.25057009595E+03  0.84520413085E+03  0.90669393258E+02 0.  0.
         11    1    3    3    0    0 -0.41132313535E+02  0.51803883558E+03 -0.12379494525E+03  0.53421090485E+03  0.00000000000E+00 0. -1.
        -11    1    3    3    0    0 -0.58974301383E+02  0.27778927187E+03 -0.12677515070E+03  0.31099322601E+03  0.00000000000E+00 0.  1.
         22    1    1    2    0    0  0.10010661492E+03 -0.79582810745E+03 -0.18453771403E+03  0.82305399510E+03  0.00000000000E+00 0.  1.
<mgrwt>
<rscale>  0 0.16105174E+04</rscale>
<asrwt>0</asrwt>
<pdfrwt beam="1">  1        2 0.94857717E-01 0.16105174E+04</pdfrwt>
<pdfrwt beam="2">  1       -2 0.16179738E+00 0.16105174E+04</pdfrwt>
<totfact> 0.11222782E+01</totfact>
</mgrwt>
</event>
<event>
 6    1  0.9562506E-007  0.4033208E+04  0.7818608E-02  0.7997881E-01
         -2   -1    0    0    0  501 -0.00000000000E+00  0.00000000000E+00  0.98774940811E+03  0.98774940811E+03  0.00000000000E+00 0.  1.
          2   -1    0    0  501    0  0.00000000000E+00 -0.00000000000E+00 -0.41171294597E+04  0.41171294597E+04  0.00000000000E+00 0. -1.
         23    2    1    2    0    0 -0.14683714747E+04 -0.53363201463E+03 -0.31772963147E+04  0.35418133276E+04  0.91388519735E+02 0.  0.
         11    1    3    3    0    0 -0.11494188042E+04 -0.38057862612E+03 -0.24231901394E+04  0.27088473804E+04  0.00000000000E+00 0. -1.
        -11    1    3    3    0    0 -0.31895267045E+03 -0.15305338851E+03 -0.75410617526E+03  0.83296594725E+03  0.00000000000E+00 0.  1.
         22    1    1    2    0    0  0.14683714747E+04  0.53363201463E+03  0.47916263084E+02  0.15630655402E+04  0.00000000000E+00 0.  1.
<mgrwt>
<rscale>  0 0.40332082E+04</rscale>
<asrwt>0</asrwt>
<pdfrwt beam="1">  1        2 0.63340453E+00 0.40332082E+04</pdfrwt>
<pdfrwt beam="2">  1       -2 0.15196145E+00 0.40332082E+04</pdfrwt>
<totfact> 0.62073373E-02</totfact>
</mgrwt>
</event>
<event>
 6    1  0.9562506E-007  0.5833626E+04  0.7818608E-02  0.7711379E-01
          2   -1    0    0  501    0  0.00000000000E+00  0.00000000000E+00  0.45066498532E+04  0.45066498532E+04  0.00000000000E+00 0. -1.
         -2   -1    0    0    0  501 -0.00000000000E+00 -0.00000000000E+00 -0.18878321028E+04  0.18878321028E+04  0.00000000000E+00 0.  1.
         23    2    1    2    0    0  0.18367577236E+04  0.14733606397E+04 -0.57592375564E+03  0.24257486819E+04  0.89988808359E+02 0.  0.
         11    1    3    3    0    0  0.54272179393E+03  0.45748748147E+03 -0.13511241739E+03  0.72256287384E+03  0.00000000000E+00 0.  1.
        -11    1    3    3    0    0  0.12940359297E+04  0.10158731583E+04 -0.44081133825E+03  0.17031858081E+04  0.00000000000E+00 0. -1.
         22    1    1    2    0    0 -0.18367577236E+04 -0.14733606397E+04  0.31947415061E+04  0.39687332740E+04  0.00000000000E+00 0. -1.
<mgrwt>
<rscale>  0 0.58336261E+04</rscale>
<asrwt>0</asrwt>
<pdfrwt beam="1">  1        2 0.69333074E+00 0.58336261E+04</pdfrwt>
<pdfrwt beam="2">  1       -2 0.29043571E+00 0.58336261E+04</pdfrwt>
<totfact> 0.29713854E-03</totfact>
</mgrwt>
</event>
<event>
 6    1  0.9562506E-007  0.1867618E+04  0.7818608E-02  0.8671145E-01
          2   -1    0    0  501    0  0.00000000000E+00  0.00000000000E+00  0.13653419336E+04  0.13653419336E+04  0.00000000000E+00 0. -1.
         -2   -1    0    0    0  501 -0.00000000000E+00 -0.00000000000E+00 -0.63866763759E+03  0.63866763759E+03  0.00000000000E+00 0.  1.
         23    2    1    2    0    0 -0.51027228950E+03  0.53685181964E+03 -0.24170947858E+03  0.78484804763E+03  0.94738060745E+02 0.  0.
         13    1    3    3    0    0 -0.21581950612E+03  0.16596803701E+03 -0.10672777553E+03  0.29242822470E+03  0.00000000000E+00 0. -1.
        -13    1    3    3    0    0 -0.29445278337E+03  0.37088378263E+03 -0.13498170305E+03  0.49241982293E+03  0.00000000000E+00 0.  1.
         22    1    1    2    0    0  0.51027228950E+03 -0.53685181964E+03  0.96838377463E+03  0.12191615236E+04  0.00000000000E+00 0. -1.
<mgrwt>
<rscale>  0 0.18676185E+04</rscale>
<asrwt>0</asrwt>
<pdfrwt beam="1">  1        2 0.21005260E+00 0.18676185E+04</pdfrwt>
<pdfrwt beam="2">  1       -2 0.98256560E-01 0.18676185E+04</pdfrwt>
<totfact> 0.12250866E+01</totfact>
</mgrwt>
</event>
<event>
 6    1  0.9562506E-007  0.1778227E+04  0.7818608E-02  0.8717964E-01
          2   -1    0    0  501    0  0.00000000000E+00  0.00000000000E+00  0.89382568837E+03  0.89382568837E+03  0.00000000000E+00 0. -1.
         -2   -1    0    0    0  501 -0.00000000000E+00 -0.00000000000E+00 -0.88442646437E+03  0.88442646437E+03  0.00000000000E+00 0.  1.
         23    2    1    2    0    0 -0.71566737853E+03  0.50160718590E+02 -0.51658465796E+03  0.88867082511E+03  0.90444635968E+02 0.  0.
         11    1    3    3    0    0 -0.48342780083E+03  0.65072478275E+02 -0.31387566174E+03  0.58004723693E+03  0.00000000000E+00 0. -1.
        -11    1    3    3    0    0 -0.23223957770E+03 -0.14911759685E+02 -0.20270899622E+03  0.30862358817E+03  0.00000000000E+00 0.  1.
         22    1    1    2    0    0  0.71566737853E+03 -0.50160718590E+02  0.52598388196E+03  0.88958132763E+03  0.00000000000E+00 0. -1.
<mgrwt>
<rscale>  0 0.17782273E+04</rscale>
<asrwt>0</asrwt>
<pdfrwt beam="1">  1        2 0.13751164E+00 0.17782273E+04</pdfrwt>
<pdfrwt beam="2">  1       -2 0.13606561E+00 0.17782273E+04</pdfrwt>
<totfact> 0.10824063E+01</totfact>
</mgrwt>
</event>
<event>
 6    1  0.9562506E-007  0.2019687E+04  0.7818608E-02  0.8597471E-01
         -2   -1    0    0    0  501 -0.00000000000E+00  0.00000000000E+00  0.82794648763E+03  0.82794648763E+03  0.00000000000E+00 0.  1.
          2   -1    0    0  501    0  0.00000000000E+00 -0.00000000000E+00 -0.12317023443E+04  0.12317023443E+04  0.00000000000E+00 0. -1.
         23    2    1    2    0    0  0.90023576981E+03 -0.30022041724E+03 -0.54818920996E+03  0.10997437670E+04  0.91477882860E+02 0.  0.
         13    1    3    3    0    0  0.25429549731E+03 -0.12676144053E+03 -0.14875365709E+03  0.32072155097E+03  0.00000000000E+00 0.  1.
        -13    1    3    3    0    0  0.64594027249E+03 -0.17345897672E+03 -0.39943555287E+03  0.77902221607E+03  0.00000000000E+00 0. -1.
         22    1    1    2    0    0 -0.90023576981E+03  0.30022041724E+03  0.14443335325E+03  0.95990506494E+03  0.00000000000E+00 0.  1.
<mgrwt>
<rscale>  0 0.20196867E+04</rscale>
<asrwt>0</asrwt>
<pdfrwt beam="1">  1        2 0.18949267E+00 0.20196867E+04</pdfrwt>
<pdfrwt beam="2">  1       -2 0.12737638E+00 0.20196867E+04</pdfrwt>
<totfact> 0.76931966E+00</totfact>
</mgrwt>
</event>
<event>
 6    1  0.9562506E-007  0.2732657E+04  0.7818608E-02  0.8324486E-01
         -2   -1    0    0    0  501 -0.00000000000E+00  0.00000000000E+00  0.78562183723E+03  0.78562183723E+03  0.00000000000E+00 0.  1.
          2   -1    0    0  501    0  0.00000000000E+00 -0.00000000000E+00 -0.23762751125E+04  0.23762751125E+04  0.00000000000E+00 0. -1.
         23    2    1    2    0    0 -0.68621470011E+03 -0.86370764111E+03 -0.17260252403E+04  0.20504982486E+04  0.92186947878E+02 0.  0.
         11    1    3    3    0    0 -0.24458126485E+03 -0.32827956779E+03 -0.72084861924E+03  0.82898142416E+03  0.00000000000E+00 0.  1.
        -11    1    3    3    0    0 -0.44163343526E+03 -0.53542807332E+03 -0.10051766211E+04  0.12215168244E+04  0.00000000000E+00 0. -1.
         22    1    1    2    0    0  0.68621470011E+03  0.86370764111E+03  0.13537196505E+03  0.11113987011E+04  0.00000000000E+00 0.  1.
<mgrwt>
<rscale>  0 0.27326570E+04</rscale>
<asrwt>0</asrwt>
<pdfrwt beam="1">  1        2 0.36558078E+00 0.27326570E+04</pdfrwt>
<pdfrwt beam="2">  1       -2 0.12086490E+00 0.27326570E+04</pdfrwt>
<totfact> 0.18716473E+00</totfact>
</mgrwt>
</event>
<event>
 6    1  0.9562506E-007  0.1656546E+04  0.7818608E-02  0.8786543E-01
          2   -1    0    0  501    0  0.00000000000E+00  0.00000000000E+00  0.84499569384E+03  0.84499569384E+03  0.00000000000E+00 0. -1.
         -2   -1    0    0    0  501 -0.00000000000E+00 -0.00000000000E+00 -0.81188154868E+03  0.81188154868E+03  0.00000000000E+00 0.  1.
         23    2    1    2    0    0 -0.54282156928E+03 -0.23923534381E+03  0.59110431843E+03  0.84248063197E+03  0.92089598618E+02 0.  0.
         11    1    3    3    0    0 -0.34977938226E+03 -0.13395053865E+03  0.31417345010E+03  0.48886943022E+03  0.00000000000E+00 0.  1.
        -11    1    3    3    0    0 -0.19304218703E+03 -0.10528480516E+03  0.27693086833E+03  0.35361120175E+03  0.00000000000E+00 0. -1.
         22    1    1    2    0    0  0.54282156928E+03  0.23923534381E+03 -0.55799017327E+03  0.81439661055E+03  0.00000000000E+00 0.  1.
<mgrwt>
<rscale>  0 0.16565463E+04</rscale>
<asrwt>0</asrwt>
<pdfrwt beam="1">  1        2 0.12999934E+00 0.16565463E+04</pdfrwt>
<pdfrwt beam="2">  1       -2 0.12490485E+00 0.16565463E+04</pdfrwt>
<totfact> 0.14674314E+01</totfact>
</mgrwt>
</event>
<event>
 6    1  0.9562506E-007  0.2660833E+04  0.7818608E-02  0.8347826E-01
          1   -1    0    0  501    0  0.00000000000E+00  0.00000000000E+00  0.10520641589E+04  0.10520641589E+04  0.00000000000E+00 0. -1.
         -1   -1    0    0    0  501 -0.00000000000E+00 -0.00000000000E+00 -0.16824141566E+04  0.16824141566E+04  0.00000000000E+00 0.  1.
         23    2    1    2    0    0 -0.26997116156E+03 -0.24369667756E+03 -0.16294268939E+04  0.16712628418E+04  0.76256050546E+02 0.  0.
         13    1    3    3    0    0 -0.68809659565E+02 -0.51973364385E+02 -0.54586038164E+03  0.55262967356E+03  0.00000000000E+00 0. -1.
        -13    1    3    3    0    0 -0.20116150199E+03 -0.19172331317E+03 -0.10835665123E+04  0.11186331683E+04  0.00000000000E+00 0.  1.
         22    1    1    2    0    0  0.26997116156E+03  0.24369667756E+03  0.99907689627E+03  0.10632154736E+04  0.00000000000E+00 0. -1.
<mgrwt>
<rscale>  0 0.26608327E+04</rscale>
<asrwt>0</asrwt>
<pdfrwt beam="1">  1        1 0.16185603E+00 0.26608327E+04</pdfrwt>
<pdfrwt beam="2">  1       -1 0.25883295E+00 0.26608327E+04</pdfrwt>
<totfact> 0.73759034E-01</totfact>
</mgrwt>
</event>
<event>
 6    1  0.9562506E-007  0.3558314E+04  0.7818608E-02  0.8100108E-01
          2   -1    0    0  501    0  0.00000000000E+00  0.00000000000E+00  0.25121640090E+04  0.25121640090E+04  0.00000000000E+00 0. -1.
         -2   -1    0    0    0  501 -0.00000000000E+00 -0.00000000000E+00 -0.12600289529E+04  0.12600289529E+04  0.00000000000E+00 0.  1.
         23    2    1    2    0    0  0.42556379169E+03  0.60548285836E+03  0.23402697648E+04  0.24562327890E+04  0.92211220759E+02 0.  0.
         11    1    3    3    0    0  0.12048626518E+03  0.19229554855E+03  0.85798322106E+03  0.88748505661E+03  0.00000000000E+00 0.  1.
        -11    1    3    3    0    0  0.30507752651E+03  0.41318730980E+03  0.14822865437E+04  0.15687477324E+04  0.00000000000E+00 0. -1.
         22    1    1    2    0    0 -0.42556379169E+03 -0.60548285836E+03 -0.10881347087E+04  0.13159601729E+04  0.00000000000E+00 0.  1.
<mgrwt>
<rscale>  0 0.35583139E+04</rscale>
<asrwt>0</asrwt>
<pdfrwt beam="1">  1        2 0.38648677E+00 0.35583139E+04</pdfrwt>
<pdfrwt beam="2">  1       -2 0.19385061E+00 0.35583139E+04</pdfrwt>
<totfact> 0.40909578E-01</totfact>
</mgrwt>
</event>
<event>
 6    1  0.9562506E-007  0.1130407E+04  0.7818608E-02  0.9176051E-01
         -2   -1    0    0    0  501 -0.00000000000E+00  0.00000000000E+00  0.12766937984E+03  0.12766937984E+03  0.00000000000E+00 0.  1.
          2   -1    0    0  501    0  0.00000000000E+00 -0.00000000000E+00 -0.25022060640E+04  0.25022060640E+04  0.00000000000E+00 0. -1.
         23    2    1    2    0    0 -0.13570028689E+03 -0.36569084014E+03 -0.25243050214E+03  0.47221953843E+03  0.84414309454E+02 0.  0.
         11    1    3    3    0    0 -0.76670321782E+02 -0.22803339772E+03 -0.20212665997E+03  0.31421768790E+03  0.00000000000E+00 0.  1.
        -11    1    3    3    0    0 -0.59029965110E+02 -0.13765744242E+03 -0.50303842169E+02  0.15800185053E+03  0.00000000000E+00 0. -1.
         22    1    1    2    0    0  0.13570028689E+03  0.36569084014E+03 -0.21221061820E+04  0.21576559054E+04  0.00000000000E+00 0. -1.
<mgrwt>
<rscale>  0 0.11304072E+04</rscale>
<asrwt>0</asrwt>
<pdfrwt beam="1">  1        2 0.38495477E+00 0.11304072E+04</pdfrwt>
<pdfrwt beam="2">  1       -2 0.19641443E-01 0.11304072E+04</pdfrwt>
<totfact> 0.76511686E+01</totfact>
</mgrwt>
</event>
<event>
 6    1  0.9562506E-007  0.1272541E+04  0.7818608E-02  0.9051628E-01
         -1   -1    0    0    0  501 -0.00000000000E+00  0.00000000000E+00  0.32221994438E+03  0.32221994438E+03  0.00000000000E+00 0.  1.
          1   -1    0    0  501    0  0.00000000000E+00 -0.00000000000E+00 -0.12564095792E+04  0.12564095792E+04  0.00000000000E+00 0. -1.
         23    2    1    2    0    0 -0.33924686727E+03  0.56722401128E+02 -0.11286547995E+04  0.11835060390E+04  0.92298538516E+02 0.  0.
         11    1    3    3    0    0 -0.17348492205E+03  0.34645884268E+01 -0.69191733294E+03  0.71334326742E+03  0.00000000000E+00 0.  1.
        -11    1    3    3    0    0 -0.16576194522E+03  0.53257812701E+02 -0.43673746655E+03  0.47016277159E+03  0.00000000000E+00 0. -1.
         22    1    1    2    0    0  0.33924686727E+03 -0.56722401128E+02  0.19446516471E+03  0.39512348453E+03  0.00000000000E+00 0.  1.
<mgrwt>
<rscale>  0 0.12725411E+04</rscale>
<asrwt>0</asrwt>
<pdfrwt beam="1">  1        1 0.19329378E+00 0.12725411E+04</pdfrwt>
<pdfrwt beam="2">  1       -1 0.49572299E-01 0.12725411E+04</pdfrwt>
<totfact> 0.39045722E+01</totfact>
</mgrwt>
</event>
<event>
 6    1  0.9562506E-007  0.2567888E+04  0.7818608E-02  0.8379191E-01
         -2   -1    0    0    0  501 -0.00000000000E+00  0.00000000000E+00  0.14641185565E+04  0.14641185565E+04  0.00000000000E+00 0.  1.
          2   -1    0    0  501    0  0.00000000000E+00 -0.00000000000E+00 -0.11259417953E+04  0.11259417953E+04  0.00000000000E+00 0. -1.
         23    2    1    2    0    0  0.38350457681E+03  0.74173275271E+03 -0.81239546522E+03  0.11684205644E+04  0.89313977130E+02 0.  0.
         13    1    3    3    0    0  0.26181259819E+03  0.43563362137E+03 -0.45197900420E+03  0.68015256294E+03  0.00000000000E+00 0. -1.
        -13    1    3    3    0    0  0.12169197862E+03  0.30609913134E+03 -0.36041646102E+03  0.48826800145E+03  0.00000000000E+00 0.  1.
         22    1    1    2    0    0 -0.38350457681E+03 -0.74173275271E+03  0.11505722264E+04  0.14216397874E+04  0.00000000000E+00 0.  1.
<mgrwt>
<rscale>  0 0.25678881E+04</rscale>
<asrwt>0</asrwt>
<pdfrwt beam="1">  1        2 0.17322181E+00 0.25678881E+04</pdfrwt>
<pdfrwt beam="2">  1       -2 0.22524901E+00 0.25678881E+04</pdfrwt>
<totfact> 0.17054235E+00</totfact>
</mgrwt>
</event>
<event>
 6    1  0.9562506E-007  0.1742355E+04  0.7818608E-02  0.8737570E-01
          1   -1    0    0  501    0  0.00000000000E+00  0.00000000000E+00  0.54022614227E+03  0.54022614227E+03  0.00000000000E+00 0. -1.
         -1   -1    0    0    0  501 -0.00000000000E+00 -0.00000000000E+00 -0.14048745059E+04  0.14048745059E+04  0.00000000000E+00 0.  1.
         23    2    1    2    0    0  0.16782303436E+03  0.45675527824E+03  0.37017717839E+03  0.61785384584E+03  0.89007170257E+02 0.  0.
         11    1    3    3    0    0  0.11632995257E+03  0.32546947165E+03  0.20994107633E+03  0.40439867751E+03  0.00000000000E+00 0.  1.
        -11    1    3    3    0    0  0.51493081791E+02  0.13128580660E+03  0.16023610206E+03  0.21345516833E+03  0.00000000000E+00 0. -1.
         22    1    1    2    0    0 -0.16782303436E+03 -0.45675527824E+03 -0.12348255420E+04  0.13272468023E+04  0.00000000000E+00 0.  1.
<mgrwt>
<rscale>  0 0.17423547E+04</rscale>
<asrwt>0</asrwt>
<pdfrwt beam="1">  1        1 0.83111714E-01 0.17423547E+04</pdfrwt>
<pdfrwt beam="2">  1       -1 0.21613454E+00 0.17423547E+04</pdfrwt>
<totfact> 0.44070694E+00</totfact>
</mgrwt>
</event>
<event>
 6    1  0.9562506E-007  0.3320943E+04  0.7818608E-02  0.8157587E-01
         -1   -1    0    0    0  501 -0.00000000000E+00  0.00000000000E+00  0.89115918976E+03  0.89115918976E+03  0.00000000000E+00 0.  1.
          1   -1    0    0  501    0  0.00000000000E+00 -0.00000000000E+00 -0.30939083995E+04  0.30939083995E+04  0.00000000000E+00 0. -1.
         23    2    1    2    0    0  0.56699727934E+03 -0.15297442560E+04 -0.73980168539E+03  0.17937623019E+04  0.93130329312E+02 0.  0.
         11    1    3    3    0    0  0.30794442612E+03 -0.69831210806E+03 -0.35228611519E+03  0.84058020248E+03  0.00000000000E+00 0. -1.
        -11    1    3    3    0    0  0.25905285323E+03 -0.83143214796E+03 -0.38751557020E+03  0.95318209937E+03  0.00000000000E+00 0.  1.
         22    1    1    2    0    0 -0.56699727934E+03  0.15297442560E+04 -0.14629475243E+04  0.21913052874E+04  0.00000000000E+00 0. -1.
<mgrwt>
<rscale>  0 0.33209426E+04</rscale>
<asrwt>0</asrwt>
<pdfrwt beam="1">  1        1 0.47598590E+00 0.33209426E+04</pdfrwt>
<pdfrwt beam="2">  1       -1 0.13710142E+00 0.33209426E+04</pdfrwt>
<totfact> 0.18676281E-01</totfact>
</mgrwt>
</event>
<event>
 6    1  0.9562506E-007  0.3046493E+04  0.7818608E-02  0.8230578E-01
         -3   -1    0    0    0  501 -0.00000000000E+00  0.00000000000E+00  0.15890991207E+04  0.15890991207E+04  0.00000000000E+00 0.  1.
          3   -1    0    0  501    0  0.00000000000E+00 -0.00000000000E+00 -0.14601226044E+04  0.14601226044E+04  0.00000000000E+00 0. -1.
         23    2    1    2    0    0  0.10380490653E+04 -0.49888888998E+02  0.11773628023E+04  0.15730277785E+04  0.90545349164E+02 0.  0.
         13    1    3    3    0    0  0.58744430110E+03 -0.65316594054E+02  0.62954239884E+03  0.86352805182E+03  0.00000000000E+00 0. -1.
        -13    1    3    3    0    0  0.45060476425E+03  0.15427705056E+02  0.54782040351E+03  0.70949972667E+03  0.00000000000E+00 0.  1.
         22    1    1    2    0    0 -0.10380490653E+04  0.49888888998E+02 -0.10483862860E+04  0.14761939466E+04  0.00000000000E+00 0. -1.
<mgrwt>
<rscale>  0 0.30464928E+04</rscale>
<asrwt>0</asrwt>
<pdfrwt beam="1">  1        3 0.22463425E+00 0.30464928E+04</pdfrwt>
<pdfrwt beam="2">  1       -3 0.24447679E+00 0.30464928E+04</pdfrwt>
<totfact> 0.18107794E-02</totfact>
</mgrwt>
</event>
<event>
 6    1  0.9562506E-007  0.1364910E+04  0.7818608E-02  0.8979618E-01
          2   -1    0    0  501    0  0.00000000000E+00  0.00000000000E+00  0.29211296913E+04  0.29211296913E+04  0.00000000000E+00 0. -1.
         -2   -1    0    0    0  501 -0.00000000000E+00 -0.00000000000E+00 -0.15943989883E+03  0.15943989883E+03  0.00000000000E+00 0.  1.
         23    2    1    2    0    0 -0.14187798477E+03  0.58307774588E+03  0.21063464039E+04  0.21919842103E+04  0.89390069984E+02 0.  0.
         13    1    3    3    0    0 -0.33272058080E+02  0.25584789787E+03  0.10267401189E+04  0.10586597416E+04  0.00000000000E+00 0.  1.
        -13    1    3    3    0    0 -0.10860592669E+03  0.32722984801E+03  0.10796062850E+04  0.11333244687E+04  0.00000000000E+00 0. -1.
         22    1    1    2    0    0  0.14187798477E+03 -0.58307774588E+03  0.65534338855E+03  0.88858537981E+03  0.00000000000E+00 0.  1.
<mgrwt>
<rscale>  0 0.13649097E+04</rscale>
<asrwt>0</asrwt>
<pdfrwt beam="1">  1        2 0.44940453E+00 0.13649097E+04</pdfrwt>
<pdfrwt beam="2">  1       -2 0.24529217E-01 0.13649097E+04</pdfrwt>
<totfact> 0.28498079E+01</totfact>
</mgrwt>
</event>
<event>
 6    1  0.9562506E-007  0.1734949E+04  0.7818608E-02  0.8741679E-01
         -2   -1    0    0    0  501 -0.00000000000E+00  0.00000000000E+00  0.62465198027E+03  0.62465198027E+03  0.00000000000E+00 0.  1.
          2   -1    0    0  501    0  0.00000000000E+00 -0.00000000000E+00 -0.12046896422E+04  0.12046896422E+04  0.00000000000E+00 0. -1.
         23    2    1    2    0    0  0.34465290823E+03 -0.69927640319E+03  0.10465820915E+03  0.79175714347E+03  0.90293511861E+02 0.  0.
         11    1    3    3    0    0  0.20945995852E+03 -0.51703982599E+03  0.70546019975E+02  0.56229920577E+03  0.00000000000E+00 0.  1.
        -11    1    3    3    0    0  0.13519294971E+03 -0.18223657720E+03  0.34112189172E+02  0.22945793769E+03  0.00000000000E+00 0. -1.
         22    1    1    2    0    0 -0.34465290823E+03  0.69927640319E+03 -0.68469587109E+03  0.10375844790E+04  0.00000000000E+00 0. -1.
<mgrwt>
<rscale>  0 0.17349487E+04</rscale>
<asrwt>0</asrwt>
<pdfrwt beam="1">  1        2 0.18533687E+00 0.17349487E+04</pdfrwt>
<pdfrwt beam="2">  1       -2 0.96100306E-01 0.17349487E+04</pdfrwt>
<totfact> 0.16203664E+01</totfact>
</mgrwt>
</event>
<event>
 6    1  0.9562506E-007  0.4593138E+04  0.7818608E-02  0.7894531E-01
          2   -1    0    0  501    0  0.00000000000E+00  0.00000000000E+00  0.21461695442E+04  0.21461695442E+04  0.00000000000E+00 0. -1.
         -2   -1    0    0    0  501 -0.00000000000E+00 -0.00000000000E+00 -0.24575078955E+04  0.24575078955E+04  0.00000000000E+00 0.  1.
         23    2    1    2    0    0  0.29445307808E+03  0.22034841514E+04 -0.72979248214E+03  0.23415658421E+04  0.91041229580E+02 0.  0.
         13    1    3    3    0    0  0.26609331678E+03  0.21226335412E+04 -0.70055278524E+03  0.22510337644E+04  0.00000000000E+00 0. -1.
        -13    1    3    3    0    0  0.28359761307E+02  0.80850610159E+02 -0.29239696894E+02  0.90532077734E+02  0.00000000000E+00 0.  1.
         22    1    1    2    0    0 -0.29445307808E+03 -0.22034841514E+04  0.41845413079E+03  0.22621115976E+04  0.00000000000E+00 0. -1.
<mgrwt>
<rscale>  0 0.45931378E+04</rscale>
<asrwt>0</asrwt>
<pdfrwt beam="1">  1        2 0.33017993E+00 0.45931378E+04</pdfrwt>
<pdfrwt beam="2">  1       -2 0.37807814E+00 0.45931378E+04</pdfrwt>
<totfact> 0.42895634E-02</totfact>
</mgrwt>
</event>
<event>
 6    1  0.9562506E-007  0.2296878E+04  0.7818608E-02  0.8479153E-01
         -1   -1    0    0    0  501 -0.00000000000E+00  0.00000000000E+00  0.22553571703E+04  0.22553571703E+04  0.00000000000E+00 0.  1.
          1   -1    0    0  501    0  0.00000000000E+00 -0.00000000000E+00 -0.58479063073E+03  0.58479063073E+03  0.00000000000E+00 0. -1.
         23    2    1    2    0    0 -0.82418625873E+03 -0.25905248409E+03  0.17688559783E+04  0.19706352983E+04  0.90337303524E+02 0.  0.
         13    1    3    3    0    0 -0.43074907252E+03 -0.10332664420E+03  0.82920095971E+03  0.94010392535E+03  0.00000000000E+00 0. -1.
        -13    1    3    3    0    0 -0.39343718621E+03 -0.15572583988E+03  0.93965501858E+03  0.10305313730E+04  0.00000000000E+00 0.  1.
         22    1    1    2    0    0  0.82418625873E+03  0.25905248409E+03 -0.98289438731E+02  0.86951250271E+03  0.00000000000E+00 0. -1.
<mgrwt>
<rscale>  0 0.22968777E+04</rscale>
<asrwt>0</asrwt>
<pdfrwt beam="1">  1        1 0.89967790E-01 0.22968777E+04</pdfrwt>
<pdfrwt beam="2">  1       -1 0.34697802E+00 0.22968777E+04</pdfrwt>
<totfact> 0.52319388E-01</totfact>
</mgrwt>
</event>
<event>
 6    1  0.9562506E-007  0.3628745E+04  0.7818608E-02  0.8083939E-01
         -1   -1    0    0    0  501 -0.00000000000E+00  0.00000000000E+00  0.11129364358E+04  0.11129364358E+04  0.00000000000E+00 0.  1.
          1   -1    0    0  501    0  0.00000000000E+00 -0.00000000000E+00 -0.29578939841E+04  0.29578939841E+04  0.00000000000E+00 0. -1.
         23    2    1    2    0    0 -0.10897983790E+04 -0.12466417054E+04 -0.17519972081E+04  0.24123920961E+04  0.91462340398E+02 0.  0.
         13    1    3    3    0    0 -0.10176753402E+04 -0.11558739741E+04 -0.16603224051E+04  0.22645922880E+04  0.00000000000E+00 0. -1.
        -13    1    3    3    0    0 -0.72123038852E+02 -0.90767731312E+02 -0.91674803035E+02  0.14779980816E+03  0.00000000000E+00 0.  1.
         22    1    1    2    0    0  0.10897983790E+04  0.12466417054E+04 -0.92960340206E+02  0.16584383237E+04  0.00000000000E+00 0.  1.
<mgrwt>
<rscale>  0 0.36287452E+04</rscale>
<asrwt>0</asrwt>
<pdfrwt beam="1">  1        1 0.45506061E+00 0.36287452E+04</pdfrwt>
<pdfrwt beam="2">  1       -1 0.17122099E+00 0.36287452E+04</pdfrwt>
<totfact> 0.12471501E-01</totfact>
</mgrwt>
</event>
<event>
 6    1  0.9562506E-007  0.4540080E+04  0.7818608E-02  0.7903657E-01
         -2   -1    0    0    0  501 -0.00000000000E+00  0.00000000000E+00  0.10434134001E+04  0.10434134001E+04  0.00000000000E+00 0.  1.
          2   -1    0    0  501    0  0.00000000000E+00 -0.00000000000E+00 -0.49386759854E+04  0.49386759854E+04  0.00000000000E+00 0. -1.
         23    2    1    2    0    0 -0.10775335690E+04  0.94477339797E+03 -0.42665485658E+04  0.45017081355E+04  0.90907135802E+02 0.  0.
         13    1    3    3    0    0 -0.20347043839E+03  0.19390989292E+03 -0.94848743578E+03  0.98925713629E+03  0.00000000000E+00 0.  1.
        -13    1    3    3    0    0 -0.87406313063E+03  0.75086350505E+03 -0.33180611300E+04  0.35124509992E+04  0.00000000000E+00 0. -1.
         22    1    1    2    0    0  0.10775335690E+04 -0.94477339797E+03  0.37128598054E+03  0.14803812500E+04  0.00000000000E+00 0.  1.
<mgrwt>
<rscale>  0 0.45400796E+04</rscale>
<asrwt>0</asrwt>
<pdfrwt beam="1">  1        2 0.75979629E+00 0.45400796E+04</pdfrwt>
<pdfrwt beam="2">  1       -2 0.16052514E+00 0.45400796E+04</pdfrwt>
<totfact> 0.76052082E-03</totfact>
</mgrwt>
</event>
<event>
 6    1  0.9562506E-007  0.1579719E+04  0.7818608E-02  0.8833105E-01
          1   -1    0    0  501    0  0.00000000000E+00  0.00000000000E+00  0.81928905502E+03  0.81928905502E+03  0.00000000000E+00 0. -1.
         -1   -1    0    0    0  501 -0.00000000000E+00 -0.00000000000E+00 -0.76148680470E+03  0.76148680470E+03  0.00000000000E+00 0.  1.
         23    2    1    2    0    0 -0.15149809119E+03  0.58096754605E+02  0.79976003306E+03  0.82128375581E+03  0.92541842153E+02 0.  0.
         13    1    3    3    0    0 -0.30608622600E+02  0.51314363187E+02  0.36998803304E+03  0.37478153135E+03  0.00000000000E+00 0. -1.
        -13    1    3    3    0    0 -0.12088946859E+03  0.67823914177E+01  0.42977200002E+03  0.44650222446E+03  0.00000000000E+00 0.  1.
         22    1    1    2    0    0  0.15149809119E+03 -0.58096754605E+02 -0.74195778274E+03  0.75949210391E+03  0.00000000000E+00 0.  1.
<mgrwt>
<rscale>  0 0.15797187E+04</rscale>
<asrwt>0</asrwt>
<pdfrwt beam="1">  1        1 0.12604447E+00 0.15797187E+04</pdfrwt>
<pdfrwt beam="2">  1       -1 0.11715182E+00 0.15797187E+04</pdfrwt>
<totfact> 0.13425036E+01</totfact>
</mgrwt>
</event>
<event>
 6    1  0.9562506E-007  0.2218496E+04  0.7818608E-02  0.8510769E-01
          2   -1    0    0  501    0  0.00000000000E+00  0.00000000000E+00  0.71530535193E+03  0.71530535193E+03  0.00000000000E+00 0. -1.
         -2   -1    0    0    0  501 -0.00000000000E+00 -0.00000000000E+00 -0.17201478833E+04  0.17201478833E+04  0.00000000000E+00 0.  1.
         23    2    1    2    0    0  0.10382993525E+04 -0.24069226530E+03 -0.17339138894E+03  0.10836731813E+04  0.91020207910E+02 0.  0.
         11    1    3    3    0    0  0.51039332257E+03 -0.76206278845E+02 -0.10360814829E+03  0.52634911328E+03  0.00000000000E+00 0. -1.
        -11    1    3    3    0    0  0.52790602988E+03 -0.16448598645E+03 -0.69783240653E+02  0.55732406803E+03  0.00000000000E+00 0.  1.
         22    1    1    2    0    0 -0.10382993525E+04  0.24069226530E+03 -0.83145114239E+03  0.13517800539E+04  0.00000000000E+00 0.  1.
<mgrwt>
<rscale>  0 0.22184959E+04</rscale>
<asrwt>0</asrwt>
<pdfrwt beam="1">  1        2 0.11004698E+00 0.22184959E+04</pdfrwt>
<pdfrwt beam="2">  1       -2 0.26463813E+00 0.22184959E+04</pdfrwt>
<totfact> 0.19012640E+00</totfact>
</mgrwt>
</event>
<event>
 6    1  0.9562506E-007  0.3550670E+04  0.7818608E-02  0.8101886E-01
          2   -1    0    0  501    0  0.00000000000E+00  0.00000000000E+00  0.12610880504E+04  0.12610880504E+04  0.00000000000E+00 0. -1.
         -2   -1    0    0    0  501 -0.00000000000E+00 -0.00000000000E+00 -0.24992811458E+04  0.24992811458E+04  0.00000000000E+00 0.  1.
         23    2    1    2    0    0  0.16478300035E+04  0.36806756531E+03 -0.11961273582E+04  0.20714088712E+04  0.95898912414E+02 0.  0.
         11    1    3    3    0    0  0.15655220583E+03  0.80387674747E+01 -0.12193041592E+03  0.19859567281E+03  0.00000000000E+00 0. -1.
        -11    1    3    3    0    0  0.14912777977E+04  0.36002879784E+03 -0.10741969423E+04  0.18728131984E+04  0.00000000000E+00 0.  1.
         22    1    1    2    0    0 -0.16478300035E+04 -0.36806756531E+03 -0.42065737171E+02  0.16889603250E+04  0.00000000000E+00 0. -1.
<mgrwt>
<rscale>  0 0.35506696E+04</rscale>
<asrwt>0</asrwt>
<pdfrwt beam="1">  1        2 0.19401355E+00 0.35506696E+04</pdfrwt>
<pdfrwt beam="2">  1       -2 0.38450479E+00 0.35506696E+04</pdfrwt>
<totfact> 0.13339802E-01</totfact>
</mgrwt>
</event>
<event>
 6    1  0.9562506E-007  0.1785508E+04  0.7818608E-02  0.8714044E-01
          2   -1    0    0  501    0  0.00000000000E+00  0.00000000000E+00  0.68426445549E+03  0.68426445549E+03  0.00000000000E+00 0. -1.
         -2   -1    0    0    0  501 -0.00000000000E+00 -0.00000000000E+00 -0.11647690987E+04  0.11647690987E+04  0.00000000000E+00 0.  1.
         23    2    1    2    0    0  0.23568065156E+03  0.52897211087E+03 -0.94149629343E+03  0.11088510326E+04  0.88195682294E+02 0.  0.
         13    1    3    3    0    0  0.11265704920E+03  0.29792493610E+03 -0.59140606278E+03  0.67172316424E+03  0.00000000000E+00 0. -1.
        -13    1    3    3    0    0  0.12302360235E+03  0.23104717477E+03 -0.35009023064E+03  0.43712786836E+03  0.00000000000E+00 0.  1.
         22    1    1    2    0    0 -0.23568065156E+03 -0.52897211087E+03  0.46099165026E+03  0.74018252155E+03  0.00000000000E+00 0.  1.
<mgrwt>
<rscale>  0 0.17855084E+04</rscale>
<asrwt>0</asrwt>
<pdfrwt beam="1">  1        2 0.10527146E+00 0.17855084E+04</pdfrwt>
<pdfrwt beam="2">  1       -2 0.17919524E+00 0.17855084E+04</pdfrwt>
<totfact> 0.73146441E+00</totfact>
</mgrwt>
</event>
<event>
 6    1  0.9562506E-007  0.1057028E+04  0.7818608E-02  0.9248118E-01
          1   -1    0    0  501    0  0.00000000000E+00  0.00000000000E+00  0.48239630864E+03  0.48239630864E+03  0.00000000000E+00 0. -1.
         -1   -1    0    0    0  501 -0.00000000000E+00 -0.00000000000E+00 -0.57904044306E+03  0.57904044306E+03  0.00000000000E+00 0.  1.
         23    2    1    2    0    0 -0.41760969067E+03  0.28862897449E+03  0.83942949762E+02  0.52262673544E+03  0.91584644591E+02 0.  0.
         13    1    3    3    0    0 -0.12170020379E+03  0.13378222207E+03  0.13928579540E+02  0.18139081530E+03  0.00000000000E+00 0. -1.
        -13    1    3    3    0    0 -0.29590948688E+03  0.15484675242E+03  0.70014370222E+02  0.34123592014E+03  0.00000000000E+00 0.  1.
         22    1    1    2    0    0  0.41760969067E+03 -0.28862897449E+03 -0.18058708417E+03  0.53881001626E+03  0.00000000000E+00 0. -1.
<mgrwt>
<rscale>  0 0.10570279E+04</rscale>
<asrwt>0</asrwt>
<pdfrwt beam="1">  1        1 0.74214817E-01 0.10570279E+04</pdfrwt>
<pdfrwt beam="2">  1       -1 0.89083145E-01 0.10570279E+04</pdfrwt>
<totfact> 0.57526263E+01</totfact>
</mgrwt>
</event>
<event>
 6    1  0.9562506E-007  0.2475920E+04  0.7818608E-02  0.8411615E-01
          2   -1    0    0  501    0  0.00000000000E+00  0.00000000000E+00  0.78942985110E+03  0.78942985110E+03  0.00000000000E+00 0. -1.
         -2   -1    0    0    0  501 -0.00000000000E+00 -0.00000000000E+00 -0.19413318332E+04  0.19413318332E+04  0.00000000000E+00 0.  1.
         23    2    1    2    0    0  0.10366081585E+04 -0.66570614510E+03 -0.46308936709E+03  0.13193142129E+04  0.91744671255E+02 0.  0.
         11    1    3    3    0    0  0.62656125682E+03 -0.45231166999E+03 -0.30502422446E+03  0.83078555167E+03  0.00000000000E+00 0. -1.
        -11    1    3    3    0    0  0.41004690163E+03 -0.21339447511E+03 -0.15806514262E+03  0.48852866125E+03  0.00000000000E+00 0.  1.
         22    1    1    2    0    0 -0.10366081585E+04  0.66570614510E+03 -0.68881261497E+03  0.14114474713E+04  0.00000000000E+00 0. -1.
<mgrwt>
<rscale>  0 0.24759203E+04</rscale>
<asrwt>0</asrwt>
<pdfrwt beam="1">  1        2 0.12145075E+00 0.24759203E+04</pdfrwt>
<pdfrwt beam="2">  1       -2 0.29866643E+00 0.24759203E+04</pdfrwt>
<totfact> 0.10149306E+00</totfact>
</mgrwt>
</event>
<event>
 6    1  0.9562506E-007  0.7595949E+03  0.7818608E-02  0.9620417E-01
         -2   -1    0    0    0  501 -0.00000000000E+00  0.00000000000E+00  0.90701885494E+02  0.90701885494E+02  0.00000000000E+00 0.  1.
          2   -1    0    0  501    0  0.00000000000E+00 -0.00000000000E+00 -0.15903319466E+04  0.15903319466E+04  0.00000000000E+00 0. -1.
         23    2    1    2    0    0  0.70317425978E+02  0.23893280261E+03 -0.13790069153E+04  0.14042968308E+04  0.91411663028E+02 0.  0.
         11    1    3    3    0    0  0.15807613157E+02  0.12902384142E+03 -0.49353828070E+03  0.51036953946E+03  0.00000000000E+00 0.  1.
        -11    1    3    3    0    0  0.54509812821E+02  0.10990896119E+03 -0.88546863455E+03  0.89392729135E+03  0.00000000000E+00 0. -1.
         22    1    1    2    0    0 -0.70317425978E+02 -0.23893280261E+03 -0.12062314583E+03  0.27673700126E+03  0.00000000000E+00 0.  1.
<mgrwt>
<rscale>  0 0.75959491E+03</rscale>
<asrwt>0</asrwt>
<pdfrwt beam="1">  1        2 0.24466643E+00 0.75959491E+03</pdfrwt>
<pdfrwt beam="2">  1       -2 0.13954138E-01 0.75959491E+03</pdfrwt>
<totfact> 0.45298989E+02</totfact>
</mgrwt>
</event>
<event>
 6    1  0.9562506E-007  0.1830409E+04  0.7818608E-02  0.8690294E-01
          2   -1    0    0  501    0  0.00000000000E+00  0.00000000000E+00  0.15899649358E+04  0.15899649358E+04  0.00000000000E+00 0. -1.
         -2   -1    0    0    0  501 -0.00000000000E+00 -0.00000000000E+00 -0.52680341773E+03  0.52680341773E+03  0.00000000000E+00 0.  1.
         23    2    1    2    0    0 -0.41376278684E+03 -0.20004120232E+03 -0.37924091594E+03  0.60291865557E+03  0.92038614222E+02 0.  0.
         11    1    3    3    0    0 -0.29898517012E+03 -0.97513187154E+02 -0.24406806597E+03  0.39808312505E+03  0.00000000000E+00 0. -1.
        -11    1    3    3    0    0 -0.11477761671E+03 -0.10252801517E+03 -0.13517284997E+03  0.20483553051E+03  0.00000000000E+00 0.  1.
         22    1    1    2    0    0  0.41376278684E+03  0.20004120232E+03  0.14424024341E+04  0.15138496980E+04  0.00000000000E+00 0. -1.
<mgrwt>
<rscale>  0 0.18304087E+04</rscale>
<asrwt>0</asrwt>
<pdfrwt beam="1">  1        2 0.24460999E+00 0.18304087E+04</pdfrwt>
<pdfrwt beam="2">  1       -2 0.81046680E-01 0.18304087E+04</pdfrwt>
<totfact> 0.14281671E+01</totfact>
</mgrwt>
</event>
<event>
 6    1  0.9562506E-007  0.1435475E+04  0.7818608E-02  0.8928533E-01
          1   -1    0    0  501    0  0.00000000000E+00  0.00000000000E+00  0.16067432972E+04  0.16067432972E+04  0.00000000000E+00 0. -1.
         -1   -1    0    0    0  501 -0.00000000000E+00 -0.00000000000E+00 -0.32061567060E+03  0.32061567060E+03  0.00000000000E+00 0.  1.
         23    2    1    2    0    0  0.38695477027E+03  0.49511449983E+03  0.18705769455E+03  0.66133089634E+03  0.86577197806E+02 0.  0.
         11    1    3    3    0    0  0.55592935324E+02  0.52800736237E+02 -0.34518211014E+01  0.76748988750E+02  0.00000000000E+00 0. -1.
        -11    1    3    3    0    0  0.33136183495E+03  0.44231376360E+03  0.19050951565E+03  0.58458190759E+03  0.00000000000E+00 0.  1.
         22    1    1    2    0    0 -0.38695477027E+03 -0.49511449983E+03  0.10990699321E+04  0.12660280715E+04  0.00000000000E+00 0. -1.
<mgrwt>
<rscale>  0 0.14354749E+04</rscale>
<asrwt>0</asrwt>
<pdfrwt beam="1">  1        1 0.24719127E+00 0.14354749E+04</pdfrwt>
<pdfrwt beam="2">  1       -1 0.49325489E-01 0.14354749E+04</pdfrwt>
<totfact> 0.22112151E+01</totfact>
</mgrwt>
</event>
<event>
 6    1  0.9562506E-007  0.5927505E+03  0.7818608E-02  0.9920562E-01
         -1   -1    0    0    0  501 -0.00000000000E+00  0.00000000000E+00  0.19301129587E+03  0.19301129587E+03  0.00000000000E+00 0.  1.
          1   -1    0    0  501    0  0.00000000000E+00 -0.00000000000E+00 -0.45509400625E+03  0.45509400625E+03  0.00000000000E+00 0. -1.
         23    2    1    2    0    0 -0.27890459023E+03 -0.78777396103E+01 -0.49891518643E+02  0.29757009551E+03  0.90603360186E+02 0.  0.
         13    1    3    3    0    0 -0.69018960228E+02  0.21697806091E+02  0.18810892606E+02  0.74754674374E+02  0.00000000000E+00 0.  1.
        -13    1    3    3    0    0 -0.20988563000E+03 -0.29575545701E+02 -0.68702411249E+02  0.22281542113E+03  0.00000000000E+00 0. -1.
         22    1    1    2    0    0  0.27890459023E+03  0.78777396103E+01 -0.21219119174E+03  0.35053520662E+03  0.00000000000E+00 0. -1.
<mgrwt>
<rscale>  0 0.59275048E+03</rscale>
<asrwt>0</asrwt>
<pdfrwt beam="1">  1        1 0.70014462E-01 0.59275048E+03</pdfrwt>
<pdfrwt beam="2">  1       -1 0.29694046E-01 0.59275048E+03</pdfrwt>
<totfact> 0.52921818E+02</totfact>
</mgrwt>
</event>
<event>
 6    1  0.9562506E-007  0.1108776E+04  0.7818608E-02  0.9196680E-01
          2   -1    0    0  501    0  0.00000000000E+00  0.00000000000E+00  0.78537572863E+03  0.78537572863E+03  0.00000000000E+00 0. -1.
         -2   -1    0    0    0  501 -0.00000000000E+00 -0.00000000000E+00 -0.39133661579E+03  0.39133661579E+03  0.00000000000E+00 0.  1.
         23    2    1    2    0    0 -0.16656594290E+03  0.52480527166E+03  0.20919156186E+03  0.59590824353E+03  0.90447435858E+02 0.  0.
         13    1    3    3    0    0 -0.56718044791E+02  0.31824466004E+03  0.13677388138E+03  0.35100383883E+03  0.00000000000E+00 0. -1.
        -13    1    3    3    0    0 -0.10984789811E+03  0.20656061163E+03  0.72417680482E+02  0.24490440470E+03  0.00000000000E+00 0.  1.
         22    1    1    2    0    0  0.16656594290E+03 -0.52480527166E+03  0.18484755098E+03  0.58080410088E+03  0.00000000000E+00 0.  1.
<mgrwt>
<rscale>  0 0.11087764E+04</rscale>
<asrwt>0</asrwt>
<pdfrwt beam="1">  1        2 0.12082703E+00 0.11087764E+04</pdfrwt>
<pdfrwt beam="2">  1       -2 0.60205633E-01 0.11087764E+04</pdfrwt>
<totfact> 0.90104955E+01</totfact>
</mgrwt>
</event>
<event>
 6    1  0.9562506E-007  0.1367239E+04  0.7818608E-02  0.8977880E-01
          2   -1    0    0  501    0  0.00000000000E+00  0.00000000000E+00  0.16844062184E+04  0.16844062184E+04  0.00000000000E+00 0. -1.
         -2   -1    0    0    0  501 -0.00000000000E+00 -0.00000000000E+00 -0.27744818668E+03  0.27744818668E+03  0.00000000000E+00 0.  1.
         23    2    1    2    0    0  0.89720775363E+02  0.67479496304E+03  0.69981774567E+03  0.98030183703E+03  0.88593198741E+02 0.  0.
         13    1    3    3    0    0  0.10090046993E+03  0.54476530124E+03  0.59411300537E+03  0.81235484944E+03  0.00000000000E+00 0. -1.
        -13    1    3    3    0    0 -0.11179694565E+02  0.13002966180E+03  0.10570474030E+03  0.16794698759E+03  0.00000000000E+00 0.  1.
         22    1    1    2    0    0 -0.89720775363E+02 -0.67479496304E+03  0.70714028605E+03  0.98155256804E+03  0.00000000000E+00 0. -1.
<mgrwt>
<rscale>  0 0.13672388E+04</rscale>
<asrwt>0</asrwt>
<pdfrwt beam="1">  1        2 0.25913941E+00 0.13672388E+04</pdfrwt>
<pdfrwt beam="2">  1       -2 0.42684338E-01 0.13672388E+04</pdfrwt>
<totfact> 0.50779477E+01</totfact>
</mgrwt>
</event>
<event>
 6    1  0.9562506E-007  0.3024667E+04  0.7818608E-02  0.8236722E-01
         -1   -1    0    0    0  501 -0.00000000000E+00  0.00000000000E+00  0.10368088630E+04  0.10368088630E+04  0.00000000000E+00 0.  1.
          1   -1    0    0  501    0  0.00000000000E+00 -0.00000000000E+00 -0.22059539519E+04  0.22059539519E+04  0.00000000000E+00 0. -1.
         23    2    1    2    0    0 -0.13545786618E+04 -0.65460505541E+03 -0.73098859769E+03  0.16758000711E+04  0.10281254171E+03 0.  0.
         11    1    3    3    0    0 -0.27345929978E+02 -0.30118043904E+02 -0.13104393875E+02  0.42738993832E+02  0.00000000000E+00 0. -1.
        -11    1    3    3    0    0 -0.13272327318E+04 -0.62448701151E+03 -0.71788420382E+03  0.16330610773E+04  0.00000000000E+00 0.  1.
         22    1    1    2    0    0  0.13545786618E+04  0.65460505541E+03 -0.43815649122E+03  0.15669627438E+04  0.00000000000E+00 0.  1.
<mgrwt>
<rscale>  0 0.30246670E+04</rscale>
<asrwt>0</asrwt>
<pdfrwt beam="1">  1        1 0.33937753E+00 0.30246670E+04</pdfrwt>
<pdfrwt beam="2">  1       -1 0.15950906E+00 0.30246670E+04</pdfrwt>
<totfact> 0.54019455E-01</totfact>
</mgrwt>
</event>
<event>
 6    1  0.9562506E-007  0.1191938E+04  0.7818608E-02  0.9119942E-01
         -2   -1    0    0    0  501 -0.00000000000E+00  0.00000000000E+00  0.22823194275E+03  0.22823194275E+03  0.00000000000E+00 0.  1.
          2   -1    0    0  501    0  0.00000000000E+00 -0.00000000000E+00 -0.15562204429E+04  0.15562204429E+04  0.00000000000E+00 0. -1.
         23    2    1    2    0    0 -0.40994524827E+03 -0.42526272155E+03 -0.60029670724E+03  0.84720170712E+03  0.92147202362E+02 0.  0.
         11    1    3    3    0    0 -0.15813475025E+03 -0.10998312189E+03 -0.22450795558E+03  0.29581532830E+03  0.00000000000E+00 0. -1.
        -11    1    3    3    0    0 -0.25181049802E+03 -0.31527959966E+03 -0.37578875166E+03  0.55138637882E+03  0.00000000000E+00 0.  1.
         22    1    1    2    0    0  0.40994524827E+03  0.42526272155E+03 -0.72769179288E+03  0.93725067850E+03  0.00000000000E+00 0. -1.
<mgrwt>
<rscale>  0 0.11919383E+04</rscale>
<asrwt>0</asrwt>
<pdfrwt beam="1">  1        2 0.23941852E+00 0.11919383E+04</pdfrwt>
<pdfrwt beam="2">  1       -2 0.35112608E-01 0.11919383E+04</pdfrwt>
<totfact> 0.88658091E+01</totfact>
</mgrwt>
</event>
<event>
 6    1  0.9562506E-007  0.1837418E+04  0.7818608E-02  0.8686650E-01
         -2   -1    0    0    0  501 -0.00000000000E+00  0.00000000000E+00  0.35603172076E+03  0.35603172076E+03  0.00000000000E+00 0.  1.
          2   -1    0    0  501    0  0.00000000000E+00 -0.00000000000E+00 -0.23706501107E+04  0.23706501107E+04  0.00000000000E+00 0. -1.
         23    2    1    2    0    0 -0.90568464153E+03  0.11312769754E+03 -0.11323867711E+04  0.14572744205E+04  0.91029617610E+02 0.  0.
         13    1    3    3    0    0 -0.30246257742E+03  0.47216702567E+02 -0.31478659319E+03  0.43909409811E+03  0.00000000000E+00 0.  1.
        -13    1    3    3    0    0 -0.60322206411E+03  0.65910994971E+02 -0.81760017792E+03  0.10181803224E+04  0.00000000000E+00 0. -1.
         22    1    1    2    0    0  0.90568464153E+03 -0.11312769754E+03 -0.88223161884E+03  0.12694074110E+04  0.00000000000E+00 0. -1.
<mgrwt>
<rscale>  0 0.18374184E+04</rscale>
<asrwt>0</asrwt>
<pdfrwt beam="1">  1        2 0.36471541E+00 0.18374184E+04</pdfrwt>
<pdfrwt beam="2">  1       -2 0.54774109E-01 0.18374184E+04</pdfrwt>
<totfact> 0.12204069E+01</totfact>
</mgrwt>
</event>
<event>
 6    1  0.9562506E-007  0.3765528E+04  0.7818608E-02  0.8053593E-01
          2   -1    0    0  501    0  0.00000000000E+00  0.00000000000E+00  0.17580065758E+04  0.17580065758E+04  0.00000000000E+00 0. -1.
         -2   -1    0    0    0  501 -0.00000000000E+00 -0.00000000000E+00 -0.20163752465E+04  0.20163752465E+04  0.00000000000E+00 0.  1.
         23    2    1    2    0    0  0.84850207313E+03 -0.12743143522E+04  0.96738446531E+03  0.18131822947E+04  0.89244012448E+02 0.  0.
         11    1    3    3    0    0  0.67249829491E+03 -0.94085575874E+03  0.73268312953E+03  0.13690464140E+04  0.00000000000E+00 0. -1.
        -11    1    3    3    0    0  0.17600377822E+03 -0.33345859346E+03  0.23470133578E+03  0.44413588069E+03  0.00000000000E+00 0.  1.
         22    1    1    2    0    0 -0.84850207313E+03  0.12743143522E+04 -0.12257531360E+04  0.19611995275E+04  0.00000000000E+00 0.  1.
<mgrwt>
<rscale>  0 0.37655284E+04</rscale>
<asrwt>0</asrwt>
<pdfrwt beam="1">  1        2 0.27046255E+00 0.37655284E+04</pdfrwt>
<pdfrwt beam="2">  1       -2 0.31021158E+00 0.37655284E+04</pdfrwt>
<totfact> 0.20140387E-01</totfact>
</mgrwt>
</event>
<event>
 6    1  0.9562506E-007  0.8027557E+04  0.7818608E-02  0.7479848E-01
          1   -1    0    0  501    0  0.00000000000E+00  0.00000000000E+00  0.36943230731E+04  0.36943230731E+04  0.00000000000E+00 0. -1.
         -1   -1    0    0    0  501 -0.00000000000E+00 -0.00000000000E+00 -0.43608581714E+04  0.43608581714E+04  0.00000000000E+00 0.  1.
         23    2    1    2    0    0 -0.31599739305E+04 -0.17216571059E+03  0.21430848425E+04  0.38232738159E+04  0.97640954711E+02 0.  0.
         13    1    3    3    0    0 -0.65073623040E+03 -0.74975087696E+02  0.44034985818E+03  0.78929519378E+03  0.00000000000E+00 0.  1.
        -13    1    3    3    0    0 -0.25092377001E+04 -0.97190622892E+02  0.17027349843E+04  0.30339786221E+04  0.00000000000E+00 0. -1.
         22    1    1    2    0    0  0.31599739305E+04  0.17216571059E+03 -0.28096199407E+04  0.42319074287E+04  0.00000000000E+00 0.  1.
<mgrwt>
<rscale>  0 0.80275573E+04</rscale>
<asrwt>0</asrwt>
<pdfrwt beam="1">  1        1 0.56835740E+00 0.80275573E+04</pdfrwt>
<pdfrwt beam="2">  1       -1 0.67090126E+00 0.80275573E+04</pdfrwt>
<totfact> 0.25985424E-05</totfact>
</mgrwt>
</event>
<event>
 6    1  0.9562506E-007  0.5211524E+03  0.7818608E-02  0.1008401E+00
          2   -1    0    0  501    0  0.00000000000E+00  0.00000000000E+00  0.22178792992E+03  0.22178792992E+03  0.00000000000E+00 0. -1.
         -2   -1    0    0    0  501 -0.00000000000E+00 -0.00000000000E+00 -0.30614807983E+03  0.30614807983E+03  0.00000000000E+00 0.  1.
         23    2    1    2    0    0 -0.59192637257E+02 -0.18432012056E+03 -0.20674036988E+03  0.29890633179E+03  0.95528736503E+02 0.  0.
         13    1    3    3    0    0 -0.38702406632E+02 -0.17336456156E+02 -0.18000127668E+02  0.46069877222E+02  0.00000000000E+00 0.  1.
        -13    1    3    3    0    0 -0.20490230625E+02 -0.16698366440E+03 -0.18874024221E+03  0.25283645457E+03  0.00000000000E+00 0. -1.
         22    1    1    2    0    0  0.59192637257E+02  0.18432012056E+03  0.12238021996E+03  0.22902967796E+03  0.00000000000E+00 0. -1.
<mgrwt>
<rscale>  0 0.52115237E+03</rscale>
<asrwt>0</asrwt>
<pdfrwt beam="1">  1        2 0.34121220E-01 0.52115237E+03</pdfrwt>
<pdfrwt beam="2">  1       -2 0.47099705E-01 0.52115237E+03</pdfrwt>
<totfact> 0.66162383E+02</totfact>
</mgrwt>
</event>
<event>
 6    1  0.9562506E-007  0.1098771E+04  0.7818608E-02  0.9206390E-01
          1   -1    0    0  501    0  0.00000000000E+00  0.00000000000E+00  0.49868970458E+03  0.49868970458E+03  0.00000000000E+00 0. -1.
         -1   -1    0    0    0  501 -0.00000000000E+00 -0.00000000000E+00 -0.60523500812E+03  0.60523500812E+03  0.00000000000E+00 0.  1.
         23    2    1    2    0    0 -0.24170437016E+03 -0.10583538070E+03 -0.53349258213E+03  0.60202222311E+03  0.90522326326E+02 0.  0.
         13    1    3    3    0    0 -0.18647454948E+03 -0.11746911920E+03 -0.39232792986E+03  0.44999217340E+03  0.00000000000E+00 0.  1.
        -13    1    3    3    0    0 -0.55229820681E+02  0.11633738505E+02 -0.14116465227E+03  0.15203004971E+03  0.00000000000E+00 0. -1.
         22    1    1    2    0    0  0.24170437016E+03  0.10583538070E+03  0.42694727859E+03  0.50190248959E+03  0.00000000000E+00 0. -1.
<mgrwt>
<rscale>  0 0.10987711E+04</rscale>
<asrwt>0</asrwt>
<pdfrwt beam="1">  1        1 0.76721493E-01 0.10987711E+04</pdfrwt>
<pdfrwt beam="2">  1       -1 0.93113078E-01 0.10987711E+04</pdfrwt>
<totfact> 0.49680912E+01</totfact>
</mgrwt>
</event>
<event>
 6    1  0.9562506E-007  0.1237065E+04  0.7818608E-02  0.9081018E-01
         -2   -1    0    0    0  501 -0.00000000000E+00  0.00000000000E+00  0.22664192347E+03  0.22664192347E+03  0.00000000000E+00 0.  1.
          2   -1    0    0  501    0  0.00000000000E+00 -0.00000000000E+00 -0.16880484093E+04  0.16880484093E+04  0.00000000000E+00 0. -1.
         23    2    1    2    0    0 -0.52081003875E+03  0.61277232295E+02 -0.12324604737E+04  0.13424890814E+04  0.91214684855E+02 0.  0.
         13    1    3    3    0    0 -0.17560117490E+03  0.38923611671E+02 -0.32709169656E+03  0.37328246427E+03  0.00000000000E+00 0.  1.
        -13    1    3    3    0    0 -0.34520886385E+03  0.22353620624E+02 -0.90536877712E+03  0.96920661709E+03  0.00000000000E+00 0. -1.
         22    1    1    2    0    0  0.52081003875E+03 -0.61277232295E+02 -0.22894601219E+03  0.57220125145E+03  0.00000000000E+00 0.  1.
<mgrwt>
<rscale>  0 0.12370651E+04</rscale>
<asrwt>0</asrwt>
<pdfrwt beam="1">  1        2 0.25969975E+00 0.12370651E+04</pdfrwt>
<pdfrwt beam="2">  1       -2 0.34867988E-01 0.12370651E+04</pdfrwt>
<totfact> 0.75625547E+01</totfact>
</mgrwt>
</event>
<event>
 6    1  0.9562506E-007  0.1244234E+04  0.7818608E-02  0.9074996E-01
          2   -1    0    0  501    0  0.00000000000E+00  0.00000000000E+00  0.21357629183E+04  0.21357629183E+04  0.00000000000E+00 0. -1.
         -2   -1    0    0    0  501 -0.00000000000E+00 -0.00000000000E+00 -0.18121376482E+03  0.18121376482E+03  0.00000000000E+00 0.  1.
         23    2    1    2    0    0 -0.57632703140E+03 -0.11936285567E+03  0.62653892008E+03  0.86438881369E+03  0.90645818511E+02 0.  0.
         13    1    3    3    0    0 -0.41740145601E+03 -0.98391259157E+02  0.50922654201E+03  0.66574506115E+03  0.00000000000E+00 0.  1.
        -13    1    3    3    0    0 -0.15892557539E+03 -0.20971596510E+02  0.11731237808E+03  0.19864375254E+03  0.00000000000E+00 0. -1.
         22    1    1    2    0    0  0.57632703140E+03  0.11936285567E+03  0.13280102334E+04  0.14525878694E+04  0.00000000000E+00 0. -1.
<mgrwt>
<rscale>  0 0.12442341E+04</rscale>
<asrwt>0</asrwt>
<pdfrwt beam="1">  1        2 0.32857889E+00 0.12442341E+04</pdfrwt>
<pdfrwt beam="2">  1       -2 0.27879042E-01 0.12442341E+04</pdfrwt>
<totfact> 0.65003624E+01</totfact>
</mgrwt>
</event>
<event>
 6    1  0.9562506E-007  0.1800241E+04  0.7818608E-02  0.8706172E-01
          1   -1    0    0  501    0  0.00000000000E+00  0.00000000000E+00  0.81944250761E+03  0.81944250761E+03  0.00000000000E+00 0. -1.
         -1   -1    0    0    0  501 -0.00000000000E+00 -0.00000000000E+00 -0.98874115675E+03  0.98874115675E+03  0.00000000000E+00 0.  1.
         23    2    1    2    0    0  0.33629002457E+03  0.53372156559E+03  0.55682843524E+03  0.84630517263E+03  0.90690951820E+02 0.  0.
         11    1    3    3    0    0  0.15886250629E+03  0.33105018852E+03  0.30066654819E+03  0.47458602637E+03  0.00000000000E+00 0. -1.
        -11    1    3    3    0    0  0.17742751828E+03  0.20267137706E+03  0.25616188705E+03  0.37171914626E+03  0.00000000000E+00 0.  1.
         22    1    1    2    0    0 -0.33629002457E+03 -0.53372156559E+03 -0.72612708437E+03  0.96187849173E+03  0.00000000000E+00 0.  1.
<mgrwt>
<rscale>  0 0.18002406E+04</rscale>
<asrwt>0</asrwt>
<pdfrwt beam="1">  1        1 0.12606808E+00 0.18002406E+04</pdfrwt>
<pdfrwt beam="2">  1       -1 0.15211402E+00 0.18002406E+04</pdfrwt>
<totfact> 0.67416035E+00</totfact>
</mgrwt>
</event>
<event>
 6    1  0.9562506E-007  0.1106030E+04  0.7818608E-02  0.9199334E-01
          2   -1    0    0  501    0  0.00000000000E+00  0.00000000000E+00  0.17985327171E+04  0.17985327171E+04  0.00000000000E+00 0. -1.
         -2   -1    0    0    0  501 -0.00000000000E+00 -0.00000000000E+00 -0.17004180426E+03  0.17004180426E+03  0.00000000000E+00 0.  1.
         23    2    1    2    0    0 -0.50770448788E+03 -0.33550509396E+02  0.11872998187E+04  0.12951214308E+04  0.93643884841E+02 0.  0.
         11    1    3    3    0    0 -0.40890794035E+03 -0.27087678885E+02  0.85068368276E+03  0.94424688198E+03  0.00000000000E+00 0. -1.
        -11    1    3    3    0    0 -0.98796547529E+02 -0.64628305113E+01  0.33661613598E+03  0.35087454878E+03  0.00000000000E+00 0.  1.
         22    1    1    2    0    0  0.50770448788E+03  0.33550509396E+02  0.44119109406E+03  0.67345309055E+03  0.00000000000E+00 0.  1.
<mgrwt>
<rscale>  0 0.11060303E+04</rscale>
<asrwt>0</asrwt>
<pdfrwt beam="1">  1        2 0.27669733E+00 0.11060303E+04</pdfrwt>
<pdfrwt beam="2">  1       -2 0.26160279E-01 0.11060303E+04</pdfrwt>
<totfact> 0.11338749E+02</totfact>
</mgrwt>
</event>
<event>
 6    1  0.9562506E-007  0.1115260E+04  0.7818608E-02  0.9190445E-01
         -2   -1    0    0    0  501 -0.00000000000E+00  0.00000000000E+00  0.33060414402E+03  0.33060414402E+03  0.00000000000E+00 0.  1.
          2   -1    0    0  501    0  0.00000000000E+00 -0.00000000000E+00 -0.94055371446E+03  0.94055371446E+03  0.00000000000E+00 0. -1.
         23    2    1    2    0    0  0.81290895395E+01 -0.39473955692E+03 -0.74986059189E+03  0.85227781144E+03  0.90560260058E+02 0.  0.
         13    1    3    3    0    0  0.37730081131E+02 -0.14049637046E+03 -0.21873945983E+03  0.26269705065E+03  0.00000000000E+00 0.  1.
        -13    1    3    3    0    0 -0.29600991592E+02 -0.25424318645E+03 -0.53112113206E+03  0.58958076078E+03  0.00000000000E+00 0. -1.
         22    1    1    2    0    0 -0.81290895395E+01  0.39473955692E+03  0.13991102145E+03  0.41888004705E+03  0.00000000000E+00 0.  1.
<mgrwt>
<rscale>  0 0.11152595E+04</rscale>
<asrwt>0</asrwt>
<pdfrwt beam="1">  1        2 0.14470057E+00 0.11152595E+04</pdfrwt>
<pdfrwt beam="2">  1       -2 0.50862176E-01 0.11152595E+04</pdfrwt>
<totfact> 0.99826516E+01</totfact>
</mgrwt>
</event>
<event>
 6    1  0.9562506E-007  0.1053964E+04  0.7818608E-02  0.9251261E-01
          2   -1    0    0  501    0  0.00000000000E+00  0.00000000000E+00  0.16350249421E+04  0.16350249421E+04  0.00000000000E+00 0. -1.
         -2   -1    0    0    0  501 -0.00000000000E+00 -0.00000000000E+00 -0.16985073598E+03  0.16985073598E+03  0.00000000000E+00 0.  1.
         23    2    1    2    0    0 -0.73932753236E+02 -0.27691306200E+03 -0.12100053313E+02  0.30005471414E+03  0.87974566108E+02 0.  0.
         11    1    3    3    0    0 -0.35028920416E+02 -0.18517861016E+03  0.31875692940E+02  0.19113922341E+03  0.00000000000E+00 0. -1.
        -11    1    3    3    0    0 -0.38903832820E+02 -0.91734451839E+02 -0.43975746253E+02  0.10891549073E+03  0.00000000000E+00 0.  1.
         22    1    1    2    0    0  0.73932753236E+02  0.27691306200E+03  0.14772742594E+04  0.15048209639E+04  0.00000000000E+00 0. -1.
<mgrwt>
<rscale>  0 0.10539643E+04</rscale>
<asrwt>0</asrwt>
<pdfrwt beam="1">  1        2 0.25154229E+00 0.10539643E+04</pdfrwt>
<pdfrwt beam="2">  1       -2 0.26130884E-01 0.10539643E+04</pdfrwt>
<totfact> 0.14041456E+02</totfact>
</mgrwt>
</event>
<event>
 6    1  0.9562506E-007  0.2331958E+04  0.7818608E-02  0.8465426E-01
          1   -1    0    0  501    0  0.00000000000E+00  0.00000000000E+00  0.10099001158E+04  0.10099001158E+04  0.00000000000E+00 0. -1.
         -1   -1    0    0    0  501 -0.00000000000E+00 -0.00000000000E+00 -0.13461796808E+04  0.13461796808E+04  0.00000000000E+00 0.  1.
         23    2    1    2    0    0 -0.10758096616E+04 -0.28143054440E+03  0.17950589052E+03  0.11302722198E+04  0.93398858431E+02 0.  0.
         11    1    3    3    0    0 -0.30213619244E+03 -0.72263872432E+02  0.84573696228E+01  0.31077302512E+03  0.00000000000E+00 0. -1.
        -11    1    3    3    0    0 -0.77367346919E+03 -0.20916667196E+03  0.17104852090E+03  0.81949919469E+03  0.00000000000E+00 0.  1.
         22    1    1    2    0    0  0.10758096616E+04  0.28143054440E+03 -0.51578545548E+03  0.12258075768E+04  0.00000000000E+00 0.  1.
<mgrwt>
<rscale>  0 0.23319580E+04</rscale>
<asrwt>0</asrwt>
<pdfrwt beam="1">  1        1 0.15536925E+00 0.23319580E+04</pdfrwt>
<pdfrwt beam="2">  1       -1 0.20710457E+00 0.23319580E+04</pdfrwt>
<totfact> 0.18023579E+00</totfact>
</mgrwt>
</event>
<event>
 6    1  0.9562506E-007  0.1763351E+04  0.7818608E-02  0.8726035E-01
          2   -1    0    0  501    0  0.00000000000E+00  0.00000000000E+00  0.91106959322E+03  0.91106959322E+03  0.00000000000E+00 0. -1.
         -2   -1    0    0    0  501 -0.00000000000E+00 -0.00000000000E+00 -0.85322989541E+03  0.85322989541E+03  0.00000000000E+00 0.  1.
         23    2    1    2    0    0  0.18683811193E+03  0.87340010273E+02  0.88401907667E+03  0.91276609320E+03  0.95474894752E+02 0.  0.
         11    1    3    3    0    0  0.27285848146E+02 -0.20044902999E+02  0.10328949104E+03  0.10869698526E+03  0.00000000000E+00 0.  1.
        -11    1    3    3    0    0  0.15955226379E+03  0.10738491327E+03  0.78072958562E+03  0.80406910794E+03  0.00000000000E+00 0. -1.
         22    1    1    2    0    0 -0.18683811193E+03 -0.87340010273E+02 -0.82617937886E+03  0.85153339542E+03  0.00000000000E+00 0.  1.
<mgrwt>
<rscale>  0 0.17633511E+04</rscale>
<asrwt>0</asrwt>
<pdfrwt beam="1">  1        2 0.14016455E+00 0.17633511E+04</pdfrwt>
<pdfrwt beam="2">  1       -2 0.13126614E+00 0.17633511E+04</pdfrwt>
<totfact> 0.11562420E+01</totfact>
</mgrwt>
</event>
<event>
 6    1  0.9562506E-007  0.2456777E+04  0.7818608E-02  0.8418548E-01
         -2   -1    0    0    0  501 -0.00000000000E+00  0.00000000000E+00  0.86696982162E+03  0.86696982162E+03  0.00000000000E+00 0.  1.
          2   -1    0    0  501    0  0.00000000000E+00 -0.00000000000E+00 -0.17404740117E+04  0.17404740117E+04  0.00000000000E+00 0. -1.
         23    2    1    2    0    0 -0.95699820860E+03  0.70450934720E+03 -0.11461869319E+03  0.11974487308E+04  0.92558233743E+02 0.  0.
         11    1    3    3    0    0 -0.13241637846E+03  0.12384594206E+03 -0.43354947245E+02  0.18641771939E+03  0.00000000000E+00 0.  1.
        -11    1    3    3    0    0 -0.82458183014E+03  0.58066340514E+03 -0.71263745946E+02  0.10110310115E+04  0.00000000000E+00 0. -1.
         22    1    1    2    0    0  0.95699820860E+03 -0.70450934720E+03 -0.75888549685E+03  0.14099951024E+04  0.00000000000E+00 0. -1.
<mgrwt>
<rscale>  0 0.24567771E+04</rscale>
<asrwt>0</asrwt>
<pdfrwt beam="1">  1        2 0.26776523E+00 0.24567771E+04</pdfrwt>
<pdfrwt beam="2">  1       -2 0.13337997E+00 0.24567771E+04</pdfrwt>
<totfact> 0.33913720E+00</totfact>
</mgrwt>
</event>
<event>
 6    1  0.9562506E-007  0.3677483E+04  0.7818608E-02  0.8072970E-01
         -1   -1    0    0    0  501 -0.00000000000E+00  0.00000000000E+00  0.16475903764E+04  0.16475903764E+04  0.00000000000E+00 0.  1.
          1   -1    0    0  501    0  0.00000000000E+00 -0.00000000000E+00 -0.20520695531E+04  0.20520695531E+04  0.00000000000E+00 0. -1.
         23    2    1    2    0    0 -0.81611521286E+03  0.15340926153E+03  0.14468474954E+04  0.16706234860E+04  0.89647726423E+02 0.  0.
         11    1    3    3    0    0 -0.57340222962E+03  0.12890600583E+03  0.94955065311E+03  0.11167154150E+04  0.00000000000E+00 0. -1.
        -11    1    3    3    0    0 -0.24271298324E+03  0.24503255700E+02  0.49729684226E+03  0.55390807098E+03  0.00000000000E+00 0.  1.
         22    1    1    2    0    0  0.81611521286E+03 -0.15340926153E+03 -0.18513266721E+04  0.20290364434E+04  0.00000000000E+00 0. -1.
<mgrwt>
<rscale>  0 0.36774829E+04</rscale>
<asrwt>0</asrwt>
<pdfrwt beam="1">  1        1 0.31570301E+00 0.36774829E+04</pdfrwt>
<pdfrwt beam="2">  1       -1 0.25347544E+00 0.36774829E+04</pdfrwt>
<totfact> 0.14612023E-01</totfact>
</mgrwt>
</event>
<event>
 6    1  0.9562506E-007  0.2240816E+04  0.7818608E-02  0.8501629E-01
          1   -1    0    0  501    0  0.00000000000E+00  0.00000000000E+00  0.11624870739E+04  0.11624870739E+04  0.00000000000E+00 0. -1.
         -1   -1    0    0    0  501 -0.00000000000E+00 -0.00000000000E+00 -0.10798524935E+04  0.10798524935E+04  0.00000000000E+00 0.  1.
         23    2    1    2    0    0  0.25156084446E+03  0.10305836165E+04 -0.31701659182E+03  0.11087141846E+04  0.57984261648E+02 0.  0.
         13    1    3    3    0    0  0.14567757922E+03  0.68512991962E+03 -0.19052008017E+03  0.72589452732E+03  0.00000000000E+00 0.  1.
        -13    1    3    3    0    0  0.10588326524E+03  0.34545369687E+03 -0.12649651165E+03  0.38281965728E+03  0.00000000000E+00 0. -1.
         22    1    1    2    0    0 -0.25156084446E+03 -0.10305836165E+04  0.39965117217E+03  0.11336253828E+04  0.00000000000E+00 0. -1.
<mgrwt>
<rscale>  0 0.22408164E+04</rscale>
<asrwt>0</asrwt>
<pdfrwt beam="1">  1        1 0.17884417E+00 0.22408164E+04</pdfrwt>
<pdfrwt beam="2">  1       -1 0.16613115E+00 0.22408164E+04</pdfrwt>
<totfact> 0.27192325E+00</totfact>
</mgrwt>
</event>
<event>
 6    1  0.9562506E-007  0.1703359E+04  0.7818608E-02  0.8759451E-01
         -1   -1    0    0    0  501 -0.00000000000E+00  0.00000000000E+00  0.23001846030E+04  0.23001846030E+04  0.00000000000E+00 0.  1.
          1   -1    0    0  501    0  0.00000000000E+00 -0.00000000000E+00 -0.31534760124E+03  0.31534760124E+03  0.00000000000E+00 0. -1.
         23    2    1    2    0    0 -0.23783797764E+03 -0.22893972541E+03  0.21967316035E+04  0.22232572705E+04  0.90900228812E+02 0.  0.
         13    1    3    3    0    0 -0.41912037075E+02 -0.27113202277E+01  0.21621246536E+03  0.22025394499E+03  0.00000000000E+00 0.  1.
        -13    1    3    3    0    0 -0.19592594057E+03 -0.22622840518E+03  0.19805191381E+04  0.20030033255E+04  0.00000000000E+00 0. -1.
         22    1    1    2    0    0  0.23783797764E+03  0.22893972541E+03 -0.21189460166E+03  0.39227493381E+03  0.00000000000E+00 0. -1.
<mgrwt>
<rscale>  0 0.17033587E+04</rscale>
<asrwt>0</asrwt>
<pdfrwt beam="1">  1        1 0.48515017E-01 0.17033587E+04</pdfrwt>
<pdfrwt beam="2">  1       -1 0.35387454E+00 0.17033587E+04</pdfrwt>
<totfact> 0.11479894E+00</totfact>
</mgrwt>
</event>
<event>
 6    1  0.9562506E-007  0.1278466E+04  0.7818608E-02  0.9046818E-01
          2   -1    0    0  501    0  0.00000000000E+00  0.00000000000E+00  0.39790072615E+04  0.39790072615E+04  0.00000000000E+00 0. -1.
         -2   -1    0    0    0  501 -0.00000000000E+00 -0.00000000000E+00 -0.10269363547E+03  0.10269363547E+03  0.00000000000E+00 0.  1.
         23    2    1    2    0    0 -0.36114548417E+03 -0.52303560805E+03  0.20233906836E+04  0.21227941257E+04  0.90292488651E+02 0.  0.
         11    1    3    3    0    0 -0.33830632030E+02 -0.41941504983E+02  0.27152317839E+03  0.27681842046E+03  0.00000000000E+00 0.  1.
        -11    1    3    3    0    0 -0.32731485214E+03 -0.48109410307E+03  0.17518675052E+04  0.18459757052E+04  0.00000000000E+00 0. -1.
         22    1    1    2    0    0  0.36114548417E+03  0.52303560805E+03  0.18529229424E+04  0.19589067713E+04  0.00000000000E+00 0. -1.
<mgrwt>
<rscale>  0 0.12784658E+04</rscale>
<asrwt>0</asrwt>
<pdfrwt beam="1">  1        2 0.61215484E+00 0.12784658E+04</pdfrwt>
<pdfrwt beam="2">  1       -2 0.15799024E-01 0.12784658E+04</pdfrwt>
<totfact> 0.11617511E+01</totfact>
</mgrwt>
</event>
<event>
 6    1  0.9562506E-007  0.2615217E+04  0.7818608E-02  0.8363050E-01
          2   -1    0    0  501    0  0.00000000000E+00  0.00000000000E+00  0.12362793961E+04  0.12362793961E+04  0.00000000000E+00 0. -1.
         -2   -1    0    0    0  501 -0.00000000000E+00 -0.00000000000E+00 -0.13830535737E+04  0.13830535737E+04  0.00000000000E+00 0.  1.
         23    2    1    2    0    0  0.23809300384E+03  0.57354643319E+03 -0.12241858858E+04  0.13757656100E+04  0.91957278881E+02 0.  0.
         11    1    3    3    0    0  0.19384642904E+03  0.38726062422E+03 -0.78203900694E+03  0.89394196540E+03  0.00000000000E+00 0. -1.
        -11    1    3    3    0    0  0.44246574804E+02  0.18628580896E+03 -0.44214687881E+03  0.48182364455E+03  0.00000000000E+00 0.  1.
         22    1    1    2    0    0 -0.23809300384E+03 -0.57354643319E+03  0.10774117082E+04  0.12435673598E+04  0.00000000000E+00 0. -1.
<mgrwt>
<rscale>  0 0.26152175E+04</rscale>
<asrwt>0</asrwt>
<pdfrwt beam="1">  1        2 0.19019683E+00 0.26152175E+04</pdfrwt>
<pdfrwt beam="2">  1       -2 0.21277747E+00 0.26152175E+04</pdfrwt>
<totfact> 0.17496260E+00</totfact>
</mgrwt>
</event>
<event>
 6    1  0.9562506E-007  0.1136047E+04  0.7818608E-02  0.9170753E-01
          1   -1    0    0  501    0  0.00000000000E+00  0.00000000000E+00  0.15921896713E+04  0.15921896713E+04  0.00000000000E+00 0. -1.
         -1   -1    0    0    0  501 -0.00000000000E+00 -0.00000000000E+00 -0.20264601239E+03  0.20264601239E+03  0.00000000000E+00 0.  1.
         23    2    1    2    0    0  0.13921759848E+03  0.39345123290E+03  0.12992518259E+04  0.13678251130E+04  0.93299625888E+02 0.  0.
         11    1    3    3    0    0 -0.75278824129E+01  0.52808228561E+02  0.22878857914E+03  0.23492465167E+03  0.00000000000E+00 0. -1.
        -11    1    3    3    0    0  0.14674548090E+03  0.34064300433E+03  0.10704632468E+04  0.11329004613E+04  0.00000000000E+00 0.  1.
         22    1    1    2    0    0 -0.13921759848E+03 -0.39345123290E+03  0.90291833002E+02  0.42701057071E+03  0.00000000000E+00 0.  1.
<mgrwt>
<rscale>  0 0.11360473E+04</rscale>
<asrwt>0</asrwt>
<pdfrwt beam="1">  1        1 0.24495225E+00 0.11360473E+04</pdfrwt>
<pdfrwt beam="2">  1       -1 0.31176311E-01 0.11360473E+04</pdfrwt>
<totfact> 0.53554371E+01</totfact>
</mgrwt>
</event>
<event>
 6    1  0.9562506E-007  0.2558258E+04  0.7818608E-02  0.8382520E-01
         -2   -1    0    0    0  501 -0.00000000000E+00  0.00000000000E+00  0.69536638635E+03  0.69536638635E+03  0.00000000000E+00 0.  1.
          2   -1    0    0  501    0  0.00000000000E+00 -0.00000000000E+00 -0.23529621979E+04  0.23529621979E+04  0.00000000000E+00 0. -1.
         23    2    1    2    0    0  0.11344818099E+04 -0.11250102922E+02 -0.15296545661E+04  0.19065998494E+04  0.90024174541E+02 0.  0.
         13    1    3    3    0    0  0.66868351465E+03  0.91875361014E+01 -0.83123016998E+03  0.10668484658E+04  0.00000000000E+00 0. -1.
        -13    1    3    3    0    0  0.46579829528E+03 -0.20437639023E+02 -0.69842439615E+03  0.83975138351E+03  0.00000000000E+00 0.  1.
         22    1    1    2    0    0 -0.11344818099E+04  0.11250102922E+02 -0.12794124544E+03  0.11417287349E+04  0.00000000000E+00 0.  1.
<mgrwt>
<rscale>  0 0.25582579E+04</rscale>
<asrwt>0</asrwt>
<pdfrwt beam="1">  1        2 0.36199417E+00 0.25582579E+04</pdfrwt>
<pdfrwt beam="2">  1       -2 0.10697945E+00 0.25582579E+04</pdfrwt>
<totfact> 0.26379000E+00</totfact>
</mgrwt>
</event>
<event>
 6    1  0.9562506E-007  0.1381420E+04  0.7818608E-02  0.8967379E-01
         -2   -1    0    0    0  501 -0.00000000000E+00  0.00000000000E+00  0.32592960425E+03  0.32592960425E+03  0.00000000000E+00 0.  1.
          2   -1    0    0  501    0  0.00000000000E+00 -0.00000000000E+00 -0.14637527218E+04  0.14637527218E+04  0.00000000000E+00 0. -1.
         23    2    1    2    0    0 -0.21224475307E+03 -0.12887800101E+03  0.26307711674E+03  0.36694593418E+03  0.61501015501E+02 0.  0.
         13    1    3    3    0    0 -0.19472263705E+03 -0.13126893102E+03  0.22625722550E+03  0.32609932493E+03  0.00000000000E+00 0.  1.
        -13    1    3    3    0    0 -0.17522116019E+02  0.23909300044E+01  0.36819891237E+02  0.40846609245E+02  0.00000000000E+00 0. -1.
         22    1    1    2    0    0  0.21224475307E+03  0.12887800101E+03 -0.14009002343E+04  0.14227363919E+04  0.00000000000E+00 0. -1.
<mgrwt>
<rscale>  0 0.13814201E+04</rscale>
<asrwt>0</asrwt>
<pdfrwt beam="1">  1        2 0.22519273E+00 0.13814201E+04</pdfrwt>
<pdfrwt beam="2">  1       -2 0.50143016E-01 0.13814201E+04</pdfrwt>
<totfact> 0.48786016E+01</totfact>
</mgrwt>
</event>
<event>
 6    1  0.9562506E-007  0.1997264E+04  0.7818608E-02  0.8607901E-01
          1   -1    0    0  501    0  0.00000000000E+00  0.00000000000E+00  0.97069902495E+03  0.97069902495E+03  0.00000000000E+00 0. -1.
         -1   -1    0    0    0  501 -0.00000000000E+00 -0.00000000000E+00 -0.10273686201E+04  0.10273686201E+04  0.00000000000E+00 0.  1.
         23    2    1    2    0    0  0.38393463868E+02 -0.76090697959E+03  0.61426887611E+03  0.98287706101E+03  0.90926207698E+02 0.  0.
         13    1    3    3    0    0  0.47392127027E+02 -0.32748934363E+03  0.30829771416E+03  0.45226404285E+03  0.00000000000E+00 0. -1.
        -13    1    3    3    0    0 -0.89986631581E+01 -0.43341763596E+03  0.30597116195E+03  0.53061301817E+03  0.00000000000E+00 0.  1.
         22    1    1    2    0    0 -0.38393463868E+02  0.76090697959E+03 -0.67093847122E+03  0.10151905840E+04  0.00000000000E+00 0.  1.
<mgrwt>
<rscale>  0 0.19972638E+04</rscale>
<asrwt>0</asrwt>
<pdfrwt beam="1">  1        1 0.14933831E+00 0.19972638E+04</pdfrwt>
<pdfrwt beam="2">  1       -1 0.15805671E+00 0.19972638E+04</pdfrwt>
<totfact> 0.44769987E+00</totfact>
</mgrwt>
</event>
<event>
 6    1  0.9562506E-007  0.3849955E+04  0.7818608E-02  0.8035519E-01
          2   -1    0    0  501    0  0.00000000000E+00  0.00000000000E+00  0.23152708215E+04  0.23152708215E+04  0.00000000000E+00 0. -1.
         -2   -1    0    0    0  501 -0.00000000000E+00 -0.00000000000E+00 -0.16004771956E+04  0.16004771956E+04  0.00000000000E+00 0.  1.
         23    2    1    2    0    0  0.25253782399E+03 -0.73534859565E+03 -0.14322784830E+04  0.16322350326E+04  0.90866049846E+02 0.  0.
         13    1    3    3    0    0  0.11585691664E+03 -0.44440321420E+03 -0.78323998024E+03  0.90795479434E+03  0.00000000000E+00 0.  1.
        -13    1    3    3    0    0  0.13668090735E+03 -0.29094538145E+03 -0.64903850275E+03  0.72428023822E+03  0.00000000000E+00 0. -1.
         22    1    1    2    0    0 -0.25253782399E+03  0.73534859565E+03  0.21470721089E+04  0.22835129845E+04  0.00000000000E+00 0. -1.
<mgrwt>
<rscale>  0 0.38499549E+04</rscale>
<asrwt>0</asrwt>
<pdfrwt beam="1">  1        2 0.35619551E+00 0.38499549E+04</pdfrwt>
<pdfrwt beam="2">  1       -2 0.24622726E+00 0.38499549E+04</pdfrwt>
<totfact> 0.24059592E-01</totfact>
</mgrwt>
</event>
<event>
 6    1  0.9562506E-007  0.3074075E+04  0.7818608E-02  0.8222889E-01
          2   -1    0    0  501    0  0.00000000000E+00  0.00000000000E+00  0.11489798980E+04  0.11489798980E+04  0.00000000000E+00 0. -1.
         -2   -1    0    0    0  501 -0.00000000000E+00 -0.00000000000E+00 -0.20561586313E+04  0.20561586313E+04  0.00000000000E+00 0.  1.
         23    2    1    2    0    0 -0.96031762651E+03  0.81348612821E+03 -0.13715773766E+04  0.18636335072E+04  0.89082683069E+02 0.  0.
         11    1    3    3    0    0 -0.24617470424E+03  0.21053646647E+03 -0.29714303585E+03  0.43956975837E+03  0.00000000000E+00 0.  1.
        -11    1    3    3    0    0 -0.71414292227E+03  0.60294966174E+03 -0.10744343408E+04  0.14240637488E+04  0.00000000000E+00 0. -1.
         22    1    1    2    0    0  0.96031762651E+03 -0.81348612821E+03  0.46439864335E+03  0.13415050222E+04  0.00000000000E+00 0. -1.
<mgrwt>
<rscale>  0 0.30740754E+04</rscale>
<asrwt>0</asrwt>
<pdfrwt beam="1">  1        2 0.17676614E+00 0.30740754E+04</pdfrwt>
<pdfrwt beam="2">  1       -2 0.31633209E+00 0.30740754E+04</pdfrwt>
<totfact> 0.43630181E-01</totfact>
</mgrwt>
</event>
<event>
 6    1  0.9562506E-007  0.2053666E+04  0.7818608E-02  0.8581933E-01
          1   -1    0    0  501    0  0.00000000000E+00  0.00000000000E+00  0.24287440451E+04  0.24287440451E+04  0.00000000000E+00 0. -1.
         -1   -1    0    0    0  501 -0.00000000000E+00 -0.00000000000E+00 -0.43412814574E+03  0.43412814574E+03  0.00000000000E+00 0.  1.
         23    2    1    2    0    0  0.33029389666E+03 -0.23332967600E+03  0.23117514701E+04  0.23489541370E+04  0.99266723520E+02 0.  0.
         13    1    3    3    0    0  0.14440853717E+03 -0.61114475817E+02  0.69542053131E+03  0.71288043887E+03  0.00000000000E+00 0.  1.
        -13    1    3    3    0    0  0.18588535950E+03 -0.17221520018E+03  0.16163309388E+04  0.16360736981E+04  0.00000000000E+00 0. -1.
         22    1    1    2    0    0 -0.33029389666E+03  0.23332967600E+03 -0.31713557071E+03  0.51391805386E+03  0.00000000000E+00 0.  1.
<mgrwt>
<rscale>  0 0.20536661E+04</rscale>
<asrwt>0</asrwt>
<pdfrwt beam="1">  1        1 0.37365292E+00 0.20536661E+04</pdfrwt>
<pdfrwt beam="2">  1       -1 0.66788947E-01 0.20536661E+04</pdfrwt>
<totfact> 0.31837782E+00</totfact>
</mgrwt>
</event>
<event>
 6    1  0.9562506E-007  0.1828431E+04  0.7818608E-02  0.8691324E-01
          1   -1    0    0  501    0  0.00000000000E+00  0.00000000000E+00  0.21586261619E+04  0.21586261619E+04  0.00000000000E+00 0. -1.
         -1   -1    0    0    0  501 -0.00000000000E+00 -0.00000000000E+00 -0.38718625347E+03  0.38718625347E+03  0.00000000000E+00 0.  1.
         23    2    1    2    0    0  0.68643611736E+03 -0.55634330249E+03  0.12021851883E+04  0.14947351823E+04  0.90948473936E+02 0.  0.
         13    1    3    3    0    0  0.28320911323E+03 -0.22253861779E+03  0.56582787333E+03  0.67073990523E+03  0.00000000000E+00 0.  1.
        -13    1    3    3    0    0  0.40322700414E+03 -0.33380468470E+03  0.63635731494E+03  0.82399527709E+03  0.00000000000E+00 0. -1.
         22    1    1    2    0    0 -0.68643611736E+03  0.55634330249E+03  0.56925472019E+03  0.10510772331E+04  0.00000000000E+00 0.  1.
<mgrwt>
<rscale>  0 0.18284314E+04</rscale>
<asrwt>0</asrwt>
<pdfrwt beam="1">  1        1 0.33209632E+00 0.18284314E+04</pdfrwt>
<pdfrwt beam="2">  1       -1 0.59567118E-01 0.18284314E+04</pdfrwt>
<totfact> 0.62541817E+00</totfact>
</mgrwt>
</event>
<event>
 6    1  0.9562506E-007  0.1730813E+04  0.7818608E-02  0.8743983E-01
          1   -1    0    0  501    0  0.00000000000E+00  0.00000000000E+00  0.22194573281E+04  0.22194573281E+04  0.00000000000E+00 0. -1.
         -1   -1    0    0    0  501 -0.00000000000E+00 -0.00000000000E+00 -0.33743767154E+03  0.33743767154E+03  0.00000000000E+00 0.  1.
         23    2    1    2    0    0  0.38123330738E+03  0.60897486030E+03  0.16498080135E+04  0.18018377420E+04  0.92539462003E+02 0.  0.
         13    1    3    3    0    0  0.23699468967E+03  0.35205622161E+03  0.10792485388E+04  0.11596928364E+04  0.00000000000E+00 0. -1.
        -13    1    3    3    0    0  0.14423861771E+03  0.25691863869E+03  0.57055947461E+03  0.64214490562E+03  0.00000000000E+00 0.  1.
         22    1    1    2    0    0 -0.38123330738E+03 -0.60897486030E+03  0.23221164308E+03  0.75505725764E+03  0.00000000000E+00 0.  1.
<mgrwt>
<rscale>  0 0.17308131E+04</rscale>
<asrwt>0</asrwt>
<pdfrwt beam="1">  1        1 0.34145496E+00 0.17308131E+04</pdfrwt>
<pdfrwt beam="2">  1       -1 0.51913489E-01 0.17308131E+04</pdfrwt>
<totfact> 0.74960805E+00</totfact>
</mgrwt>
</event>
<event>
 6    1  0.9562506E-007  0.3470450E+04  0.7818608E-02  0.8120829E-01
         -2   -1    0    0    0  501 -0.00000000000E+00  0.00000000000E+00  0.21978111502E+04  0.21978111502E+04  0.00000000000E+00 0.  1.
          2   -1    0    0  501    0  0.00000000000E+00 -0.00000000000E+00 -0.13700018818E+04  0.13700018818E+04  0.00000000000E+00 0. -1.
         23    2    1    2    0    0 -0.27881444497E+03 -0.10849889070E+04 -0.94659909668E+03  0.14693699260E+04  0.89775869108E+02 0.  0.
         11    1    3    3    0    0 -0.12971533546E+03 -0.33903829840E+03 -0.31590337023E+03  0.48121510300E+03  0.00000000000E+00 0. -1.
        -11    1    3    3    0    0 -0.14909910951E+03 -0.74595060855E+03 -0.63069572645E+03  0.98815482300E+03  0.00000000000E+00 0.  1.
         22    1    1    2    0    0  0.27881444497E+03  0.10849889070E+04  0.17744083651E+04  0.20984431060E+04  0.00000000000E+00 0.  1.
<mgrwt>
<rscale>  0 0.34704498E+04</rscale>
<asrwt>0</asrwt>
<pdfrwt beam="1">  1        2 0.21076952E+00 0.34704498E+04</pdfrwt>
<pdfrwt beam="2">  1       -2 0.33812479E+00 0.34704498E+04</pdfrwt>
<totfact> 0.22902678E-01</totfact>
</mgrwt>
</event>
<event>
 6    1  0.9562506E-007  0.1088293E+04  0.7818608E-02  0.9216678E-01
         -1   -1    0    0    0  501 -0.00000000000E+00  0.00000000000E+00  0.30352443163E+03  0.30352443163E+03  0.00000000000E+00 0.  1.
          1   -1    0    0  501    0  0.00000000000E+00 -0.00000000000E+00 -0.97552385787E+03  0.97552385787E+03  0.00000000000E+00 0. -1.
         23    2    1    2    0    0  0.21228004156E+03  0.36314054609E+03  0.60184014947E+02  0.43463934603E+03  0.91407730577E+02 0.  0.
         11    1    3    3    0    0  0.13489587053E+03  0.14068036407E+03  0.28893835154E+02  0.19703480512E+03  0.00000000000E+00 0.  1.
        -11    1    3    3    0    0  0.77384171031E+02  0.22246018202E+03  0.31290179793E+02  0.23760454091E+03  0.00000000000E+00 0. -1.
         22    1    1    2    0    0 -0.21228004156E+03 -0.36314054609E+03 -0.73218344118E+03  0.84440894346E+03  0.00000000000E+00 0.  1.
<mgrwt>
<rscale>  0 0.10882928E+04</rscale>
<asrwt>0</asrwt>
<pdfrwt beam="1">  1        1 0.15008059E+00 0.10882928E+04</pdfrwt>
<pdfrwt beam="2">  1       -1 0.46696067E-01 0.10882928E+04</pdfrwt>
<totfact> 0.72032319E+01</totfact>
</mgrwt>
</event>
<event>
 6    1  0.9562506E-007  0.3403621E+04  0.7818608E-02  0.8137018E-01
         -2   -1    0    0    0  501 -0.00000000000E+00  0.00000000000E+00  0.13079969942E+04  0.13079969942E+04  0.00000000000E+00 0.  1.
          2   -1    0    0  501    0  0.00000000000E+00 -0.00000000000E+00 -0.22141938831E+04  0.22141938831E+04  0.00000000000E+00 0. -1.
         23    2    1    2    0    0 -0.16326968120E+04 -0.11001880435E+03  0.25619266273E+02  0.16390858976E+04  0.90239768816E+02 0.  0.
         11    1    3    3    0    0 -0.92208994311E+03 -0.19045701335E+02  0.26882565199E+02  0.92267831568E+03  0.00000000000E+00 0. -1.
        -11    1    3    3    0    0 -0.71060686888E+03 -0.90973103015E+02 -0.12632989263E+01  0.71640758196E+03  0.00000000000E+00 0.  1.
         22    1    1    2    0    0  0.16326968120E+04  0.11001880435E+03 -0.93181615518E+03  0.18831049796E+04  0.00000000000E+00 0. -1.
<mgrwt>
<rscale>  0 0.34036210E+04</rscale>
<asrwt>0</asrwt>
<pdfrwt beam="1">  1        2 0.34064521E+00 0.34036210E+04</pdfrwt>
<pdfrwt beam="2">  1       -2 0.20123031E+00 0.34036210E+04</pdfrwt>
<totfact> 0.54813927E-01</totfact>
</mgrwt>
</event>
<event>
 6    1  0.9562506E-007  0.2567234E+04  0.7818608E-02  0.8379417E-01
         -2   -1    0    0    0  501 -0.00000000000E+00  0.00000000000E+00  0.50210221141E+03  0.50210221141E+03  0.00000000000E+00 0.  1.
          2   -1    0    0  501    0  0.00000000000E+00 -0.00000000000E+00 -0.32815476479E+04  0.32815476479E+04  0.00000000000E+00 0. -1.
         23    2    1    2    0    0  0.34698378886E+03  0.67541656235E+03 -0.29138486367E+04  0.30125146555E+04  0.90251810969E+02 0.  0.
         13    1    3    3    0    0  0.10890972099E+03  0.14802363640E+03 -0.60759766342E+03  0.63478125748E+03  0.00000000000E+00 0. -1.
        -13    1    3    3    0    0  0.23807406787E+03  0.52739292594E+03 -0.23062509733E+04  0.23777333980E+04  0.00000000000E+00 0.  1.
         22    1    1    2    0    0 -0.34698378886E+03 -0.67541656235E+03  0.13440320019E+03  0.77113520387E+03  0.00000000000E+00 0.  1.
<mgrwt>
<rscale>  0 0.25672338E+04</rscale>
<asrwt>0</asrwt>
<pdfrwt beam="1">  1        2 0.50485346E+00 0.25672338E+04</pdfrwt>
<pdfrwt beam="2">  1       -2 0.77246497E-01 0.25672338E+04</pdfrwt>
<totfact> 0.15202404E+00</totfact>
</mgrwt>
</event>
<event>
 6    1  0.9562506E-007  0.1380276E+04  0.7818608E-02  0.8968221E-01
          1   -1    0    0  501    0  0.00000000000E+00  0.00000000000E+00  0.12680455408E+04  0.12680455408E+04  0.00000000000E+00 0. -1.
         -1   -1    0    0    0  501 -0.00000000000E+00 -0.00000000000E+00 -0.37560997294E+03  0.37560997294E+03  0.00000000000E+00 0.  1.
         23    2    1    2    0    0 -0.53533643219E+03  0.25666589703E+03  0.86034877727E+03  0.10491035476E+04  0.89195048725E+02 0.  0.
         11    1    3    3    0    0 -0.15606809166E+03  0.42112374184E+02  0.18853591830E+03  0.24834752623E+03  0.00000000000E+00 0. -1.
        -11    1    3    3    0    0 -0.37926834053E+03  0.21455352285E+03  0.67181285897E+03  0.80075602138E+03  0.00000000000E+00 0.  1.
         22    1    1    2    0    0  0.53533643219E+03 -0.25666589703E+03  0.32086790611E+02  0.59455196616E+03  0.00000000000E+00 0. -1.
<mgrwt>
<rscale>  0 0.13802761E+04</rscale>
<asrwt>0</asrwt>
<pdfrwt beam="1">  1        1 0.19508393E+00 0.13802761E+04</pdfrwt>
<pdfrwt beam="2">  1       -1 0.57786150E-01 0.13802761E+04</pdfrwt>
<totfact> 0.28248533E+01</totfact>
</mgrwt>
</event>
<event>
 6    1  0.9562506E-007  0.1469214E+04  0.7818608E-02  0.8905187E-01
          2   -1    0    0  501    0  0.00000000000E+00  0.00000000000E+00  0.99493170096E+03  0.99493170096E+03  0.00000000000E+00 0. -1.
         -2   -1    0    0    0  501 -0.00000000000E+00 -0.00000000000E+00 -0.54239656971E+03  0.54239656971E+03  0.00000000000E+00 0.  1.
         23    2    1    2    0    0  0.45071941909E+02  0.72222839733E+03  0.34197485476E+03  0.80529759331E+03  0.88949843415E+02 0.  0.
         11    1    3    3    0    0  0.67404792990E+02  0.45324724936E+03  0.23485680471E+03  0.51491183118E+03  0.00000000000E+00 0. -1.
        -11    1    3    3    0    0 -0.22332851081E+02  0.26898114797E+03  0.10711805005E+03  0.29038576213E+03  0.00000000000E+00 0.  1.
         22    1    1    2    0    0 -0.45071941909E+02 -0.72222839733E+03  0.11056027649E+03  0.73203067736E+03  0.00000000000E+00 0.  1.
<mgrwt>
<rscale>  0 0.14692141E+04</rscale>
<asrwt>0</asrwt>
<pdfrwt beam="1">  1        2 0.15306642E+00 0.14692141E+04</pdfrwt>
<pdfrwt beam="2">  1       -2 0.83445626E-01 0.14692141E+04</pdfrwt>
<totfact> 0.30890356E+01</totfact>
</mgrwt>
</event>
<event>
 6    1  0.9562506E-007  0.2351353E+04  0.7818608E-02  0.8457944E-01
         -2   -1    0    0    0  501 -0.00000000000E+00  0.00000000000E+00  0.85055840403E+03  0.85055840403E+03  0.00000000000E+00 0.  1.
          2   -1    0    0  501    0  0.00000000000E+00 -0.00000000000E+00 -0.16250683104E+04  0.16250683104E+04  0.00000000000E+00 0. -1.
         23    2    1    2    0    0 -0.43738756441E+03  0.17398862297E+03  0.74446367817E+03  0.88538752709E+03  0.90027676844E+02 0.  0.
         11    1    3    3    0    0 -0.24745789573E+03  0.51149836478E+02  0.37533818385E+03  0.45247151091E+03  0.00000000000E+00 0. -1.
        -11    1    3    3    0    0 -0.18992966868E+03  0.12283878649E+03  0.36912549432E+03  0.43291601618E+03  0.00000000000E+00 0.  1.
         22    1    1    2    0    0  0.43738756441E+03 -0.17398862297E+03 -0.15189735846E+04  0.15902391874E+04  0.00000000000E+00 0. -1.
<mgrwt>
<rscale>  0 0.23513532E+04</rscale>
<asrwt>0</asrwt>
<pdfrwt beam="1">  1        2 0.25001051E+00 0.23513532E+04</pdfrwt>
<pdfrwt beam="2">  1       -2 0.13085514E+00 0.23513532E+04</pdfrwt>
<totfact> 0.41644885E+00</totfact>
</mgrwt>
</event>
<event>
 6    1  0.9562506E-007  0.1020993E+04  0.7818608E-02  0.9285815E-01
         -1   -1    0    0    0  501 -0.00000000000E+00  0.00000000000E+00  0.37025118098E+03  0.37025118098E+03  0.00000000000E+00 0.  1.
          1   -1    0    0  501    0  0.00000000000E+00 -0.00000000000E+00 -0.70386510204E+03  0.70386510204E+03  0.00000000000E+00 0. -1.
         23    2    1    2    0    0 -0.71636623588E+02  0.47017485473E+03  0.14640565903E+02  0.48464415684E+03  0.92029412294E+02 0.  0.
         13    1    3    3    0    0 -0.37144233353E+02  0.47728877488E+02 -0.12917242832E+01  0.60493043974E+02  0.00000000000E+00 0.  1.
        -13    1    3    3    0    0 -0.34492390235E+02  0.42244597724E+03  0.15932290186E+02  0.42415111287E+03  0.00000000000E+00 0. -1.
         22    1    1    2    0    0  0.71636623588E+02 -0.47017485473E+03 -0.34825448696E+03  0.58947212618E+03  0.00000000000E+00 0. -1.
<mgrwt>
<rscale>  0 0.10209934E+04</rscale>
<asrwt>0</asrwt>
<pdfrwt beam="1">  1        1 0.10828694E+00 0.10209934E+04</pdfrwt>
<pdfrwt beam="2">  1       -1 0.56961721E-01 0.10209934E+04</pdfrwt>
<totfact> 0.84416935E+01</totfact>
</mgrwt>
</event>
<event>
 6    1  0.9562506E-007  0.3374594E+04  0.7818608E-02  0.8144170E-01
         -1   -1    0    0    0  501 -0.00000000000E+00  0.00000000000E+00  0.16823687940E+04  0.16823687940E+04  0.00000000000E+00 0.  1.
          1   -1    0    0  501    0  0.00000000000E+00 -0.00000000000E+00 -0.16922399628E+04  0.16922399628E+04  0.00000000000E+00 0. -1.
         23    2    1    2    0    0 -0.12350306641E+03 -0.12361629784E+04 -0.11447952942E+04  0.16919309246E+04  0.93392031036E+02 0.  0.
         11    1    3    3    0    0 -0.27534311990E+02 -0.66301780939E+03 -0.57464295659E+03  0.87781847865E+03  0.00000000000E+00 0.  1.
        -11    1    3    3    0    0 -0.95968754424E+02 -0.57314516899E+03 -0.57015233762E+03  0.81411244595E+03  0.00000000000E+00 0. -1.
         22    1    1    2    0    0  0.12350306641E+03  0.12361629784E+04  0.11349241254E+04  0.16826778322E+04  0.00000000000E+00 0.  1.
<mgrwt>
<rscale>  0 0.33745943E+04</rscale>
<asrwt>0</asrwt>
<pdfrwt beam="1">  1        1 0.26034461E+00 0.33745943E+04</pdfrwt>
<pdfrwt beam="2">  1       -1 0.25882597E+00 0.33745943E+04</pdfrwt>
<totfact> 0.24289634E-01</totfact>
</mgrwt>
</event>
<event>
 6    1  0.9562506E-007  0.1838981E+04  0.7818608E-02  0.8685840E-01
          2   -1    0    0  501    0  0.00000000000E+00  0.00000000000E+00  0.22727866940E+04  0.22727866940E+04  0.00000000000E+00 0. -1.
         -2   -1    0    0    0  501 -0.00000000000E+00 -0.00000000000E+00 -0.37199380001E+03  0.37199380001E+03  0.00000000000E+00 0.  1.
         23    2    1    2    0    0  0.10407818433E+02  0.61639891048E+03  0.19295323418E+04  0.20276241966E+04  0.90049347182E+02 0.  0.
         11    1    3    3    0    0  0.54981634904E+00  0.23379961218E+03  0.87841207164E+03  0.90899413010E+03  0.00000000000E+00 0. -1.
        -11    1    3    3    0    0  0.98580020839E+01  0.38259929830E+03  0.10511202702E+04  0.11186300665E+04  0.00000000000E+00 0.  1.
         22    1    1    2    0    0 -0.10407818433E+02 -0.61639891048E+03 -0.28739447865E+02  0.61715629738E+03  0.00000000000E+00 0.  1.
<mgrwt>
<rscale>  0 0.18389808E+04</rscale>
<asrwt>0</asrwt>
<pdfrwt beam="1">  1        2 0.34965948E+00 0.18389808E+04</pdfrwt>
<pdfrwt beam="2">  1       -2 0.57229817E-01 0.18389808E+04</pdfrwt>
<totfact> 0.12654040E+01</totfact>
</mgrwt>
</event>
<event>
 6    1  0.9562506E-007  0.2164725E+04  0.7818608E-02  0.8533256E-01
         -2   -1    0    0    0  501 -0.00000000000E+00  0.00000000000E+00  0.91638693343E+03  0.91638693343E+03  0.00000000000E+00 0.  1.
          2   -1    0    0  501    0  0.00000000000E+00 -0.00000000000E+00 -0.12783991320E+04  0.12783991320E+04  0.00000000000E+00 0. -1.
         23    2    1    2    0    0  0.12581585852E+03 -0.10407237488E+04 -0.44658660629E+03  0.11430787003E+04  0.90850242255E+02 0.  0.
         13    1    3    3    0    0  0.66002222214E+02 -0.24323118604E+03 -0.12171633339E+03  0.27987956162E+03  0.00000000000E+00 0. -1.
        -13    1    3    3    0    0  0.59813636305E+02 -0.79749256276E+03 -0.32487027290E+03  0.86319913864E+03  0.00000000000E+00 0.  1.
         22    1    1    2    0    0 -0.12581585852E+03  0.10407237488E+04  0.84574407682E+02  0.10517073652E+04  0.00000000000E+00 0.  1.
<mgrwt>
<rscale>  0 0.21647247E+04</rscale>
<asrwt>0</asrwt>
<pdfrwt beam="1">  1        2 0.19667679E+00 0.21647247E+04</pdfrwt>
<pdfrwt beam="2">  1       -2 0.14098260E+00 0.21647247E+04</pdfrwt>
<totfact> 0.55032366E+00</totfact>
</mgrwt>
</event>
<event>
 6    1  0.9562506E-007  0.1928406E+04  0.7818608E-02  0.8640845E-01
          1   -1    0    0  501    0  0.00000000000E+00  0.00000000000E+00  0.39288783346E+03  0.39288783346E+03  0.00000000000E+00 0. -1.
         -1   -1    0    0    0  501 -0.00000000000E+00 -0.00000000000E+00 -0.23662928394E+04  0.23662928394E+04  0.00000000000E+00 0.  1.
         23    2    1    2    0    0  0.88451112905E+03  0.26601058220E+03 -0.13745871194E+04  0.16584062053E+04  0.87748649666E+02 0.  0.
         11    1    3    3    0    0  0.48360362266E+03  0.10166902130E+03 -0.70980364427E+03  0.86488743034E+03  0.00000000000E+00 0. -1.
        -11    1    3    3    0    0  0.40090750639E+03  0.16434156090E+03 -0.66478347518E+03  0.79351877495E+03  0.00000000000E+00 0.  1.
         22    1    1    2    0    0 -0.88451112905E+03 -0.26601058220E+03 -0.59881788645E+03  0.11007744675E+04  0.00000000000E+00 0. -1.
<mgrwt>
<rscale>  0 0.19284063E+04</rscale>
<asrwt>0</asrwt>
<pdfrwt beam="1">  1        1 0.60444283E-01 0.19284063E+04</pdfrwt>
<pdfrwt beam="2">  1       -1 0.36404505E+00 0.19284063E+04</pdfrwt>
<totfact> 0.71991596E-01</totfact>
</mgrwt>
</event>
<event>
 6    1  0.9562506E-007  0.1308600E+04  0.7818608E-02  0.9022773E-01
          2   -1    0    0  501    0  0.00000000000E+00  0.00000000000E+00  0.15416829915E+04  0.15416829915E+04  0.00000000000E+00 0. -1.
         -2   -1    0    0    0  501 -0.00000000000E+00 -0.00000000000E+00 -0.27768893185E+03  0.27768893185E+03  0.00000000000E+00 0.  1.
         23    2    1    2    0    0  0.16454693285E+03  0.62770751492E+03  0.55879079763E+03  0.86103792200E+03  0.89703568571E+02 0.  0.
         13    1    3    3    0    0  0.89017862204E+02  0.39733061267E+03  0.40277966998E+03  0.57273663939E+03  0.00000000000E+00 0. -1.
        -13    1    3    3    0    0  0.75529070645E+02  0.23037690225E+03  0.15601112765E+03  0.28830128260E+03  0.00000000000E+00 0.  1.
         22    1    1    2    0    0 -0.16454693285E+03 -0.62770751492E+03  0.70520326206E+03  0.95833400139E+03  0.00000000000E+00 0.  1.
<mgrwt>
<rscale>  0 0.13085997E+04</rscale>
<asrwt>0</asrwt>
<pdfrwt beam="1">  1        2 0.23718199E+00 0.13085997E+04</pdfrwt>
<pdfrwt beam="2">  1       -2 0.42721375E-01 0.13085997E+04</pdfrwt>
<totfact> 0.61165533E+01</totfact>
</mgrwt>
</event>
<event>
 6    1  0.9562506E-007  0.2510417E+04  0.7818608E-02  0.8399284E-01
         -2   -1    0    0    0  501 -0.00000000000E+00  0.00000000000E+00  0.20956559493E+04  0.20956559493E+04  0.00000000000E+00 0.  1.
          2   -1    0    0  501    0  0.00000000000E+00 -0.00000000000E+00 -0.75181660290E+03  0.75181660290E+03  0.00000000000E+00 0. -1.
         23    2    1    2    0    0  0.35114141147E+03  0.94686832413E+03 -0.16925005465E+03  0.10283245512E+04  0.94582701630E+02 0.  0.
         13    1    3    3    0    0  0.28361904282E+03  0.66023142309E+03 -0.14311128638E+03  0.73268419785E+03  0.00000000000E+00 0. -1.
        -13    1    3    3    0    0  0.67522368651E+02  0.28663690104E+03 -0.26138768272E+02  0.29564035332E+03  0.00000000000E+00 0.  1.
         22    1    1    2    0    0 -0.35114141147E+03 -0.94686832413E+03  0.15130894010E+04  0.18191480010E+04  0.00000000000E+00 0.  1.
<mgrwt>
<rscale>  0 0.25104174E+04</rscale>
<asrwt>0</asrwt>
<pdfrwt beam="1">  1        2 0.11566409E+00 0.25104174E+04</pdfrwt>
<pdfrwt beam="2">  1       -2 0.32240861E+00 0.25104174E+04</pdfrwt>
<totfact> 0.77098005E-01</totfact>
</mgrwt>
</event>
<event>
 6    1  0.9562506E-007  0.2588383E+03  0.7818608E-02  0.1107843E+00
         -1   -1    0    0    0  501 -0.00000000000E+00  0.00000000000E+00  0.31512320534E+02  0.31512320534E+02  0.00000000000E+00 0.  1.
          1   -1    0    0  501    0  0.00000000000E+00 -0.00000000000E+00 -0.53151641948E+03  0.53151641948E+03  0.00000000000E+00 0. -1.
         23    2    1    2    0    0  0.53590661624E+02 -0.49456332902E+02 -0.94744261329E+02  0.15126008669E+03  0.92656628973E+02 0.  0.
         13    1    3    3    0    0 -0.28822444975E+01 -0.26128577793E+02  0.11505133972E+02  0.28694564268E+02  0.00000000000E+00 0.  1.
        -13    1    3    3    0    0  0.56472906122E+02 -0.23327755109E+02 -0.10624939530E+03  0.12256552242E+03  0.00000000000E+00 0. -1.
         22    1    1    2    0    0 -0.53590661624E+02  0.49456332902E+02 -0.40525983762E+03  0.41176865333E+03  0.00000000000E+00 0. -1.
<mgrwt>
<rscale>  0 0.25883830E+03</rscale>
<asrwt>0</asrwt>
<pdfrwt beam="1">  1        1 0.81771759E-01 0.25883830E+03</pdfrwt>
<pdfrwt beam="2">  1       -1 0.48480492E-02 0.25883830E+03</pdfrwt>
<totfact> 0.76083280E+03</totfact>
</mgrwt>
</event>
<event>
 6    1  0.9562506E-007  0.4248298E+04  0.7818608E-02  0.7956248E-01
          1   -1    0    0  501    0  0.00000000000E+00  0.00000000000E+00  0.29746959837E+04  0.29746959837E+04  0.00000000000E+00 0. -1.
         -1   -1    0    0    0  501 -0.00000000000E+00 -0.00000000000E+00 -0.15167967183E+04  0.15167967183E+04  0.00000000000E+00 0.  1.
         23    2    1    2    0    0 -0.16368992027E+04  0.13513743421E+04  0.68018538665E+03  0.22308533035E+04  0.91666184096E+02 0.  0.
         13    1    3    3    0    0 -0.40763389872E+03  0.30774607942E+03  0.19774738462E+03  0.54770162763E+03  0.00000000000E+00 0. -1.
        -13    1    3    3    0    0 -0.12292653040E+04  0.10436282627E+04  0.48243800203E+03  0.16831516759E+04  0.00000000000E+00 0.  1.
         22    1    1    2    0    0  0.16368992027E+04 -0.13513743421E+04  0.77771387877E+03  0.22606393984E+04  0.00000000000E+00 0.  1.
<mgrwt>
<rscale>  0 0.42482981E+04</rscale>
<asrwt>0</asrwt>
<pdfrwt beam="1">  1        1 0.45764553E+00 0.42482981E+04</pdfrwt>
<pdfrwt beam="2">  1       -1 0.23335334E+00 0.42482981E+04</pdfrwt>
<totfact> 0.42885173E-02</totfact>
</mgrwt>
</event>
<event>
 6    1  0.9562506E-007  0.1384541E+04  0.7818608E-02  0.8965085E-01
          2   -1    0    0  501    0  0.00000000000E+00  0.00000000000E+00  0.20853720840E+04  0.20853720840E+04  0.00000000000E+00 0. -1.
         -2   -1    0    0    0  501 -0.00000000000E+00 -0.00000000000E+00 -0.22980969163E+03  0.22980969163E+03  0.00000000000E+00 0.  1.
         23    2    1    2    0    0 -0.36956689054E+03  0.54895658059E+03  0.12535726644E+04  0.14205731202E+04  0.93008336695E+02 0.  0.
         13    1    3    3    0    0 -0.22506491461E+03  0.36004845190E+03  0.71057505714E+03  0.82777171692E+03  0.00000000000E+00 0. -1.
        -13    1    3    3    0    0 -0.14450197594E+03  0.18890812869E+03  0.54299760731E+03  0.59280140323E+03  0.00000000000E+00 0.  1.
         22    1    1    2    0    0  0.36956689054E+03 -0.54895658059E+03  0.60198972796E+03  0.89460865552E+03  0.00000000000E+00 0.  1.
<mgrwt>
<rscale>  0 0.13845414E+04</rscale>
<asrwt>0</asrwt>
<pdfrwt beam="1">  1        2 0.32082646E+00 0.13845414E+04</pdfrwt>
<pdfrwt beam="2">  1       -2 0.35355339E-01 0.13845414E+04</pdfrwt>
<totfact> 0.43881901E+01</totfact>
</mgrwt>
</event>
<event>
 6    1  0.9562506E-007  0.1523570E+04  0.7818608E-02  0.8868929E-01
          2   -1    0    0  501    0  0.00000000000E+00  0.00000000000E+00  0.42435982167E+03  0.42435982167E+03  0.00000000000E+00 0. -1.
         -2   -1    0    0    0  501 -0.00000000000E+00 -0.00000000000E+00 -0.13675093859E+04  0.13675093859E+04  0.00000000000E+00 0.  1.
         23    2    1    2    0    0  0.71843459813E+03  0.18362661482E+03 -0.66292969060E+03  0.99915855224E+03  0.94736647443E+02 0.  0.
         13    1    3    3    0    0  0.92050825623E+02  0.56517972748E+02 -0.10744114650E+03  0.15235234066E+03  0.00000000000E+00 0. -1.
        -13    1    3    3    0    0  0.62638377251E+03  0.12710864207E+03 -0.55548854409E+03  0.84680621158E+03  0.00000000000E+00 0.  1.
         22    1    1    2    0    0 -0.71843459813E+03 -0.18362661482E+03 -0.28021987358E+03  0.79271065529E+03  0.00000000000E+00 0.  1.
<mgrwt>
<rscale>  0 0.15235695E+04</rscale>
<asrwt>0</asrwt>
<pdfrwt beam="1">  1        2 0.65286127E-01 0.15235695E+04</pdfrwt>
<pdfrwt beam="2">  1       -2 0.21038606E+00 0.15235695E+04</pdfrwt>
<totfact> 0.81592026E+00</totfact>
</mgrwt>
</event>
<event>
 6    1  0.9562506E-007  0.2229137E+04  0.7818608E-02  0.8506398E-01
         -1   -1    0    0    0  501 -0.00000000000E+00  0.00000000000E+00  0.63555148037E+03  0.63555148037E+03  0.00000000000E+00 0.  1.
          1   -1    0    0  501    0  0.00000000000E+00 -0.00000000000E+00 -0.19546212865E+04  0.19546212865E+04  0.00000000000E+00 0. -1.
         23    2    1    2    0    0 -0.45934782081E+03  0.40684303781E+03  0.41806243303E+03  0.74785083674E+03  0.89347625610E+02 0.  0.
         11    1    3    3    0    0 -0.37149474233E+03  0.28307220642E+03  0.33553818433E+03  0.57508615943E+03  0.00000000000E+00 0. -1.
        -11    1    3    3    0    0 -0.87853078476E+02  0.12377083139E+03  0.82524248702E+02  0.17276467731E+03  0.00000000000E+00 0.  1.
         22    1    1    2    0    0  0.45934782081E+03 -0.40684303781E+03 -0.17371322392E+04  0.18423219301E+04  0.00000000000E+00 0. -1.
<mgrwt>
<rscale>  0 0.22291366E+04</rscale>
<asrwt>0</asrwt>
<pdfrwt beam="1">  1        1 0.30071096E+00 0.22291366E+04</pdfrwt>
<pdfrwt beam="2">  1       -1 0.97777152E-01 0.22291366E+04</pdfrwt>
<totfact> 0.29181925E+00</totfact>
</mgrwt>
</event>
<event>
 6    1  0.9562506E-007  0.1170921E+04  0.7818608E-02  0.9138697E-01
         -1   -1    0    0    0  501 -0.00000000000E+00  0.00000000000E+00  0.25975313866E+03  0.25975313866E+03  0.00000000000E+00 0.  1.
          1   -1    0    0  501    0  0.00000000000E+00 -0.00000000000E+00 -0.13195756423E+04  0.13195756423E+04  0.00000000000E+00 0. -1.
         23    2    1    2    0    0 -0.46742328957E+03 -0.25288050875E+03 -0.85288989924E+03  0.10090181760E+04  0.90903333320E+02 0.  0.
         11    1    3    3    0    0 -0.45662184211E+02 -0.57058085683E+02 -0.95170774775E+02  0.11999223550E+03  0.00000000000E+00 0. -1.
        -11    1    3    3    0    0 -0.42176110536E+03 -0.19582242307E+03 -0.75771912446E+03  0.88902594054E+03  0.00000000000E+00 0.  1.
         22    1    1    2    0    0  0.46742328957E+03  0.25288050875E+03 -0.20693260443E+03  0.57031060495E+03  0.00000000000E+00 0.  1.
<mgrwt>
<rscale>  0 0.11709209E+04</rscale>
<asrwt>0</asrwt>
<pdfrwt beam="1">  1        1 0.20301165E+00 0.11709209E+04</pdfrwt>
<pdfrwt beam="2">  1       -1 0.39962020E-01 0.11709209E+04</pdfrwt>
<totfact> 0.52976607E+01</totfact>
</mgrwt>
</event>
<event>
 6    1  0.9562506E-007  0.1339787E+04  0.7818608E-02  0.8998596E-01
         -1   -1    0    0    0  501 -0.00000000000E+00  0.00000000000E+00  0.56534920648E+03  0.56534920648E+03  0.00000000000E+00 0.  1.
          1   -1    0    0  501    0  0.00000000000E+00 -0.00000000000E+00 -0.79376986527E+03  0.79376986527E+03  0.00000000000E+00 0. -1.
         23    2    1    2    0    0 -0.58293577555E+03 -0.18607713950E+03  0.15357383290E+03  0.63776020686E+03  0.93350624163E+02 0.  0.
         13    1    3    3    0    0 -0.54283582777E+03 -0.16890194776E+03  0.11607388521E+03  0.58023422054E+03  0.00000000000E+00 0. -1.
        -13    1    3    3    0    0 -0.40099947789E+02 -0.17175191748E+02  0.37499947698E+02  0.57525986316E+02  0.00000000000E+00 0.  1.
         22    1    1    2    0    0  0.58293577555E+03  0.18607713950E+03 -0.38199449170E+03  0.72135886489E+03  0.00000000000E+00 0. -1.
<mgrwt>
<rscale>  0 0.13397868E+04</rscale>
<asrwt>0</asrwt>
<pdfrwt beam="1">  1        1 0.12211844E+00 0.13397868E+04</pdfrwt>
<pdfrwt beam="2">  1       -1 0.86976801E-01 0.13397868E+04</pdfrwt>
<totfact> 0.28571553E+01</totfact>
</mgrwt>
</event>
<event>
 6    1  0.9562506E-007  0.2252749E+04  0.7818608E-02  0.8496788E-01
          2   -1    0    0  501    0  0.00000000000E+00  0.00000000000E+00  0.54982837034E+03  0.54982837034E+03  0.00000000000E+00 0. -1.
         -2   -1    0    0    0  501 -0.00000000000E+00 -0.00000000000E+00 -0.23074829029E+04  0.23074829029E+04  0.00000000000E+00 0.  1.
         23    2    1    2    0    0 -0.36660929212E+03  0.97253660381E+03 -0.33550947060E+03  0.10958555128E+04  0.90016005191E+02 0.  0.
         11    1    3    3    0    0 -0.14102573048E+03  0.29108794641E+03 -0.13557690524E+03  0.35071576303E+03  0.00000000000E+00 0. -1.
        -11    1    3    3    0    0 -0.22558356163E+03  0.68144865740E+03 -0.19993256536E+03  0.74513974974E+03  0.00000000000E+00 0.  1.
         22    1    1    2    0    0  0.36660929212E+03 -0.97253660381E+03 -0.14221450620E+04  0.17614557605E+04  0.00000000000E+00 0.  1.
<mgrwt>
<rscale>  0 0.22527490E+04</rscale>
<asrwt>0</asrwt>
<pdfrwt beam="1">  1        2 0.84588979E-01 0.22527490E+04</pdfrwt>
<pdfrwt beam="2">  1       -2 0.35499737E+00 0.22527490E+04</pdfrwt>
<totfact> 0.72603219E-01</totfact>
</mgrwt>
</event>
<event>
 6    1  0.9562506E-007  0.2661303E+04  0.7818608E-02  0.8347671E-01
          2   -1    0    0  501    0  0.00000000000E+00  0.00000000000E+00  0.33469211289E+04  0.33469211289E+04  0.00000000000E+00 0. -1.
         -2   -1    0    0    0  501 -0.00000000000E+00 -0.00000000000E+00 -0.52903344792E+03  0.52903344792E+03  0.00000000000E+00 0.  1.
         23    2    1    2    0    0  0.31289550673E+03  0.12481984776E+04  0.18946753348E+04  0.22922172016E+04  0.92531278854E+02 0.  0.
         13    1    3    3    0    0  0.18429718440E+03  0.84873652094E+03  0.13358543971E+04  0.15933694187E+04  0.00000000000E+00 0.  1.
        -13    1    3    3    0    0  0.12859832234E+03  0.39946195661E+03  0.55882093771E+03  0.69884778293E+03  0.00000000000E+00 0. -1.
         22    1    1    2    0    0 -0.31289550673E+03 -0.12481984776E+04  0.92321234616E+03  0.15837373752E+04  0.00000000000E+00 0.  1.
<mgrwt>
<rscale>  0 0.26613029E+04</rscale>
<asrwt>0</asrwt>
<pdfrwt beam="1">  1        2 0.51491093E+00 0.26613029E+04</pdfrwt>
<pdfrwt beam="2">  1       -2 0.81389763E-01 0.26613029E+04</pdfrwt>
<totfact> 0.12123957E+00</totfact>
</mgrwt>
</event>
<event>
 6    1  0.9562506E-007  0.1259083E+04  0.7818608E-02  0.9062657E-01
         -1   -1    0    0    0  501 -0.00000000000E+00  0.00000000000E+00  0.51344813764E+03  0.51344813764E+03  0.00000000000E+00 0.  1.
          1   -1    0    0  501    0  0.00000000000E+00 -0.00000000000E+00 -0.77188449780E+03  0.77188449780E+03  0.00000000000E+00 0. -1.
         23    2    1    2    0    0  0.15593250986E+03  0.50386705358E+03  0.21496702212E+03  0.57659592997E+03  0.89750156239E+02 0.  0.
         13    1    3    3    0    0  0.30245567386E+02  0.21700307130E+03  0.60022231381E+02  0.22717349220E+03  0.00000000000E+00 0. -1.
        -13    1    3    3    0    0  0.12568694248E+03  0.28686398229E+03  0.15494479074E+03  0.34942243777E+03  0.00000000000E+00 0.  1.
         22    1    1    2    0    0 -0.15593250986E+03 -0.50386705358E+03 -0.47340338229E+03  0.70873670547E+03  0.00000000000E+00 0. -1.
<mgrwt>
<rscale>  0 0.12590833E+04</rscale>
<asrwt>0</asrwt>
<pdfrwt beam="1">  1        1 0.11875146E+00 0.12590833E+04</pdfrwt>
<pdfrwt beam="2">  1       -1 0.78992021E-01 0.12590833E+04</pdfrwt>
<totfact> 0.36986679E+01</totfact>
</mgrwt>
</event>
<event>
 6    1  0.9562506E-007  0.2145521E+04  0.7818608E-02  0.8541452E-01
          4   -1    0    0  501    0  0.00000000000E+00  0.00000000000E+00  0.50458359562E+03  0.50458359562E+03  0.00000000000E+00 0. -1.
         -4   -1    0    0    0  501 -0.00000000000E+00 -0.00000000000E+00 -0.22807230280E+04  0.22807230280E+04  0.00000000000E+00 0.  1.
         23    2    1    2    0    0 -0.91027877247E+03 -0.46030779066E+03 -0.46571562560E+03  0.11246738349E+04  0.86657285585E+02 0.  0.
         11    1    3    3    0    0 -0.27080438347E+03 -0.10017772028E+03 -0.10854726309E+03  0.30846895804E+03  0.00000000000E+00 0. -1.
        -11    1    3    3    0    0 -0.63947438900E+03 -0.36013007038E+03 -0.35716836251E+03  0.81620487683E+03  0.00000000000E+00 0.  1.
         22    1    1    2    0    0  0.91027877247E+03  0.46030779066E+03 -0.13104238068E+04  0.16606327888E+04  0.00000000000E+00 0. -1.
<mgrwt>
<rscale>  0 0.21455213E+04</rscale>
<asrwt>0</asrwt>
<pdfrwt beam="1">  1        4 0.77628246E-01 0.21455213E+04</pdfrwt>
<pdfrwt beam="2">  1       -4 0.35088046E+00 0.21455213E+04</pdfrwt>
<totfact> 0.39989384E-02</totfact>
</mgrwt>
</event>
<event>
 6    1  0.9562506E-007  0.1038915E+04  0.7818608E-02  0.9266864E-01
          2   -1    0    0  501    0  0.00000000000E+00  0.00000000000E+00  0.11887003153E+04  0.11887003153E+04  0.00000000000E+00 0. -1.
         -2   -1    0    0    0  501 -0.00000000000E+00 -0.00000000000E+00 -0.22700090592E+03  0.22700090592E+03  0.00000000000E+00 0.  1.
         23    2    1    2    0    0  0.14133639581E+03 -0.51129006278E+02  0.11564478515E+04  0.11696989697E+04  0.90740809511E+02 0.  0.
         11    1    3    3    0    0  0.43848453690E+02 -0.10219026361E+02  0.68787874932E+03  0.68935062860E+03  0.00000000000E+00 0. -1.
        -11    1    3    3    0    0  0.97487942116E+02 -0.40909979917E+02  0.46856910218E+03  0.48034834114E+03  0.00000000000E+00 0.  1.
         22    1    1    2    0    0 -0.14133639581E+03  0.51129006278E+02 -0.19474844208E+03  0.24600225152E+03  0.00000000000E+00 0.  1.
<mgrwt>
<rscale>  0 0.10389149E+04</rscale>
<asrwt>0</asrwt>
<pdfrwt beam="1">  1        2 0.18287697E+00 0.10389149E+04</pdfrwt>
<pdfrwt beam="2">  1       -2 0.34923217E-01 0.10389149E+04</pdfrwt>
<totfact> 0.14728675E+02</totfact>
</mgrwt>
</event>
<event>
 6    1  0.9562506E-007  0.2127453E+04  0.7818608E-02  0.8549246E-01
         -2   -1    0    0    0  501 -0.00000000000E+00  0.00000000000E+00  0.34305997188E+03  0.34305997188E+03  0.00000000000E+00 0.  1.
          2   -1    0    0  501    0  0.00000000000E+00 -0.00000000000E+00 -0.32982975496E+04  0.32982975496E+04  0.00000000000E+00 0. -1.
         23    2    1    2    0    0  0.94040610552E+03 -0.74645143949E+02 -0.64672147142E+03  0.11475287074E+04  0.92940475302E+02 0.  0.
         11    1    3    3    0    0  0.50802367344E+03 -0.85966077553E+02 -0.34124438167E+03  0.61800157547E+03  0.00000000000E+00 0. -1.
        -11    1    3    3    0    0  0.43238243208E+03  0.11320933605E+02 -0.30547708975E+03  0.52952713195E+03  0.00000000000E+00 0.  1.
         22    1    1    2    0    0 -0.94040610552E+03  0.74645143949E+02 -0.23085161063E+04  0.24938288140E+04  0.00000000000E+00 0. -1.
<mgrwt>
<rscale>  0 0.21274528E+04</rscale>
<asrwt>0</asrwt>
<pdfrwt beam="1">  1        2 0.50743042E+00 0.21274528E+04</pdfrwt>
<pdfrwt beam="2">  1       -2 0.52778455E-01 0.21274528E+04</pdfrwt>
<totfact> 0.34879201E+00</totfact>
</mgrwt>
</event>
<event>
 6    1  0.9562506E-007  0.3529353E+04  0.7818608E-02  0.8106869E-01
          2   -1    0    0  501    0  0.00000000000E+00  0.00000000000E+00  0.20508183619E+04  0.20508183619E+04  0.00000000000E+00 0. -1.
         -2   -1    0    0    0  501 -0.00000000000E+00 -0.00000000000E+00 -0.15184586047E+04  0.15184586047E+04  0.00000000000E+00 0.  1.
         23    2    1    2    0    0  0.47194209044E+03  0.20263291470E+03  0.19725156078E+04  0.20402778466E+04  0.90146733286E+02 0.  0.
         11    1    3    3    0    0  0.36670347672E+03  0.11752631448E+03  0.15140196312E+04  0.15622225572E+04  0.00000000000E+00 0. -1.
        -11    1    3    3    0    0  0.10523861373E+03  0.85106600220E+02  0.45849597656E+03  0.47805528942E+03  0.00000000000E+00 0.  1.
         22    1    1    2    0    0 -0.47194209044E+03 -0.20263291470E+03 -0.14401558507E+04  0.15289991200E+04  0.00000000000E+00 0.  1.
<mgrwt>
<rscale>  0 0.35293528E+04</rscale>
<asrwt>0</asrwt>
<pdfrwt beam="1">  1        2 0.31551052E+00 0.35293528E+04</pdfrwt>
<pdfrwt beam="2">  1       -2 0.23360902E+00 0.35293528E+04</pdfrwt>
<totfact> 0.41653315E-01</totfact>
</mgrwt>
</event>
<event>
 6    1  0.9562506E-007  0.6260039E+04  0.7818608E-02  0.7658970E-01
          2   -1    0    0  501    0  0.00000000000E+00  0.00000000000E+00  0.43415077218E+04  0.43415077218E+04  0.00000000000E+00 0. -1.
         -2   -1    0    0    0  501 -0.00000000000E+00 -0.00000000000E+00 -0.22565941524E+04  0.22565941524E+04  0.00000000000E+00 0.  1.
         23    2    1    2    0    0  0.37668080200E+03 -0.22225493531E+04 -0.12450957917E+04  0.25768363521E+04  0.90598021653E+02 0.  0.
         13    1    3    3    0    0  0.62086118916E+02 -0.40819374094E+03 -0.18941597418E+03  0.45426339009E+03  0.00000000000E+00 0. -1.
        -13    1    3    3    0    0  0.31459468309E+03 -0.18143556122E+04 -0.10556798175E+04  0.21225729620E+04  0.00000000000E+00 0.  1.
         22    1    1    2    0    0 -0.37668080200E+03  0.22225493531E+04  0.33300093611E+04  0.40212655220E+04  0.00000000000E+00 0. -1.
<mgrwt>
<rscale>  0 0.62600386E+04</rscale>
<asrwt>0</asrwt>
<pdfrwt beam="1">  1        2 0.66792426E+00 0.62600386E+04</pdfrwt>
<pdfrwt beam="2">  1       -2 0.34716833E+00 0.62600386E+04</pdfrwt>
<totfact> 0.18421918E-03</totfact>
</mgrwt>
</event>
<event>
 6    1  0.9562506E-007  0.4100384E+04  0.7818608E-02  0.7984596E-01
          2   -1    0    0  501    0  0.00000000000E+00  0.00000000000E+00  0.32108453185E+04  0.32108453185E+04  0.00000000000E+00 0. -1.
         -2   -1    0    0    0  501 -0.00000000000E+00 -0.00000000000E+00 -0.13090907787E+04  0.13090907787E+04  0.00000000000E+00 0.  1.
         23    2    1    2    0    0  0.14705202979E+04 -0.14269388359E+04  0.97848720506E+03  0.22724915574E+04  0.90533307750E+02 0.  0.
         11    1    3    3    0    0  0.90235729023E+03 -0.90766237240E+03  0.56949436634E+03  0.14008652665E+04  0.00000000000E+00 0.  1.
        -11    1    3    3    0    0  0.56816300768E+03 -0.51927646352E+03  0.40899283872E+03  0.87162629090E+03  0.00000000000E+00 0. -1.
         22    1    1    2    0    0 -0.14705202979E+04  0.14269388359E+04  0.92326733476E+03  0.22474445398E+04  0.00000000000E+00 0. -1.
<mgrwt>
<rscale>  0 0.41003844E+04</rscale>
<asrwt>0</asrwt>
<pdfrwt beam="1">  1        2 0.49397620E+00 0.41003844E+04</pdfrwt>
<pdfrwt beam="2">  1       -2 0.20139858E+00 0.41003844E+04</pdfrwt>
<totfact> 0.12986575E-01</totfact>
</mgrwt>
</event>
<event>
 6    1  0.9562506E-007  0.2755202E+04  0.7818608E-02  0.8317313E-01
          1   -1    0    0  501    0  0.00000000000E+00  0.00000000000E+00  0.14984317702E+04  0.14984317702E+04  0.00000000000E+00 0. -1.
         -1   -1    0    0    0  501 -0.00000000000E+00 -0.00000000000E+00 -0.12665137983E+04  0.12665137983E+04  0.00000000000E+00 0.  1.
         23    2    1    2    0    0 -0.24339212597E+02  0.75152027071E+03 -0.10405000222E+04  0.12869663175E+04  0.90922448628E+02 0.  0.
         13    1    3    3    0    0  0.28585164736E+02  0.44193718200E+03 -0.58664495266E+03  0.73503597528E+03  0.00000000000E+00 0. -1.
        -13    1    3    3    0    0 -0.52924377333E+02  0.30958308870E+03 -0.45385506954E+03  0.55193034223E+03  0.00000000000E+00 0.  1.
         22    1    1    2    0    0  0.24339212597E+02 -0.75152027071E+03  0.12724179941E+04  0.14779792510E+04  0.00000000000E+00 0. -1.
<mgrwt>
<rscale>  0 0.27552020E+04</rscale>
<asrwt>0</asrwt>
<pdfrwt beam="1">  1        1 0.23052796E+00 0.27552020E+04</pdfrwt>
<pdfrwt beam="2">  1       -1 0.19484828E+00 0.27552020E+04</pdfrwt>
<totfact> 0.93139801E-01</totfact>
</mgrwt>
</event>
<event>
 6    1  0.9562506E-007  0.1486703E+04  0.7818608E-02  0.8893344E-01
          2   -1    0    0  501    0  0.00000000000E+00  0.00000000000E+00  0.18915629450E+04  0.18915629450E+04  0.00000000000E+00 0. -1.
         -2   -1    0    0    0  501 -0.00000000000E+00 -0.00000000000E+00 -0.29212428287E+03  0.29212428287E+03  0.00000000000E+00 0.  1.
         23    2    1    2    0    0 -0.30515581371E+03  0.46208585437E+02 -0.18616270473E+03  0.37160898856E+03  0.90451001876E+02 0.  0.
         13    1    3    3    0    0 -0.14275110876E+03  0.66993315185E+02 -0.84834842252E+02  0.17906125709E+03  0.00000000000E+00 0.  1.
        -13    1    3    3    0    0 -0.16240470495E+03 -0.20784729748E+02 -0.10132786248E+03  0.19254773147E+03  0.00000000000E+00 0. -1.
         22    1    1    2    0    0  0.30515581371E+03 -0.46208585437E+02  0.17856013669E+04  0.18120782393E+04  0.00000000000E+00 0. -1.
<mgrwt>
<rscale>  0 0.14867030E+04</rscale>
<asrwt>0</asrwt>
<pdfrwt beam="1">  1        2 0.29100968E+00 0.14867030E+04</pdfrwt>
<pdfrwt beam="2">  1       -2 0.44942198E-01 0.14867030E+04</pdfrwt>
<totfact> 0.34860842E+01</totfact>
</mgrwt>
</event>
<event>
 6    1  0.9562506E-007  0.2976884E+04  0.7818608E-02  0.8250363E-01
          1   -1    0    0  501    0  0.00000000000E+00  0.00000000000E+00  0.27105992736E+04  0.27105992736E+04  0.00000000000E+00 0. -1.
         -1   -1    0    0    0  501 -0.00000000000E+00 -0.00000000000E+00 -0.81733197614E+03  0.81733197614E+03  0.00000000000E+00 0.  1.
         23    2    1    2    0    0 -0.12360227283E+04  0.10145190816E+03 -0.24418018487E+02  0.12441708320E+04  0.96540899248E+02 0.  0.
         11    1    3    3    0    0 -0.70849011372E+03  0.71673966998E+02 -0.59815372796E+02  0.71461407599E+03  0.00000000000E+00 0. -1.
        -11    1    3    3    0    0 -0.52753261454E+03  0.29777941163E+02  0.35397354309E+02  0.52955675604E+03  0.00000000000E+00 0.  1.
         22    1    1    2    0    0  0.12360227283E+04 -0.10145190816E+03  0.19176853159E+04  0.22837604177E+04  0.00000000000E+00 0. -1.
<mgrwt>
<rscale>  0 0.29768839E+04</rscale>
<asrwt>0</asrwt>
<pdfrwt beam="1">  1        1 0.41701527E+00 0.29768839E+04</pdfrwt>
<pdfrwt beam="2">  1       -1 0.12574338E+00 0.29768839E+04</pdfrwt>
<totfact> 0.45330771E-01</totfact>
</mgrwt>
</event>
<event>
 6    1  0.9562506E-007  0.3811780E+04  0.7818608E-02  0.8043632E-01
          2   -1    0    0  501    0  0.00000000000E+00  0.00000000000E+00  0.19965497158E+04  0.19965497158E+04  0.00000000000E+00 0. -1.
         -2   -1    0    0    0  501 -0.00000000000E+00 -0.00000000000E+00 -0.18193467546E+04  0.18193467546E+04  0.00000000000E+00 0.  1.
         23    2    1    2    0    0 -0.39020617143E+03 -0.10068145735E+04 -0.14822047805E+04  0.18361059525E+04  0.91747566343E+02 0.  0.
         11    1    3    3    0    0 -0.14949366394E+03 -0.49593721182E+03 -0.67072605285E+03  0.84745236538E+03  0.00000000000E+00 0. -1.
        -11    1    3    3    0    0 -0.24071250748E+03 -0.51087736169E+03 -0.81147872761E+03  0.98865358712E+03  0.00000000000E+00 0.  1.
         22    1    1    2    0    0  0.39020617143E+03  0.10068145735E+04  0.16594077417E+04  0.19797905179E+04  0.00000000000E+00 0. -1.
<mgrwt>
<rscale>  0 0.38117798E+04</rscale>
<asrwt>0</asrwt>
<pdfrwt beam="1">  1        2 0.30716150E+00 0.38117798E+04</pdfrwt>
<pdfrwt beam="2">  1       -2 0.27989950E+00 0.38117798E+04</pdfrwt>
<totfact> 0.22671334E-01</totfact>
</mgrwt>
</event>
<event>
 6    1  0.9562506E-007  0.7194133E+03  0.7818608E-02  0.9684597E-01
         -2   -1    0    0    0  501 -0.00000000000E+00  0.00000000000E+00  0.80511102070E+02  0.80511102070E+02  0.00000000000E+00 0.  1.
          2   -1    0    0  501    0  0.00000000000E+00 -0.00000000000E+00 -0.16070935462E+04  0.16070935462E+04  0.00000000000E+00 0. -1.
         23    2    1    2    0    0  0.56953032245E+02 -0.25627150206E+03 -0.21896027170E+03  0.35389010741E+03  0.91519816965E+02 0.  0.
         13    1    3    3    0    0 -0.16077021708E+02 -0.85003876938E+01 -0.61173334424E+01  0.19187208926E+02  0.00000000000E+00 0.  1.
        -13    1    3    3    0    0  0.73030053953E+02 -0.24777111436E+03 -0.21284293825E+03  0.33470289849E+03  0.00000000000E+00 0. -1.
         22    1    1    2    0    0 -0.56953032245E+02  0.25627150206E+03 -0.13076221724E+04  0.13337145409E+04  0.00000000000E+00 0. -1.
<mgrwt>
<rscale>  0 0.71941330E+03</rscale>
<asrwt>0</asrwt>
<pdfrwt beam="1">  1        2 0.24724516E+00 0.71941330E+03</pdfrwt>
<pdfrwt beam="2">  1       -2 0.12386324E-01 0.71941330E+03</pdfrwt>
<totfact> 0.54228622E+02</totfact>
</mgrwt>
</event>
<event>
 6    1  0.9562506E-007  0.2523407E+04  0.7818608E-02  0.8394694E-01
          1   -1    0    0  501    0  0.00000000000E+00  0.00000000000E+00  0.87822293037E+03  0.87822293037E+03  0.00000000000E+00 0. -1.
         -1   -1    0    0    0  501 -0.00000000000E+00 -0.00000000000E+00 -0.18126329461E+04  0.18126329461E+04  0.00000000000E+00 0.  1.
         23    2    1    2    0    0  0.94401499955E+03 -0.42815993025E+03 -0.12318420318E+04  0.16124537950E+04  0.89928884842E+02 0.  0.
         11    1    3    3    0    0  0.86321242900E+03 -0.41701492356E+03 -0.11442437988E+04  0.14927595302E+04  0.00000000000E+00 0. -1.
        -11    1    3    3    0    0  0.80802570551E+02 -0.11145006693E+02 -0.87598233097E+02  0.11969426479E+03  0.00000000000E+00 0.  1.
         22    1    1    2    0    0 -0.94401499955E+03  0.42815993025E+03  0.29743201608E+03  0.10784020815E+04  0.00000000000E+00 0. -1.
<mgrwt>
<rscale>  0 0.25234071E+04</rscale>
<asrwt>0</asrwt>
<pdfrwt beam="1">  1        1 0.13511122E+00 0.25234071E+04</pdfrwt>
<pdfrwt beam="2">  1       -1 0.27886661E+00 0.25234071E+04</pdfrwt>
<totfact> 0.76116660E-01</totfact>
</mgrwt>
</event>
<event>
 6    1  0.9562506E-007  0.2784246E+04  0.7818608E-02  0.8308176E-01
         -1   -1    0    0    0  501 -0.00000000000E+00  0.00000000000E+00  0.15244093948E+04  0.15244093948E+04  0.00000000000E+00 0.  1.
          1   -1    0    0  501    0  0.00000000000E+00 -0.00000000000E+00 -0.12713158452E+04  0.12713158452E+04  0.00000000000E+00 0. -1.
         23    2    1    2    0    0 -0.10352453537E+04 -0.13524612248E+03  0.10490850296E+04  0.14828555236E+04  0.90866102924E+02 0.  0.
         13    1    3    3    0    0 -0.18805989972E+03  0.20043336838E+01  0.15731919829E+03  0.24519354271E+03  0.00000000000E+00 0.  1.
        -13    1    3    3    0    0 -0.84718545402E+03 -0.13725045617E+03  0.89176583128E+03  0.12376619809E+04  0.00000000000E+00 0. -1.
         22    1    1    2    0    0  0.10352453537E+04  0.13524612248E+03 -0.79599147994E+03  0.13128697164E+04  0.00000000000E+00 0. -1.
<mgrwt>
<rscale>  0 0.27842455E+04</rscale>
<asrwt>0</asrwt>
<pdfrwt beam="1">  1        1 0.19558705E+00 0.27842455E+04</pdfrwt>
<pdfrwt beam="2">  1       -1 0.23452452E+00 0.27842455E+04</pdfrwt>
<totfact> 0.72437455E-01</totfact>
</mgrwt>
</event>
<event>
 6    1  0.9562506E-007  0.5054236E+03  0.7818608E-02  0.1012373E+00
         -2   -1    0    0    0  501 -0.00000000000E+00  0.00000000000E+00  0.59841447724E+02  0.59841447724E+02  0.00000000000E+00 0.  1.
          2   -1    0    0  501    0  0.00000000000E+00 -0.00000000000E+00 -0.10672077114E+04  0.10672077114E+04  0.00000000000E+00 0. -1.
         23    2    1    2    0    0 -0.23717054529E+03 -0.50365788288E+02 -0.58999970134E+03  0.64436766213E+03  0.91232977760E+02 0.  0.
         11    1    3    3    0    0 -0.23139824836E+03 -0.32138187563E+02 -0.49365361177E+03  0.54614274769E+03  0.00000000000E+00 0.  1.
        -11    1    3    3    0    0 -0.57722969283E+01 -0.18227600726E+02 -0.96346089575E+02  0.98224914438E+02  0.00000000000E+00 0. -1.
         22    1    1    2    0    0  0.23717054529E+03  0.50365788288E+02 -0.41736656229E+03  0.48268149695E+03  0.00000000000E+00 0.  1.
<mgrwt>
<rscale>  0 0.50542360E+03</rscale>
<asrwt>0</asrwt>
<pdfrwt beam="1">  1        2 0.16418579E+00 0.50542360E+03</pdfrwt>
<pdfrwt beam="2">  1       -2 0.92063775E-02 0.50542360E+03</pdfrwt>
<totfact> 0.18066175E+03</totfact>
</mgrwt>
</event>
<event>
 6    1  0.9562506E-007  0.1490716E+04  0.7818608E-02  0.8890650E-01
         -2   -1    0    0    0  501 -0.00000000000E+00  0.00000000000E+00  0.41486353857E+03  0.41486353857E+03  0.00000000000E+00 0.  1.
          2   -1    0    0  501    0  0.00000000000E+00 -0.00000000000E+00 -0.13391362415E+04  0.13391362415E+04  0.00000000000E+00 0. -1.
         23    2    1    2    0    0 -0.12017429535E+03  0.33713467933E+02 -0.13251314628E+04  0.13341590906E+04  0.91807549535E+02 0.  0.
         11    1    3    3    0    0 -0.49642147795E+02  0.58345590841E+02 -0.52702400583E+03  0.53256253486E+03  0.00000000000E+00 0.  1.
        -11    1    3    3    0    0 -0.70532147551E+02 -0.24632122909E+02 -0.79810745695E+03  0.80159655573E+03  0.00000000000E+00 0. -1.
         22    1    1    2    0    0  0.12017429535E+03 -0.33713467933E+02  0.40085875986E+03  0.41984068948E+03  0.00000000000E+00 0.  1.
<mgrwt>
<rscale>  0 0.14907163E+04</rscale>
<asrwt>0</asrwt>
<pdfrwt beam="1">  1        2 0.20602096E+00 0.14907163E+04</pdfrwt>
<pdfrwt beam="2">  1       -2 0.63825160E-01 0.14907163E+04</pdfrwt>
<totfact> 0.34434739E+01</totfact>
</mgrwt>
</event>
<event>
 6    1  0.9562506E-007  0.1182415E+04  0.7818608E-02  0.9128390E-01
         -1   -1    0    0    0  501 -0.00000000000E+00  0.00000000000E+00  0.44970519521E+03  0.44970519521E+03  0.00000000000E+00 0.  1.
          1   -1    0    0  501    0  0.00000000000E+00 -0.00000000000E+00 -0.77723377419E+03  0.77723377419E+03  0.00000000000E+00 0. -1.
         23    2    1    2    0    0  0.27847236596E+03 -0.16737929467E+03  0.34268937658E+03  0.48212033722E+03  0.97166474922E+02 0.  0.
         11    1    3    3    0    0  0.15529529129E+03 -0.77761162100E+02  0.24797888713E+03  0.30274899552E+03  0.00000000000E+00 0. -1.
        -11    1    3    3    0    0  0.12317707467E+03 -0.89618132567E+02  0.94710489455E+02  0.17937134169E+03  0.00000000000E+00 0.  1.
         22    1    1    2    0    0 -0.27847236596E+03  0.16737929467E+03 -0.67021795556E+03  0.74481863218E+03  0.00000000000E+00 0. -1.
<mgrwt>
<rscale>  0 0.11824146E+04</rscale>
<asrwt>0</asrwt>
<pdfrwt beam="1">  1        1 0.11957443E+00 0.11824146E+04</pdfrwt>
<pdfrwt beam="2">  1       -1 0.69185416E-01 0.11824146E+04</pdfrwt>
<totfact> 0.48506499E+01</totfact>
</mgrwt>
</event>
<event>
 6    1  0.9562506E-007  0.2257102E+04  0.7818608E-02  0.8495030E-01
          1   -1    0    0  501    0  0.00000000000E+00  0.00000000000E+00  0.10610087963E+04  0.10610087963E+04  0.00000000000E+00 0. -1.
         -1   -1    0    0    0  501 -0.00000000000E+00 -0.00000000000E+00 -0.12003930683E+04  0.12003930683E+04  0.00000000000E+00 0.  1.
         23    2    1    2    0    0  0.22933029928E+02  0.10359476792E+04  0.37340684627E+03  0.11052581673E+04  0.91920757305E+02 0.  0.
         11    1    3    3    0    0  0.26767023811E+02  0.50025457130E+03  0.13462110580E+03  0.51874266433E+03  0.00000000000E+00 0.  1.
        -11    1    3    3    0    0 -0.38339938825E+01  0.53569310787E+03  0.23878574048E+03  0.58651550294E+03  0.00000000000E+00 0. -1.
         22    1    1    2    0    0 -0.22933029928E+02 -0.10359476792E+04 -0.51279111824E+03  0.11561436973E+04  0.00000000000E+00 0.  1.
<mgrwt>
<rscale>  0 0.22571022E+04</rscale>
<asrwt>0</asrwt>
<pdfrwt beam="1">  1        1 0.16323212E+00 0.22571022E+04</pdfrwt>
<pdfrwt beam="2">  1       -1 0.18467586E+00 0.22571022E+04</pdfrwt>
<totfact> 0.23728334E+00</totfact>
</mgrwt>
</event>
<event>
 6    1  0.9562506E-007  0.1964869E+04  0.7818608E-02  0.8623224E-01
         -2   -1    0    0    0  501 -0.00000000000E+00  0.00000000000E+00  0.73158146641E+03  0.73158146641E+03  0.00000000000E+00 0.  1.
          2   -1    0    0  501    0  0.00000000000E+00 -0.00000000000E+00 -0.13193025469E+04  0.13193025469E+04  0.00000000000E+00 0. -1.
         23    2    1    2    0    0  0.50561658508E+03  0.26877314011E+03 -0.11252670593E+04  0.12654906016E+04  0.85751828308E+02 0.  0.
         13    1    3    3    0    0  0.44232598265E+03  0.24966329065E+03 -0.93482610928E+03  0.10639003187E+04  0.00000000000E+00 0. -1.
        -13    1    3    3    0    0  0.63290602432E+02  0.19109849459E+02 -0.19044094999E+03  0.20159028284E+03  0.00000000000E+00 0.  1.
         22    1    1    2    0    0 -0.50561658508E+03 -0.26877314011E+03  0.53754597875E+03  0.78539341175E+03  0.00000000000E+00 0.  1.
<mgrwt>
<rscale>  0 0.19648687E+04</rscale>
<asrwt>0</asrwt>
<pdfrwt beam="1">  1        2 0.20296962E+00 0.19648687E+04</pdfrwt>
<pdfrwt beam="2">  1       -2 0.11255099E+00 0.19648687E+04</pdfrwt>
<totfact> 0.93284159E+00</totfact>
</mgrwt>
</event>
<event>
 6    1  0.9562506E-007  0.1449812E+04  0.7818608E-02  0.8918531E-01
          1   -1    0    0  501    0  0.00000000000E+00  0.00000000000E+00  0.89551943775E+03  0.89551943775E+03  0.00000000000E+00 0. -1.
         -1   -1    0    0    0  501 -0.00000000000E+00 -0.00000000000E+00 -0.58679775597E+03  0.58679775597E+03  0.00000000000E+00 0.  1.
         23    2    1    2    0    0  0.45613655659E+03 -0.28883430587E+03  0.64561927966E+03  0.84593224264E+03  0.85389052974E+02 0.  0.
         13    1    3    3    0    0  0.90112837227E+02 -0.75675513978E+02  0.19291248980E+03  0.22596976693E+03  0.00000000000E+00 0. -1.
        -13    1    3    3    0    0  0.36602371936E+03 -0.21315879189E+03  0.45270678987E+03  0.61996247571E+03  0.00000000000E+00 0.  1.
         22    1    1    2    0    0 -0.45613655659E+03  0.28883430587E+03 -0.33689759787E+03  0.63638495108E+03  0.00000000000E+00 0.  1.
<mgrwt>
<rscale>  0 0.14498121E+04</rscale>
<asrwt>0</asrwt>
<pdfrwt beam="1">  1        1 0.13777222E+00 0.14498121E+04</pdfrwt>
<pdfrwt beam="2">  1       -1 0.90276578E-01 0.14498121E+04</pdfrwt>
<totfact> 0.21391924E+01</totfact>
</mgrwt>
</event>
<event>
 6    1  0.9562506E-007  0.3505711E+04  0.7818608E-02  0.8112438E-01
          2   -1    0    0  501    0  0.00000000000E+00  0.00000000000E+00  0.11607585896E+04  0.11607585896E+04  0.00000000000E+00 0. -1.
         -2   -1    0    0    0  501 -0.00000000000E+00 -0.00000000000E+00 -0.26469780029E+04  0.26469780029E+04  0.00000000000E+00 0.  1.
         23    2    1    2    0    0 -0.16514068038E+04  0.14372062290E+03 -0.13588032831E+04  0.21451978954E+04  0.87906763721E+02 0.  0.
         11    1    3    3    0    0 -0.10142193507E+04  0.12323045394E+03 -0.86860561337E+03  0.13410079596E+04  0.00000000000E+00 0. -1.
        -11    1    3    3    0    0 -0.63718745319E+03  0.20490168956E+02 -0.49019766970E+03  0.80418993584E+03  0.00000000000E+00 0.  1.
         22    1    1    2    0    0  0.16514068038E+04 -0.14372062290E+03 -0.12741613021E+03  0.16625386971E+04  0.00000000000E+00 0. -1.
<mgrwt>
<rscale>  0 0.35057110E+04</rscale>
<asrwt>0</asrwt>
<pdfrwt beam="1">  1        2 0.17857824E+00 0.35057110E+04</pdfrwt>
<pdfrwt beam="2">  1       -2 0.40722739E+00 0.35057110E+04</pdfrwt>
<totfact> 0.10922151E-01</totfact>
</mgrwt>
</event>
<event>
 6    1  0.9767999E-007  0.2277574E+04  0.7818608E-02  0.8486816E-01
         -1   -1    0    0    0  501 -0.00000000000E+00  0.00000000000E+00  0.94470260078E+03  0.94470260078E+03  0.00000000000E+00 0.  1.
          1   -1    0    0  501    0  0.00000000000E+00 -0.00000000000E+00 -0.13727445481E+04  0.13727445481E+04  0.00000000000E+00 0. -1.
         23    2    1    2    0    0  0.96413455885E+03 -0.83625679846E+02 -0.82164982098E+03  0.12727099283E+04  0.90185538621E+02 0.  0.
         11    1    3    3    0    0  0.39008670423E+03 -0.12093496145E+02 -0.28102343584E+03  0.48092417382E+03  0.00000000000E+00 0.  1.
        -11    1    3    3    0    0  0.57404785462E+03 -0.71532183701E+02 -0.54062638513E+03  0.79178575448E+03  0.00000000000E+00 0. -1.
         22    1    1    2    0    0 -0.96413455885E+03  0.83625679846E+02  0.39360787365E+03  0.10447372206E+04  0.00000000000E+00 0.  1.
<mgrwt>
<rscale>  0 0.22775736E+04</rscale>
<asrwt>0</asrwt>
<pdfrwt beam="1">  1        1 0.21119147E+00 0.22775736E+04</pdfrwt>
<pdfrwt beam="2">  1       -1 0.14533886E+00 0.22775736E+04</pdfrwt>
<totfact> 0.27616379E+00</totfact>
</mgrwt>
</event>
<event>
 6    1  0.9562506E-007  0.1977537E+04  0.7818608E-02  0.8617195E-01
          2   -1    0    0  501    0  0.00000000000E+00  0.00000000000E+00  0.29217271636E+04  0.29217271636E+04  0.00000000000E+00 0. -1.
         -2   -1    0    0    0  501 -0.00000000000E+00 -0.00000000000E+00 -0.33461831071E+03  0.33461831071E+03  0.00000000000E+00 0.  1.
         23    2    1    2    0    0 -0.13810507096E+03  0.37419030222E+03  0.27823101466E+04  0.28122791078E+04  0.92588527091E+02 0.  0.
         11    1    3    3    0    0 -0.13076856445E+03  0.35457427809E+03  0.24168115872E+04  0.24461810204E+04  0.00000000000E+00 0.  1.
        -11    1    3    3    0    0 -0.73365065103E+01  0.19616024130E+02  0.36549855931E+03  0.36609808739E+03  0.00000000000E+00 0. -1.
         22    1    1    2    0    0  0.13810507096E+03 -0.37419030222E+03 -0.19520129364E+03  0.44406636659E+03  0.00000000000E+00 0.  1.
<mgrwt>
<rscale>  0 0.19775373E+04</rscale>
<asrwt>0</asrwt>
<pdfrwt beam="1">  1        2 0.44949647E+00 0.19775373E+04</pdfrwt>
<pdfrwt beam="2">  1       -2 0.51479742E-01 0.19775373E+04</pdfrwt>
<totfact> 0.64770582E+00</totfact>
</mgrwt>
</event>
<event>
 6    1  0.9562506E-007  0.2400603E+04  0.7818608E-02  0.8439278E-01
          2   -1    0    0  501    0  0.00000000000E+00  0.00000000000E+00  0.19201759551E+04  0.19201759551E+04  0.00000000000E+00 0. -1.
         -2   -1    0    0    0  501 -0.00000000000E+00 -0.00000000000E+00 -0.75030843745E+03  0.75030843745E+03  0.00000000000E+00 0.  1.
         23    2    1    2    0    0  0.20960316298E+03  0.11079516620E+04  0.13332597236E+03  0.11388484220E+04  0.87803998659E+02 0.  0.
         11    1    3    3    0    0  0.11778596130E+03  0.40475977001E+03  0.62540456359E+02  0.42616348129E+03  0.00000000000E+00 0. -1.
        -11    1    3    3    0    0  0.91817201687E+02  0.70319189195E+03  0.70785515999E+02  0.71268494070E+03  0.00000000000E+00 0.  1.
         22    1    1    2    0    0 -0.20960316298E+03 -0.11079516620E+04  0.10365415453E+04  0.15316359705E+04  0.00000000000E+00 0. -1.
<mgrwt>
<rscale>  0 0.24006034E+04</rscale>
<asrwt>0</asrwt>
<pdfrwt beam="1">  1        2 0.29541168E+00 0.24006034E+04</pdfrwt>
<pdfrwt beam="2">  1       -2 0.11543207E+00 0.24006034E+04</pdfrwt>
<totfact> 0.38878063E+00</totfact>
</mgrwt>
</event>
<event>
 6    1  0.9562506E-007  0.2733167E+04  0.7818608E-02  0.8324323E-01
          2   -1    0    0  501    0  0.00000000000E+00  0.00000000000E+00  0.35950419817E+04  0.35950419817E+04  0.00000000000E+00 0. -1.
         -2   -1    0    0    0  501 -0.00000000000E+00 -0.00000000000E+00 -0.51947960169E+03  0.51947960169E+03  0.00000000000E+00 0.  1.
         23    2    1    2    0    0 -0.23251805192E+03  0.39666701973E+03  0.34744543774E+04  0.35058145976E+04  0.86564445512E+02 0.  0.
         11    1    3    3    0    0 -0.19835969387E+03  0.30432985655E+03  0.29411155953E+04  0.29634648935E+04  0.00000000000E+00 0. -1.
        -11    1    3    3    0    0 -0.34158358053E+02  0.92337163178E+02  0.53333878206E+03  0.54234970414E+03  0.00000000000E+00 0.  1.
         22    1    1    2    0    0  0.23251805192E+03 -0.39666701973E+03 -0.39889199735E+03  0.60870698580E+03  0.00000000000E+00 0.  1.
<mgrwt>
<rscale>  0 0.27331674E+04</rscale>
<asrwt>0</asrwt>
<pdfrwt beam="1">  1        2 0.55308337E+00 0.27331674E+04</pdfrwt>
<pdfrwt beam="2">  1       -2 0.79919941E-01 0.27331674E+04</pdfrwt>
<totfact> 0.84394658E-01</totfact>
</mgrwt>
</event>
<event>
 6    1  0.9562506E-007  0.2646609E+04  0.7818608E-02  0.8352539E-01
          1   -1    0    0  501    0  0.00000000000E+00  0.00000000000E+00  0.92167555477E+03  0.92167555477E+03  0.00000000000E+00 0. -1.
         -1   -1    0    0    0  501 -0.00000000000E+00 -0.00000000000E+00 -0.18999470649E+04  0.18999470649E+04  0.00000000000E+00 0.  1.
         23    2    1    2    0    0 -0.84271698098E+03 -0.94464530172E+03 -0.83929700834E+02  0.12716632886E+04  0.86929102464E+02 0.  0.
         11    1    3    3    0    0 -0.14215709525E+03 -0.17025198703E+03  0.17535232489E+02  0.22249014179E+03  0.00000000000E+00 0.  1.
        -11    1    3    3    0    0 -0.70055988573E+03 -0.77439331469E+03 -0.10146493332E+03  0.10491731468E+04  0.00000000000E+00 0. -1.
         22    1    1    2    0    0  0.84271698098E+03  0.94464530172E+03 -0.89434180932E+03  0.15499593311E+04  0.00000000000E+00 0. -1.
<mgrwt>
<rscale>  0 0.26466090E+04</rscale>
<asrwt>0</asrwt>
<pdfrwt beam="1">  1        1 0.14179624E+00 0.26466090E+04</pdfrwt>
<pdfrwt beam="2">  1       -1 0.29229955E+00 0.26466090E+04</pdfrwt>
<totfact> 0.56771260E-01</totfact>
</mgrwt>
</event>
<event>
 6    1  0.1082919E-006  0.3776173E+04  0.7818608E-02  0.8051288E-01
         -2   -1    0    0    0  501 -0.00000000000E+00  0.00000000000E+00  0.15335077451E+04  0.15335077451E+04  0.00000000000E+00 0.  1.
          2   -1    0    0  501    0  0.00000000000E+00 -0.00000000000E+00 -0.23246506983E+04  0.23246506983E+04  0.00000000000E+00 0. -1.
         23    2    1    2    0    0 -0.27331418698E+03 -0.23830038127E+03 -0.22878196776E+04  0.23181815171E+04  0.91427306616E+02 0.  0.
         11    1    3    3    0    0 -0.97146400711E+02 -0.33023773885E+02 -0.70121963846E+03  0.70868679554E+03  0.00000000000E+00 0.  1.
        -11    1    3    3    0    0 -0.17616778627E+03 -0.20527660739E+03 -0.15866000391E+04  0.16094947215E+04  0.00000000000E+00 0. -1.
         22    1    1    2    0    0  0.27331418698E+03  0.23830038127E+03  0.14966767243E+04  0.15399769263E+04  0.00000000000E+00 0.  1.
<mgrwt>
<rscale>  0 0.37761726E+04</rscale>
<asrwt>0</asrwt>
<pdfrwt beam="1">  1        2 0.35763857E+00 0.37761726E+04</pdfrwt>
<pdfrwt beam="2">  1       -2 0.23592427E+00 0.37761726E+04</pdfrwt>
<totfact> 0.27691617E-01</totfact>
</mgrwt>
</event>
<event>
 6    1  0.9562506E-007  0.2079897E+04  0.7818608E-02  0.8570151E-01
         -2   -1    0    0    0  501 -0.00000000000E+00  0.00000000000E+00  0.13123480595E+04  0.13123480595E+04  0.00000000000E+00 0.  1.
          2   -1    0    0  501    0  0.00000000000E+00 -0.00000000000E+00 -0.82409003196E+03  0.82409003196E+03  0.00000000000E+00 0. -1.
         23    2    1    2    0    0  0.33771497300E+03  0.97722835075E+03  0.14852467628E+03  0.10481158035E+04  0.86374218489E+02 0.  0.
         13    1    3    3    0    0  0.17055920419E+02  0.93285465469E+02 -0.67621449825E+01  0.95072651661E+02  0.00000000000E+00 0. -1.
        -13    1    3    3    0    0  0.32065905258E+03  0.88394288528E+03  0.15528682126E+03  0.95304315186E+03  0.00000000000E+00 0.  1.
         22    1    1    2    0    0 -0.33771497300E+03 -0.97722835075E+03  0.33973335128E+03  0.10883222880E+04  0.00000000000E+00 0.  1.
<mgrwt>
<rscale>  0 0.20798971E+04</rscale>
<asrwt>0</asrwt>
<pdfrwt beam="1">  1        2 0.12678308E+00 0.20798971E+04</pdfrwt>
<pdfrwt beam="2">  1       -2 0.20189970E+00 0.20798971E+04</pdfrwt>
<totfact> 0.39471044E+00</totfact>
</mgrwt>
</event>
<event>
 6    1  0.9562506E-007  0.2245340E+04  0.7818608E-02  0.8499790E-01
          1   -1    0    0  501    0  0.00000000000E+00  0.00000000000E+00  0.11541713540E+04  0.11541713540E+04  0.00000000000E+00 0. -1.
         -1   -1    0    0    0  501 -0.00000000000E+00 -0.00000000000E+00 -0.10920280269E+04  0.10920280269E+04  0.00000000000E+00 0.  1.
         23    2    1    2    0    0 -0.90324179974E+03 -0.18167852075E+03 -0.60742531373E+03  0.11072634747E+04  0.90631434531E+02 0.  0.
         13    1    3    3    0    0 -0.37311331516E+03 -0.44003333262E+02 -0.28629171257E+03  0.47234815970E+03  0.00000000000E+00 0. -1.
        -13    1    3    3    0    0 -0.53012848458E+03 -0.13767518749E+03 -0.32113360116E+03  0.63491531499E+03  0.00000000000E+00 0.  1.
         22    1    1    2    0    0  0.90324179974E+03  0.18167852075E+03  0.66956864087E+03  0.11389359062E+04  0.00000000000E+00 0. -1.
<mgrwt>
<rscale>  0 0.22453396E+04</rscale>
<asrwt>0</asrwt>
<pdfrwt beam="1">  1        1 0.17756482E+00 0.22453396E+04</pdfrwt>
<pdfrwt beam="2">  1       -1 0.16800431E+00 0.22453396E+04</pdfrwt>
<totfact> 0.26701318E+00</totfact>
</mgrwt>
</event>
<event>
 6    1  0.9562506E-007  0.2607935E+04  0.7818608E-02  0.8365511E-01
         -2   -1    0    0    0  501 -0.00000000000E+00  0.00000000000E+00  0.91488183690E+03  0.91488183690E+03  0.00000000000E+00 0.  1.
          2   -1    0    0  501    0  0.00000000000E+00 -0.00000000000E+00 -0.18585252973E+04  0.18585252973E+04  0.00000000000E+00 0. -1.
         23    2    1    2    0    0  0.12682274586E+04 -0.27606008584E+03 -0.58696708984E+03  0.14273654962E+04  0.90729474576E+02 0.  0.
         11    1    3    3    0    0  0.18544639383E+03 -0.86265260154E+01 -0.90778628283E+02  0.20665319085E+03  0.00000000000E+00 0. -1.
        -11    1    3    3    0    0  0.10827810648E+04 -0.26743355982E+03 -0.49618846156E+03  0.12207123054E+04  0.00000000000E+00 0.  1.
         22    1    1    2    0    0 -0.12682274586E+04  0.27606008584E+03 -0.35667637055E+03  0.13460416379E+04  0.00000000000E+00 0.  1.
<mgrwt>
<rscale>  0 0.26079348E+04</rscale>
<asrwt>0</asrwt>
<pdfrwt beam="1">  1        2 0.28592697E+00 0.26079348E+04</pdfrwt>
<pdfrwt beam="2">  1       -2 0.14075105E+00 0.26079348E+04</pdfrwt>
<totfact> 0.25072305E+00</totfact>
</mgrwt>
</event>
<event>
 6    1  0.9562506E-007  0.3337748E+04  0.7818608E-02  0.8153356E-01
          1   -1    0    0  501    0  0.00000000000E+00  0.00000000000E+00  0.14248820615E+04  0.14248820615E+04  0.00000000000E+00 0. -1.
         -1   -1    0    0    0  501 -0.00000000000E+00 -0.00000000000E+00 -0.19546457314E+04  0.19546457314E+04  0.00000000000E+00 0.  1.
         23    2    1    2    0    0 -0.46016703420E+03 -0.11103263270E+04  0.90540775161E+03  0.15075514947E+04  0.91488035423E+02 0.  0.
         11    1    3    3    0    0 -0.12916602998E+03 -0.40874979642E+03  0.35143291408E+03  0.55431521039E+03  0.00000000000E+00 0.  1.
        -11    1    3    3    0    0 -0.33100100421E+03 -0.70157653058E+03  0.55397483753E+03  0.95323628428E+03  0.00000000000E+00 0. -1.
         22    1    1    2    0    0  0.46016703420E+03  0.11103263270E+04 -0.14351714216E+04  0.18719762982E+04  0.00000000000E+00 0.  1.
<mgrwt>
<rscale>  0 0.33377475E+04</rscale>
<asrwt>0</asrwt>
<pdfrwt beam="1">  1        1 0.21921263E+00 0.33377475E+04</pdfrwt>
<pdfrwt beam="2">  1       -1 0.30071473E+00 0.33377475E+04</pdfrwt>
<totfact> 0.19939122E-01</totfact>
</mgrwt>
</event>
<event>
 6    1  0.9562506E-007  0.9209362E+03  0.7818608E-02  0.9399782E-01
         -1   -1    0    0    0  501 -0.00000000000E+00  0.00000000000E+00  0.12723115499E+04  0.12723115499E+04  0.00000000000E+00 0.  1.
          1   -1    0    0  501    0  0.00000000000E+00 -0.00000000000E+00 -0.16665012378E+03  0.16665012378E+03  0.00000000000E+00 0. -1.
         23    2    1    2    0    0 -0.34435940131E+03  0.59828942433E+01  0.10253235189E+04  0.10853045352E+04  0.89322020098E+02 0.  0.
         11    1    3    3    0    0 -0.19796181131E+03  0.34428139263E+02  0.68211040121E+03  0.71108985013E+03  0.00000000000E+00 0. -1.
        -11    1    3    3    0    0 -0.14639759000E+03 -0.28445245019E+02  0.34321311773E+03  0.37421468505E+03  0.00000000000E+00 0.  1.
         22    1    1    2    0    0  0.34435940131E+03 -0.59828942433E+01  0.80337907184E+02  0.35365713852E+03  0.00000000000E+00 0. -1.
<mgrwt>
<rscale>  0 0.92093621E+03</rscale>
<asrwt>0</asrwt>
<pdfrwt beam="1">  1        1 0.25638481E-01 0.92093621E+03</pdfrwt>
<pdfrwt beam="2">  1       -1 0.19574023E+00 0.92093621E+03</pdfrwt>
<totfact> 0.30740572E+01</totfact>
</mgrwt>
</event>
<event>
 6    1  0.9562506E-007  0.1281186E+04  0.7818608E-02  0.9044619E-01
         -2   -1    0    0    0  501 -0.00000000000E+00  0.00000000000E+00  0.27022504808E+03  0.27022504808E+03  0.00000000000E+00 0.  1.
          2   -1    0    0  501    0  0.00000000000E+00 -0.00000000000E+00 -0.15185834563E+04  0.15185834563E+04  0.00000000000E+00 0. -1.
         23    2    1    2    0    0 -0.53183088111E+03 -0.20721388573E+03 -0.10232294721E+04  0.11752412967E+04  0.91716259032E+02 0.  0.
         13    1    3    3    0    0 -0.48813349528E+03 -0.17740934835E+03 -0.96944609575E+03  0.10998064005E+04  0.00000000000E+00 0.  1.
        -13    1    3    3    0    0 -0.43697385829E+02 -0.29804537382E+02 -0.53783376392E+02  0.75434896122E+02  0.00000000000E+00 0. -1.
         22    1    1    2    0    0  0.53183088111E+03  0.20721388573E+03 -0.22512893609E+03  0.61356720773E+03  0.00000000000E+00 0. -1.
<mgrwt>
<rscale>  0 0.12811858E+04</rscale>
<asrwt>0</asrwt>
<pdfrwt beam="1">  1        2 0.23362823E+00 0.12811858E+04</pdfrwt>
<pdfrwt beam="2">  1       -2 0.41573084E-01 0.12811858E+04</pdfrwt>
<totfact> 0.66638898E+01</totfact>
</mgrwt>
</event>
<event>
 6    1  0.9562506E-007  0.8764103E+03  0.7818608E-02  0.9455560E-01
          2   -1    0    0  501    0  0.00000000000E+00  0.00000000000E+00  0.69912750258E+03  0.69912750258E+03  0.00000000000E+00 0. -1.
         -2   -1    0    0    0  501 -0.00000000000E+00 -0.00000000000E+00 -0.27466197325E+03  0.27466197325E+03  0.00000000000E+00 0.  1.
         23    2    1    2    0    0 -0.19869165575E+03  0.37047211665E+03  0.97530845886E+02  0.44123501803E+03  0.91913611370E+02 0.  0.
         13    1    3    3    0    0 -0.10629274414E+03  0.12829670486E+03  0.69491015387E+02  0.18051923209E+03  0.00000000000E+00 0. -1.
        -13    1    3    3    0    0 -0.92398911608E+02  0.24217541179E+03  0.28039830499E+02  0.26071578594E+03  0.00000000000E+00 0.  1.
         22    1    1    2    0    0  0.19869165575E+03 -0.37047211665E+03  0.32693468345E+03  0.53255445780E+03  0.00000000000E+00 0. -1.
<mgrwt>
<rscale>  0 0.87641027E+03</rscale>
<asrwt>0</asrwt>
<pdfrwt beam="1">  1        2 0.10755808E+00 0.87641027E+03</pdfrwt>
<pdfrwt beam="2">  1       -2 0.42255688E-01 0.87641027E+03</pdfrwt>
<totfact> 0.21861495E+02</totfact>
</mgrwt>
</event>
<event>
 6    1  0.9562506E-007  0.2680146E+04  0.7818608E-02  0.8341476E-01
          2   -1    0    0  501    0  0.00000000000E+00  0.00000000000E+00  0.76975461444E+03  0.76975461444E+03  0.00000000000E+00 0. -1.
         -2   -1    0    0    0  501 -0.00000000000E+00 -0.00000000000E+00 -0.23329449498E+04  0.23329449498E+04  0.00000000000E+00 0.  1.
         23    2    1    2    0    0  0.10232316778E+04 -0.83852770647E+03 -0.54682601366E+03  0.14344285385E+04  0.91840959416E+02 0.  0.
         13    1    3    3    0    0  0.89206000789E+03 -0.72363700795E+03 -0.50694304278E+03  0.12555527968E+04  0.00000000000E+00 0.  1.
        -13    1    3    3    0    0  0.13117166993E+03 -0.11489069852E+03 -0.39882970885E+02  0.17887574168E+03  0.00000000000E+00 0. -1.
         22    1    1    2    0    0 -0.10232316778E+04  0.83852770647E+03 -0.10163643217E+04  0.16682710258E+04  0.00000000000E+00 0.  1.
<mgrwt>
<rscale>  0 0.26801456E+04</rscale>
<asrwt>0</asrwt>
<pdfrwt beam="1">  1        2 0.11842379E+00 0.26801456E+04</pdfrwt>
<pdfrwt beam="2">  1       -2 0.35891460E+00 0.26801456E+04</pdfrwt>
<totfact> 0.43523160E-01</totfact>
</mgrwt>
</event>
<event>
 6    1  0.9562506E-007  0.9314743E+03  0.7818608E-02  0.9387070E-01
          2   -1    0    0  501    0  0.00000000000E+00  0.00000000000E+00  0.28212167805E+04  0.28212167805E+04  0.00000000000E+00 0. -1.
         -2   -1    0    0    0  501 -0.00000000000E+00 -0.00000000000E+00 -0.76885650730E+02  0.76885650730E+02  0.00000000000E+00 0.  1.
         23    2    1    2    0    0  0.44811510556E+03 -0.84891296415E+02  0.16021984942E+04  0.16682729157E+04  0.89893416850E+02 0.  0.
         11    1    3    3    0    0  0.33510528508E+03 -0.10208498977E+03  0.11845175167E+04  0.12352322230E+04  0.00000000000E+00 0.  1.
        -11    1    3    3    0    0  0.11300982048E+03  0.17193693358E+02  0.41768097746E+03  0.43304069272E+03  0.00000000000E+00 0. -1.
         22    1    1    2    0    0 -0.44811510556E+03  0.84891296415E+02  0.11421326355E+04  0.12298295155E+04  0.00000000000E+00 0.  1.
<mgrwt>
<rscale>  0 0.93147429E+03</rscale>
<asrwt>0</asrwt>
<pdfrwt beam="1">  1        2 0.43403327E+00 0.93147429E+03</pdfrwt>
<pdfrwt beam="2">  1       -2 0.11828564E-01 0.93147429E+03</pdfrwt>
<totfact> 0.12031573E+02</totfact>
</mgrwt>
</event>
<event>
 6    1  0.9562506E-007  0.5149649E+04  0.7818608E-02  0.7805828E-01
          2   -1    0    0  501    0  0.00000000000E+00  0.00000000000E+00  0.44195454072E+04  0.44195454072E+04  0.00000000000E+00 0. -1.
         -2   -1    0    0    0  501 -0.00000000000E+00 -0.00000000000E+00 -0.15000909672E+04  0.15000909672E+04  0.00000000000E+00 0.  1.
         23    2    1    2    0    0 -0.19792889518E+04 -0.14899147963E+04  0.22634066334E+04  0.33568586666E+04  0.89775635175E+02 0.  0.
         13    1    3    3    0    0 -0.10406365693E+04 -0.79037238180E+03  0.11335835834E+04  0.17299204351E+04  0.00000000000E+00 0.  1.
        -13    1    3    3    0    0 -0.93865238244E+03 -0.69954241450E+03  0.11298230500E+04  0.16269382315E+04  0.00000000000E+00 0. -1.
         22    1    1    2    0    0  0.19792889518E+04  0.14899147963E+04  0.65604780658E+03  0.25627777077E+04  0.00000000000E+00 0.  1.
<mgrwt>
<rscale>  0 0.51496486E+04</rscale>
<asrwt>0</asrwt>
<pdfrwt beam="1">  1        2 0.67993006E+00 0.51496486E+04</pdfrwt>
<pdfrwt beam="2">  1       -2 0.23078323E+00 0.51496486E+04</pdfrwt>
<totfact> 0.88666214E-03</totfact>
</mgrwt>
</event>
<event>
 6    1  0.9562506E-007  0.1630956E+04  0.7818608E-02  0.8801753E-01
         -2   -1    0    0    0  501 -0.00000000000E+00  0.00000000000E+00  0.29756112352E+03  0.29756112352E+03  0.00000000000E+00 0.  1.
          2   -1    0    0  501    0  0.00000000000E+00 -0.00000000000E+00 -0.22348496946E+04  0.22348496946E+04  0.00000000000E+00 0. -1.
         23    2    1    2    0    0 -0.49883818388E+03 -0.31996139428E+02 -0.19671008139E+04  0.20316593263E+04  0.91053389515E+02 0.  0.
         11    1    3    3    0    0 -0.47599731058E+03 -0.40505806968E+02 -0.19210300009E+04  0.19795379320E+04  0.00000000000E+00 0.  1.
        -11    1    3    3    0    0 -0.22840873307E+02  0.85096675397E+01 -0.46070812983E+02  0.52121394302E+02  0.00000000000E+00 0. -1.
         22    1    1    2    0    0  0.49883818388E+03  0.31996139428E+02  0.29812242847E+02  0.50075149172E+03  0.00000000000E+00 0.  1.
<mgrwt>
<rscale>  0 0.16309560E+04</rscale>
<asrwt>0</asrwt>
<pdfrwt beam="1">  1        2 0.34382302E+00 0.16309560E+04</pdfrwt>
<pdfrwt beam="2">  1       -2 0.45778636E-01 0.16309560E+04</pdfrwt>
<totfact> 0.21380943E+01</totfact>
</mgrwt>
</event>
<event>
 6    1  0.9562506E-007  0.6344242E+03  0.7818608E-02  0.9836453E-01
         -2   -1    0    0    0  501 -0.00000000000E+00  0.00000000000E+00  0.19844401313E+03  0.19844401313E+03  0.00000000000E+00 0.  1.
          2   -1    0    0  501    0  0.00000000000E+00 -0.00000000000E+00 -0.50706248393E+03  0.50706248393E+03  0.00000000000E+00 0. -1.
         23    2    1    2    0    0 -0.27424737455E+03  0.20033857635E+02 -0.31808736105E+03  0.43036537367E+03  0.91770407504E+02 0.  0.
         13    1    3    3    0    0 -0.14762105635E+03  0.56405898855E+02 -0.16753892723E+03  0.23031042929E+03  0.00000000000E+00 0. -1.
        -13    1    3    3    0    0 -0.12662631820E+03 -0.36372041220E+02 -0.15054843382E+03  0.20005494437E+03  0.00000000000E+00 0.  1.
         22    1    1    2    0    0  0.27424737455E+03 -0.20033857635E+02  0.94688902556E+01  0.27514112339E+03  0.00000000000E+00 0.  1.
<mgrwt>
<rscale>  0 0.63442419E+03</rscale>
<asrwt>0</asrwt>
<pdfrwt beam="1">  1        2 0.78009612E-01 0.63442419E+03</pdfrwt>
<pdfrwt beam="2">  1       -2 0.30529848E-01 0.63442419E+03</pdfrwt>
<totfact> 0.60480682E+02</totfact>
</mgrwt>
</event>
<event>
 6    1  0.9562506E-007  0.4275283E+04  0.7818608E-02  0.7951204E-01
         -2   -1    0    0    0  501 -0.00000000000E+00  0.00000000000E+00  0.27084948990E+04  0.27084948990E+04  0.00000000000E+00 0.  1.
          2   -1    0    0  501    0  0.00000000000E+00 -0.00000000000E+00 -0.16871036056E+04  0.16871036056E+04  0.00000000000E+00 0. -1.
         23    2    1    2    0    0  0.50566115497E+03 -0.19907244160E+04  0.11164009329E+04  0.23394604412E+04  0.89706236934E+02 0.  0.
         11    1    3    3    0    0  0.15536159662E+03 -0.77688407676E+03  0.44833240069E+03  0.91032303933E+03  0.00000000000E+00 0. -1.
        -11    1    3    3    0    0  0.35029955835E+03 -0.12138403392E+04  0.66806853219E+03  0.14291374019E+04  0.00000000000E+00 0.  1.
         22    1    1    2    0    0 -0.50566115497E+03  0.19907244160E+04 -0.95009639446E+02  0.20561380634E+04  0.00000000000E+00 0. -1.
<mgrwt>
<rscale>  0 0.42752832E+04</rscale>
<asrwt>0</asrwt>
<pdfrwt beam="1">  1        2 0.25955440E+00 0.42752832E+04</pdfrwt>
<pdfrwt beam="2">  1       -2 0.41669152E+00 0.42752832E+04</pdfrwt>
<totfact> 0.44355005E-02</totfact>
</mgrwt>
</event>
<event>
 6    1  0.9562506E-007  0.9374498E+03  0.7818608E-02  0.9379941E-01
         -3   -1    0    0    0  501 -0.00000000000E+00  0.00000000000E+00  0.54064097402E+03  0.54064097402E+03  0.00000000000E+00 0.  1.
          3   -1    0    0  501    0  0.00000000000E+00 -0.00000000000E+00 -0.40637513611E+03  0.40637513611E+03  0.00000000000E+00 0. -1.
         23    2    1    2    0    0 -0.28778629985E+03  0.22752983521E+03  0.35528774633E+03  0.51871543969E+03  0.90804979994E+02 0.  0.
         11    1    3    3    0    0 -0.10409335130E+03  0.75567046934E+02  0.18671928751E+03  0.22673750615E+03  0.00000000000E+00 0. -1.
        -11    1    3    3    0    0 -0.18369294855E+03  0.15196278827E+03  0.16856845883E+03  0.29197793354E+03  0.00000000000E+00 0.  1.
         22    1    1    2    0    0  0.28778629985E+03 -0.22752983521E+03 -0.22102190842E+03  0.42830067043E+03  0.00000000000E+00 0. -1.
<mgrwt>
<rscale>  0 0.93744984E+03</rscale>
<asrwt>0</asrwt>
<pdfrwt beam="1">  1        3 0.62519252E-01 0.93744984E+03</pdfrwt>
<pdfrwt beam="2">  1       -3 0.83175534E-01 0.93744984E+03</pdfrwt>
<totfact> 0.87031616E+00</totfact>
</mgrwt>
</event>
<event>
 6    1  0.9562506E-007  0.1267202E+04  0.7818608E-02  0.9055986E-01
         -2   -1    0    0    0  501 -0.00000000000E+00  0.00000000000E+00  0.38877551544E+03  0.38877551544E+03  0.00000000000E+00 0.  1.
          2   -1    0    0  501    0  0.00000000000E+00 -0.00000000000E+00 -0.10326023176E+04  0.10326023176E+04  0.00000000000E+00 0. -1.
         23    2    1    2    0    0 -0.86512495100E+02 -0.39130876659E+03  0.22245917907E+03  0.46688405941E+03  0.88801328601E+02 0.  0.
         13    1    3    3    0    0 -0.93656385132E+02 -0.22108229441E+03  0.12980790488E+03  0.27294503393E+03  0.00000000000E+00 0.  1.
        -13    1    3    3    0    0  0.71438900324E+01 -0.17022647218E+03  0.92651274191E+02  0.19393902548E+03  0.00000000000E+00 0. -1.
         22    1    1    2    0    0  0.86512495100E+02  0.39130876659E+03 -0.86628598123E+03  0.95449377363E+03  0.00000000000E+00 0. -1.
<mgrwt>
<rscale>  0 0.12672024E+04</rscale>
<asrwt>0</asrwt>
<pdfrwt beam="1">  1        2 0.15886189E+00 0.12672024E+04</pdfrwt>
<pdfrwt beam="2">  1       -2 0.59811619E-01 0.12672024E+04</pdfrwt>
<totfact> 0.61498036E+01</totfact>
</mgrwt>
</event>
<event>
 6    1  0.9562506E-007  0.3167977E+04  0.7818608E-02  0.8197326E-01
          1   -1    0    0  501    0  0.00000000000E+00  0.00000000000E+00  0.84094216596E+03  0.84094216596E+03  0.00000000000E+00 0. -1.
         -1   -1    0    0    0  501 -0.00000000000E+00 -0.00000000000E+00 -0.29835824435E+04  0.29835824435E+04  0.00000000000E+00 0.  1.
         23    2    1    2    0    0  0.12422154578E+03  0.13628866422E+04 -0.20317157954E+04  0.24515004901E+04  0.95365547265E+02 0.  0.
         11    1    3    3    0    0  0.84327769770E+02  0.92672200113E+03 -0.13001934255E+04  0.15988832927E+04  0.00000000000E+00 0. -1.
        -11    1    3    3    0    0  0.39893776008E+02  0.43616464102E+03 -0.73152236998E+03  0.85261719735E+03  0.00000000000E+00 0.  1.
         22    1    1    2    0    0 -0.12422154578E+03 -0.13628866422E+04 -0.11092448214E+03  0.13730241194E+04  0.00000000000E+00 0. -1.
<mgrwt>
<rscale>  0 0.31679775E+04</rscale>
<asrwt>0</asrwt>
<pdfrwt beam="1">  1        1 0.12937572E+00 0.31679775E+04</pdfrwt>
<pdfrwt beam="2">  1       -1 0.45901268E+00 0.31679775E+04</pdfrwt>
<totfact> 0.47915104E-02</totfact>
</mgrwt>
</event>
<event>
 6    1  0.9562506E-007  0.4919612E+04  0.7818608E-02  0.7841029E-01
         -2   -1    0    0    0  501 -0.00000000000E+00  0.00000000000E+00  0.14006638908E+04  0.14006638908E+04  0.00000000000E+00 0.  1.
          2   -1    0    0  501    0  0.00000000000E+00 -0.00000000000E+00 -0.43198413233E+04  0.43198413233E+04  0.00000000000E+00 0. -1.
         23    2    1    2    0    0 -0.86641758753E+03  0.11961958116E+04 -0.37460691506E+04  0.40277814418E+04  0.91790015078E+02 0.  0.
         13    1    3    3    0    0 -0.19370587473E+03  0.32757513660E+03 -0.91260112947E+03  0.98877108449E+03  0.00000000000E+00 0. -1.
        -13    1    3    3    0    0 -0.67271171280E+03  0.86862067499E+03 -0.28334680211E+04  0.30390103574E+04  0.00000000000E+00 0.  1.
         22    1    1    2    0    0  0.86641758753E+03 -0.11961958116E+04  0.82689171809E+03  0.16927237722E+04  0.00000000000E+00 0.  1.
<mgrwt>
<rscale>  0 0.49196121E+04</rscale>
<asrwt>0</asrwt>
<pdfrwt beam="1">  1        2 0.66459095E+00 0.49196121E+04</pdfrwt>
<pdfrwt beam="2">  1       -2 0.21548676E+00 0.49196121E+04</pdfrwt>
<totfact> 0.13975324E-02</totfact>
</mgrwt>
</event>
<event>
 6    1  0.9562506E-007  0.1214905E+04  0.7818608E-02  0.9099909E-01
         -2   -1    0    0    0  501 -0.00000000000E+00  0.00000000000E+00  0.26227921269E+03  0.26227921269E+03  0.00000000000E+00 0.  1.
          2   -1    0    0  501    0  0.00000000000E+00 -0.00000000000E+00 -0.14068928890E+04  0.14068928890E+04  0.00000000000E+00 0. -1.
         23    2    1    2    0    0  0.27008932141E+03  0.51001892035E+03 -0.32990314347E+03  0.67076297063E+03  0.89550756754E+02 0.  0.
         13    1    3    3    0    0  0.17772658971E+03  0.25489456179E+03 -0.20343493696E+03  0.37140779730E+03  0.00000000000E+00 0. -1.
        -13    1    3    3    0    0  0.92362731703E+02  0.25512435856E+03 -0.12646820651E+03  0.29935517333E+03  0.00000000000E+00 0.  1.
         22    1    1    2    0    0 -0.27008932141E+03 -0.51001892035E+03 -0.81471053279E+03  0.99840913101E+03  0.00000000000E+00 0.  1.
<mgrwt>
<rscale>  0 0.12149054E+04</rscale>
<asrwt>0</asrwt>
<pdfrwt beam="1">  1        2 0.21644506E+00 0.12149054E+04</pdfrwt>
<pdfrwt beam="2">  1       -2 0.40350648E-01 0.12149054E+04</pdfrwt>
<totfact> 0.82137011E+01</totfact>
</mgrwt>
</event>
<event>
 6    1  0.9562506E-007  0.2484857E+04  0.7818608E-02  0.8408400E-01
         -2   -1    0    0    0  501 -0.00000000000E+00  0.00000000000E+00  0.72909923486E+03  0.72909923486E+03  0.00000000000E+00 0.  1.
          2   -1    0    0  501    0  0.00000000000E+00 -0.00000000000E+00 -0.21171723942E+04  0.21171723942E+04  0.00000000000E+00 0. -1.
         23    2    1    2    0    0 -0.10269128740E+04  0.57360025953E+03 -0.24274126385E+03  0.12045187672E+04  0.91514102131E+02 0.  0.
         11    1    3    3    0    0 -0.35627186197E+03  0.21117878161E+03 -0.42362230996E+02  0.41631799871E+03  0.00000000000E+00 0.  1.
        -11    1    3    3    0    0 -0.67064101204E+03  0.36242147793E+03 -0.20037903285E+03  0.78820076852E+03  0.00000000000E+00 0. -1.
         22    1    1    2    0    0  0.10269128740E+04 -0.57360025953E+03 -0.11453318955E+04  0.16417528618E+04  0.00000000000E+00 0. -1.
<mgrwt>
<rscale>  0 0.24848572E+04</rscale>
<asrwt>0</asrwt>
<pdfrwt beam="1">  1        2 0.32571882E+00 0.24848572E+04</pdfrwt>
<pdfrwt beam="2">  1       -2 0.11216912E+00 0.24848572E+04</pdfrwt>
<totfact> 0.32156013E+00</totfact>
</mgrwt>
</event>
<event>
 6    1  0.1026081E-006  0.2979461E+04  0.7818608E-02  0.8249620E-01
         -2   -1    0    0    0  501 -0.00000000000E+00  0.00000000000E+00  0.69293274887E+03  0.69293274887E+03  0.00000000000E+00 0.  1.
          2   -1    0    0  501    0  0.00000000000E+00 -0.00000000000E+00 -0.32027585976E+04  0.32027585976E+04  0.00000000000E+00 0. -1.
         23    2    1    2    0    0 -0.12245705630E+04  0.44434428117E+03 -0.31493001907E+03  0.13433233074E+04  0.91223283130E+02 0.  0.
         13    1    3    3    0    0 -0.63490186025E+03  0.24904376127E+03 -0.12153098759E+03  0.69274306068E+03  0.00000000000E+00 0. -1.
        -13    1    3    3    0    0 -0.58966870271E+03  0.19530051990E+03 -0.19339903148E+03  0.65058024671E+03  0.00000000000E+00 0.  1.
         22    1    1    2    0    0  0.12245705630E+04 -0.44434428117E+03 -0.21948958297E+04  0.25523680391E+04  0.00000000000E+00 0. -1.
<mgrwt>
<rscale>  0 0.29794606E+04</rscale>
<asrwt>0</asrwt>
<pdfrwt beam="1">  1        2 0.49273209E+00 0.29794606E+04</pdfrwt>
<pdfrwt beam="2">  1       -2 0.10660504E+00 0.29794606E+04</pdfrwt>
<totfact> 0.78425033E-01</totfact>
</mgrwt>
</event>
<event>
 6    1  0.9562506E-007  0.1324421E+04  0.7818608E-02  0.9010420E-01
          2   -1    0    0  501    0  0.00000000000E+00  0.00000000000E+00  0.44982435257E+03  0.44982435257E+03  0.00000000000E+00 0. -1.
         -2   -1    0    0    0  501 -0.00000000000E+00 -0.00000000000E+00 -0.97487609067E+03  0.97487609067E+03  0.00000000000E+00 0.  1.
         23    2    1    2    0    0 -0.24332980335E+03  0.36763096114E+03 -0.79070951491E+03  0.90998113025E+03  0.92098879742E+02 0.  0.
         13    1    3    3    0    0 -0.15201183178E+03  0.14725298985E+03 -0.38509574144E+03  0.43941981077E+03  0.00000000000E+00 0.  1.
        -13    1    3    3    0    0 -0.91317971573E+02  0.22037797128E+03 -0.40561377347E+03  0.47056131948E+03  0.00000000000E+00 0. -1.
         22    1    1    2    0    0  0.24332980335E+03 -0.36763096114E+03  0.26565777681E+03  0.51471931299E+03  0.00000000000E+00 0. -1.
<mgrwt>
<rscale>  0 0.13244214E+04</rscale>
<asrwt>0</asrwt>
<pdfrwt beam="1">  1        2 0.69203747E-01 0.13244214E+04</pdfrwt>
<pdfrwt beam="2">  1       -2 0.14998094E+00 0.13244214E+04</pdfrwt>
<totfact> 0.20386597E+01</totfact>
</mgrwt>
</event>
<event>
 6    1  0.9562506E-007  0.1513229E+04  0.7818608E-02  0.8875703E-01
         -2   -1    0    0    0  501 -0.00000000000E+00  0.00000000000E+00  0.38663351232E+03  0.38663351232E+03  0.00000000000E+00 0.  1.
          2   -1    0    0  501    0  0.00000000000E+00 -0.00000000000E+00 -0.14806411840E+04  0.14806411840E+04  0.00000000000E+00 0. -1.
         23    2    1    2    0    0  0.52308782889E+03  0.51903367407E+03 -0.74535109578E+03  0.10520580138E+04  0.90889915825E+02 0.  0.
         13    1    3    3    0    0  0.39152383020E+03  0.41643097718E+03 -0.62075422470E+03  0.84382550083E+03  0.00000000000E+00 0.  1.
        -13    1    3    3    0    0  0.13156399869E+03  0.10260269689E+03 -0.12459687108E+03  0.20823251294E+03  0.00000000000E+00 0. -1.
         22    1    1    2    0    0 -0.52308782889E+03 -0.51903367407E+03 -0.34865657586E+03  0.81521668251E+03  0.00000000000E+00 0.  1.
<mgrwt>
<rscale>  0 0.15132290E+04</rscale>
<asrwt>0</asrwt>
<pdfrwt beam="1">  1        2 0.22779096E+00 0.15132290E+04</pdfrwt>
<pdfrwt beam="2">  1       -2 0.59482078E-01 0.15132290E+04</pdfrwt>
<totfact> 0.33141934E+01</totfact>
</mgrwt>
</event>
<event>
 6    1  0.9562506E-007  0.2379498E+04  0.7818608E-02  0.8447219E-01
          2   -1    0    0  501    0  0.00000000000E+00  0.00000000000E+00  0.70921940733E+03  0.70921940733E+03  0.00000000000E+00 0. -1.
         -2   -1    0    0    0  501 -0.00000000000E+00 -0.00000000000E+00 -0.19958596900E+04  0.19958596900E+04  0.00000000000E+00 0.  1.
         23    2    1    2    0    0 -0.11150696818E+04 -0.27833379696E+03 -0.30225875372E+03  0.11918517210E+04  0.91104735599E+02 0.  0.
         13    1    3    3    0    0 -0.69399883151E+03 -0.12758944193E+03 -0.18814706957E+03  0.73028266008E+03  0.00000000000E+00 0.  1.
        -13    1    3    3    0    0 -0.42107085032E+03 -0.15074435503E+03 -0.11411168416E+03  0.46156906095E+03  0.00000000000E+00 0. -1.
         22    1    1    2    0    0  0.11150696818E+04  0.27833379696E+03 -0.98438152892E+03  0.15132273763E+04  0.00000000000E+00 0.  1.
<mgrwt>
<rscale>  0 0.23794978E+04</rscale>
<asrwt>0</asrwt>
<pdfrwt beam="1">  1        2 0.10911068E+00 0.23794978E+04</pdfrwt>
<pdfrwt beam="2">  1       -2 0.30705533E+00 0.23794978E+04</pdfrwt>
<totfact> 0.10446513E+00</totfact>
</mgrwt>
</event>
<event>
 6    1  0.9562506E-007  0.2752167E+04  0.7818608E-02  0.8318274E-01
          2   -1    0    0  501    0  0.00000000000E+00  0.00000000000E+00  0.22125976535E+04  0.22125976535E+04  0.00000000000E+00 0. -1.
         -2   -1    0    0    0  501 -0.00000000000E+00 -0.00000000000E+00 -0.85582943259E+03  0.85582943259E+03  0.00000000000E+00 0.  1.
         23    2    1    2    0    0  0.18307459958E+03 -0.35981747504E+03  0.21439945806E+04  0.21837179441E+04  0.94479487780E+02 0.  0.
         13    1    3    3    0    0  0.35573984031E+02 -0.82840745056E+02  0.71579480783E+03  0.72145013986E+03  0.00000000000E+00 0.  1.
        -13    1    3    3    0    0  0.14750061555E+03 -0.27697672998E+03  0.14281997728E+04  0.14622678043E+04  0.00000000000E+00 0. -1.
         22    1    1    2    0    0 -0.18307459958E+03  0.35981747504E+03 -0.78722635972E+03  0.88470914191E+03  0.00000000000E+00 0.  1.
<mgrwt>
<rscale>  0 0.27521673E+04</rscale>
<asrwt>0</asrwt>
<pdfrwt beam="1">  1        2 0.34039964E+00 0.27521673E+04</pdfrwt>
<pdfrwt beam="2">  1       -2 0.13166607E+00 0.27521673E+04</pdfrwt>
<totfact> 0.18659245E+00</totfact>
</mgrwt>
</event>
<event>
 6    1  0.9562506E-007  0.2461211E+04  0.7818608E-02  0.8416936E-01
         -1   -1    0    0    0  501 -0.00000000000E+00  0.00000000000E+00  0.50010462251E+03  0.50010462251E+03  0.00000000000E+00 0.  1.
          1   -1    0    0  501    0  0.00000000000E+00 -0.00000000000E+00 -0.30281459987E+04  0.30281459987E+04  0.00000000000E+00 0. -1.
         23    2    1    2    0    0  0.87087791846E+03  0.66948871156E+03 -0.47597832197E+03  0.12006754318E+04  0.91774974026E+02 0.  0.
         13    1    3    3    0    0  0.45642713295E+03  0.40557296411E+03 -0.24829640421E+03  0.65914054742E+03  0.00000000000E+00 0. -1.
        -13    1    3    3    0    0  0.41445078551E+03  0.26391574745E+03 -0.22768191776E+03  0.54153488442E+03  0.00000000000E+00 0.  1.
         22    1    1    2    0    0 -0.87087791846E+03 -0.66948871156E+03 -0.20520630542E+04  0.23275751894E+04  0.00000000000E+00 0. -1.
<mgrwt>
<rscale>  0 0.24612109E+04</rscale>
<asrwt>0</asrwt>
<pdfrwt beam="1">  1        1 0.46586861E+00 0.24612109E+04</pdfrwt>
<pdfrwt beam="2">  1       -1 0.76939173E-01 0.24612109E+04</pdfrwt>
<totfact> 0.86114952E-01</totfact>
</mgrwt>
</event>
<event>
 6    1  0.9562506E-007  0.2146624E+04  0.7818608E-02  0.8540979E-01
          2   -1    0    0  501    0  0.00000000000E+00  0.00000000000E+00  0.40686289404E+04  0.40686289404E+04  0.00000000000E+00 0. -1.
         -2   -1    0    0    0  501 -0.00000000000E+00 -0.00000000000E+00 -0.28314163209E+03  0.28314163209E+03  0.00000000000E+00 0.  1.
         23    2    1    2    0    0  0.54908692584E+03 -0.79444543864E+03  0.95590775498E+03  0.13619276910E+04  0.91909697557E+02 0.  0.
         11    1    3    3    0    0  0.47784354614E+03 -0.72670291528E+03  0.88409048401E+03  0.12401804569E+04  0.00000000000E+00 0. -1.
        -11    1    3    3    0    0  0.71243379700E+02 -0.67742523362E+02  0.71817270972E+02  0.12174723419E+03  0.00000000000E+00 0.  1.
         22    1    1    2    0    0 -0.54908692584E+03  0.79444543864E+03  0.28295795533E+04  0.29898428814E+04  0.00000000000E+00 0. -1.
<mgrwt>
<rscale>  0 0.21466236E+04</rscale>
<asrwt>0</asrwt>
<pdfrwt beam="1">  1        2 0.62594287E+00 0.21466236E+04</pdfrwt>
<pdfrwt beam="2">  1       -2 0.43560254E-01 0.21466236E+04</pdfrwt>
<totfact> 0.13909078E+00</totfact>
</mgrwt>
</event>
<event>
 6    1  0.9562506E-007  0.2282641E+04  0.7818608E-02  0.8484797E-01
         -2   -1    0    0    0  501 -0.00000000000E+00  0.00000000000E+00  0.62883143427E+03  0.62883143427E+03  0.00000000000E+00 0.  1.
          2   -1    0    0  501    0  0.00000000000E+00 -0.00000000000E+00 -0.20714806731E+04  0.20714806731E+04  0.00000000000E+00 0. -1.
         23    2    1    2    0    0  0.10432573122E+04  0.27918641003E+03 -0.29262584957E+03  0.11226921700E+04  0.92070351907E+02 0.  0.
         13    1    3    3    0    0  0.18271561496E+03  0.82595730863E+02 -0.39095284627E+02  0.20429266259E+03  0.00000000000E+00 0. -1.
        -13    1    3    3    0    0  0.86054169723E+03  0.19659067917E+03 -0.25353056494E+03  0.91839950739E+03  0.00000000000E+00 0.  1.
         22    1    1    2    0    0 -0.10432573122E+04 -0.27918641003E+03 -0.11500233892E+04  0.15776199374E+04  0.00000000000E+00 0. -1.
<mgrwt>
<rscale>  0 0.22826407E+04</rscale>
<asrwt>0</asrwt>
<pdfrwt beam="1">  1        2 0.31868934E+00 0.22826407E+04</pdfrwt>
<pdfrwt beam="2">  1       -2 0.96743295E-01 0.22826407E+04</pdfrwt>
<totfact> 0.49420755E+00</totfact>
</mgrwt>
</event>
<event>
 6    1  0.9562506E-007  0.3221471E+04  0.7818608E-02  0.8183170E-01
          2   -1    0    0  501    0  0.00000000000E+00  0.00000000000E+00  0.26520101093E+04  0.26520101093E+04  0.00000000000E+00 0. -1.
         -2   -1    0    0    0  501 -0.00000000000E+00 -0.00000000000E+00 -0.97830250932E+03  0.97830250932E+03  0.00000000000E+00 0.  1.
         23    2    1    2    0    0  0.42623524235E+03 -0.76322108620E+03  0.23603809540E+04  0.25186907389E+04  0.90674594516E+02 0.  0.
         11    1    3    3    0    0  0.19428687407E+03 -0.29441204027E+03  0.10555397921E+04  0.11129196250E+04  0.00000000000E+00 0. -1.
        -11    1    3    3    0    0  0.23194836829E+03 -0.46880904594E+03  0.13048411619E+04  0.14057711140E+04  0.00000000000E+00 0.  1.
         22    1    1    2    0    0 -0.42623524235E+03  0.76322108620E+03 -0.68667335403E+03  0.11116218797E+04  0.00000000000E+00 0.  1.
<mgrwt>
<rscale>  0 0.32214706E+04</rscale>
<asrwt>0</asrwt>
<pdfrwt beam="1">  1        2 0.40800155E+00 0.32214706E+04</pdfrwt>
<pdfrwt beam="2">  1       -2 0.15050808E+00 0.32214706E+04</pdfrwt>
<totfact> 0.70755337E-01</totfact>
</mgrwt>
</event>
<event>
 6    1  0.9562506E-007  0.3470596E+04  0.7818608E-02  0.8120794E-01
          2   -1    0    0  501    0  0.00000000000E+00  0.00000000000E+00  0.15550007488E+04  0.15550007488E+04  0.00000000000E+00 0. -1.
         -2   -1    0    0    0  501 -0.00000000000E+00 -0.00000000000E+00 -0.19365005264E+04  0.19365005264E+04  0.00000000000E+00 0.  1.
         23    2    1    2    0    0 -0.17017097983E+04 -0.13064503839E+02 -0.52678187779E+03  0.17835510980E+04  0.86996860450E+02 0.  0.
         13    1    3    3    0    0 -0.92287563456E+03  0.25297903218E+02 -0.25539430385E+03  0.95789648251E+03  0.00000000000E+00 0.  1.
        -13    1    3    3    0    0 -0.77883416373E+03 -0.38362407057E+02 -0.27138757393E+03  0.82565461554E+03  0.00000000000E+00 0. -1.
         22    1    1    2    0    0  0.17017097983E+04  0.13064503839E+02  0.14528210014E+03  0.17079501771E+04  0.00000000000E+00 0. -1.
<mgrwt>
<rscale>  0 0.34705964E+04</rscale>
<asrwt>0</asrwt>
<pdfrwt beam="1">  1        2 0.23923088E+00 0.34705964E+04</pdfrwt>
<pdfrwt beam="2">  1       -2 0.29792316E+00 0.34705964E+04</pdfrwt>
<totfact> 0.31858911E-01</totfact>
</mgrwt>
</event>
<event>
 6    1  0.9562506E-007  0.4109557E+04  0.7818608E-02  0.7982803E-01
         -1   -1    0    0    0  501 -0.00000000000E+00  0.00000000000E+00  0.98203028823E+03  0.98203028823E+03  0.00000000000E+00 0.  1.
          1   -1    0    0  501    0  0.00000000000E+00 -0.00000000000E+00 -0.42993721757E+04  0.42993721757E+04  0.00000000000E+00 0. -1.
         23    2    1    2    0    0  0.11795179476E+04 -0.19754529214E+03 -0.38052175538E+04  0.39897719453E+04  0.91174627914E+02 0.  0.
         11    1    3    3    0    0  0.27480886322E+03 -0.63265605464E+02 -0.78571165683E+03  0.83478455652E+03  0.00000000000E+00 0. -1.
        -11    1    3    3    0    0  0.90470908435E+03 -0.13427968668E+03 -0.30195058969E+04  0.31549873888E+04  0.00000000000E+00 0.  1.
         22    1    1    2    0    0 -0.11795179476E+04  0.19754529214E+03  0.48787566627E+03  0.12916305187E+04  0.00000000000E+00 0.  1.
<mgrwt>
<rscale>  0 0.41095565E+04</rscale>
<asrwt>0</asrwt>
<pdfrwt beam="1">  1        1 0.66144187E+00 0.41095565E+04</pdfrwt>
<pdfrwt beam="2">  1       -1 0.15108158E+00 0.41095565E+04</pdfrwt>
<totfact> 0.13457161E-02</totfact>
</mgrwt>
</event>
<event>
 6    1  0.9562506E-007  0.2116901E+04  0.7818608E-02  0.8553835E-01
          2   -1    0    0  501    0  0.00000000000E+00  0.00000000000E+00  0.10039475890E+04  0.10039475890E+04  0.00000000000E+00 0. -1.
         -2   -1    0    0    0  501 -0.00000000000E+00 -0.00000000000E+00 -0.11159124968E+04  0.11159124968E+04  0.00000000000E+00 0.  1.
         23    2    1    2    0    0  0.99869935268E+03 -0.97430912284E+02 -0.38677907019E+03  0.10794678504E+04  0.93592794263E+02 0.  0.
         11    1    3    3    0    0  0.89943514450E+03 -0.84338518924E+02 -0.31682390116E+03  0.95732645909E+03  0.00000000000E+00 0. -1.
        -11    1    3    3    0    0  0.99264208184E+02 -0.13092393360E+02 -0.69955169028E+02  0.12214139128E+03  0.00000000000E+00 0.  1.
         22    1    1    2    0    0 -0.99869935268E+03  0.97430912284E+02  0.27481416239E+03  0.10403922354E+04  0.00000000000E+00 0. -1.
<mgrwt>
<rscale>  0 0.21169012E+04</rscale>
<asrwt>0</asrwt>
<pdfrwt beam="1">  1        2 0.15445347E+00 0.21169012E+04</pdfrwt>
<pdfrwt beam="2">  1       -2 0.17167885E+00 0.21169012E+04</pdfrwt>
<totfact> 0.47778750E+00</totfact>
</mgrwt>
</event>
<event>
 6    1  0.9562506E-007  0.2554349E+04  0.7818608E-02  0.8383875E-01
         -2   -1    0    0    0  501 -0.00000000000E+00  0.00000000000E+00  0.19277647874E+04  0.19277647874E+04  0.00000000000E+00 0.  1.
          2   -1    0    0  501    0  0.00000000000E+00 -0.00000000000E+00 -0.84614808215E+03  0.84614808215E+03  0.00000000000E+00 0. -1.
         23    2    1    2    0    0  0.11575225729E+03  0.15253696972E+03  0.19109713520E+04  0.19227400069E+04  0.91932114619E+02 0.  0.
         13    1    3    3    0    0  0.51130483924E+02  0.13223194931E+03  0.11356093522E+04  0.11444248405E+04  0.00000000000E+00 0. -1.
        -13    1    3    3    0    0  0.64621773363E+02  0.20305020401E+02  0.77536199981E+03  0.77831516636E+03  0.00000000000E+00 0.  1.
         22    1    1    2    0    0 -0.11575225729E+03 -0.15253696972E+03 -0.82935464671E+03  0.85117286271E+03  0.00000000000E+00 0. -1.
<mgrwt>
<rscale>  0 0.25543488E+04</rscale>
<asrwt>0</asrwt>
<pdfrwt beam="1">  1        2 0.13017663E+00 0.25543488E+04</pdfrwt>
<pdfrwt beam="2">  1       -2 0.29657920E+00 0.25543488E+04</pdfrwt>
<totfact> 0.94587466E-01</totfact>
</mgrwt>
</event>
<event>
 6    1  0.9562506E-007  0.1113987E+04  0.7818608E-02  0.9191665E-01
          1   -1    0    0  501    0  0.00000000000E+00  0.00000000000E+00  0.33853377019E+04  0.33853377019E+04  0.00000000000E+00 0. -1.
         -1   -1    0    0    0  501 -0.00000000000E+00 -0.00000000000E+00 -0.91642795453E+02  0.91642795453E+02  0.00000000000E+00 0.  1.
         23    2    1    2    0    0  0.42240973394E+03  0.19624014013E+03  0.72626216716E+03  0.86764130003E+03  0.91676137283E+02 0.  0.
         13    1    3    3    0    0  0.10330997003E+03  0.85582249478E+02  0.25088335827E+03  0.28449908751E+03  0.00000000000E+00 0. -1.
        -13    1    3    3    0    0  0.31909976391E+03  0.11065789065E+03  0.47537880888E+03  0.58314221252E+03  0.00000000000E+00 0.  1.
         22    1    1    2    0    0 -0.42240973394E+03 -0.19624014013E+03  0.25674327393E+04  0.26093391973E+04  0.00000000000E+00 0. -1.
<mgrwt>
<rscale>  0 0.11139871E+04</rscale>
<asrwt>0</asrwt>
<pdfrwt beam="1">  1        1 0.52082109E+00 0.11139871E+04</pdfrwt>
<pdfrwt beam="2">  1       -1 0.14098894E-01 0.11139871E+04</pdfrwt>
<totfact> 0.11405508E+01</totfact>
</mgrwt>
</event>
<event>
 6    1  0.9562506E-007  0.2181479E+04  0.7818608E-02  0.8526177E-01
          2   -1    0    0  501    0  0.00000000000E+00  0.00000000000E+00  0.24548658744E+04  0.24548658744E+04  0.00000000000E+00 0. -1.
         -2   -1    0    0    0  501 -0.00000000000E+00 -0.00000000000E+00 -0.48463439174E+03  0.48463439174E+03  0.00000000000E+00 0.  1.
         23    2    1    2    0    0 -0.14126187399E+03  0.79844260811E+03  0.77442662266E+01  0.81610167186E+03  0.92176188188E+02 0.  0.
         13    1    3    3    0    0 -0.53262360281E+02  0.47136051567E+03 -0.29908281441E+02  0.47530213554E+03  0.00000000000E+00 0. -1.
        -13    1    3    3    0    0 -0.87999513711E+02  0.32708209244E+03  0.37652547668E+02  0.34079953632E+03  0.00000000000E+00 0.  1.
         22    1    1    2    0    0  0.14126187399E+03 -0.79844260811E+03  0.19624872165E+04  0.21233985943E+04  0.00000000000E+00 0. -1.
<mgrwt>
<rscale>  0 0.21814788E+04</rscale>
<asrwt>0</asrwt>
<pdfrwt beam="1">  1        2 0.37767167E+00 0.21814788E+04</pdfrwt>
<pdfrwt beam="2">  1       -2 0.74559139E-01 0.21814788E+04</pdfrwt>
<totfact> 0.54754756E+00</totfact>
</mgrwt>
</event>
<event>
 6    1  0.9562506E-007  0.1197724E+04  0.7818608E-02  0.9114851E-01
          2   -1    0    0  501    0  0.00000000000E+00  0.00000000000E+00  0.49113359648E+03  0.49113359648E+03  0.00000000000E+00 0. -1.
         -2   -1    0    0    0  501 -0.00000000000E+00 -0.00000000000E+00 -0.73022057445E+03  0.73022057445E+03  0.00000000000E+00 0.  1.
         23    2    1    2    0    0  0.67439065514E+02  0.14780806191E+03  0.46364652858E+03  0.50008471229E+03  0.93388250239E+02 0.  0.
         11    1    3    3    0    0  0.30020842235E+02  0.32229089979E+02  0.25393422745E+03  0.25772574005E+03  0.00000000000E+00 0.  1.
        -11    1    3    3    0    0  0.37418223279E+02  0.11557897193E+03  0.20971230113E+03  0.24235897225E+03  0.00000000000E+00 0. -1.
         22    1    1    2    0    0 -0.67439065514E+02 -0.14780806191E+03 -0.70273350656E+03  0.72126945864E+03  0.00000000000E+00 0.  1.
<mgrwt>
<rscale>  0 0.11977243E+04</rscale>
<asrwt>0</asrwt>
<pdfrwt beam="1">  1        2 0.75559015E-01 0.11977243E+04</pdfrwt>
<pdfrwt beam="2">  1       -2 0.11234163E+00 0.11977243E+04</pdfrwt>
<totfact> 0.38731656E+01</totfact>
</mgrwt>
</event>
<event>
 6    1  0.9562506E-007  0.1891695E+04  0.7818608E-02  0.8659002E-01
          1   -1    0    0  501    0  0.00000000000E+00  0.00000000000E+00  0.15704043535E+04  0.15704043535E+04  0.00000000000E+00 0. -1.
         -1   -1    0    0    0  501 -0.00000000000E+00 -0.00000000000E+00 -0.56967946312E+03  0.56967946312E+03  0.00000000000E+00 0.  1.
         23    2    1    2    0    0 -0.22594257615E+03  0.85360736395E+03  0.12709558679E+03  0.89793900235E+03  0.10220364107E+03 0.  0.
         13    1    3    3    0    0 -0.15184565706E+03  0.38054519283E+03  0.46097958539E+02  0.41230664455E+03  0.00000000000E+00 0. -1.
        -13    1    3    3    0    0 -0.74096919092E+02  0.47306217112E+03  0.80997628247E+02  0.48563235780E+03  0.00000000000E+00 0.  1.
         22    1    1    2    0    0  0.22594257615E+03 -0.85360736395E+03  0.87362930355E+03  0.12421448142E+04  0.00000000000E+00 0. -1.
<mgrwt>
<rscale>  0 0.18916946E+04</rscale>
<asrwt>0</asrwt>
<pdfrwt beam="1">  1        1 0.24160067E+00 0.18916946E+04</pdfrwt>
<pdfrwt beam="2">  1       -1 0.87642995E-01 0.18916946E+04</pdfrwt>
<totfact> 0.70113545E+00</totfact>
</mgrwt>
</event>
<event>
 6    1  0.9562506E-007  0.3040156E+04  0.7818608E-02  0.8232356E-01
         -1   -1    0    0    0  501 -0.00000000000E+00  0.00000000000E+00  0.17885322365E+04  0.17885322365E+04  0.00000000000E+00 0.  1.
          1   -1    0    0  501    0  0.00000000000E+00 -0.00000000000E+00 -0.12919183242E+04  0.12919183242E+04  0.00000000000E+00 0. -1.
         23    2    1    2    0    0  0.10379851796E+03  0.99725092966E+03 -0.90714703751E+03  0.13553916187E+04  0.94271647253E+02 0.  0.
         13    1    3    3    0    0 -0.10892285311E+02  0.31861537476E+03 -0.28745654199E+03  0.42926176448E+03  0.00000000000E+00 0. -1.
        -13    1    3    3    0    0  0.11469080327E+03  0.67863555489E+03 -0.61969049552E+03  0.92612985426E+03  0.00000000000E+00 0.  1.
         22    1    1    2    0    0 -0.10379851796E+03 -0.99725092966E+03  0.14037609498E+04  0.17250589420E+04  0.00000000000E+00 0.  1.
<mgrwt>
<rscale>  0 0.30401563E+04</rscale>
<asrwt>0</asrwt>
<pdfrwt beam="1">  1        1 0.19875667E+00 0.30401563E+04</pdfrwt>
<pdfrwt beam="2">  1       -1 0.27515880E+00 0.30401563E+04</pdfrwt>
<totfact> 0.37192023E-01</totfact>
</mgrwt>
</event>
<event>
 6    1  0.9562506E-007  0.3543969E+04  0.7818608E-02  0.8103448E-01
          2   -1    0    0  501    0  0.00000000000E+00  0.00000000000E+00  0.13755673191E+04  0.13755673191E+04  0.00000000000E+00 0. -1.
         -2   -1    0    0    0  501 -0.00000000000E+00 -0.00000000000E+00 -0.22826426353E+04  0.22826426353E+04  0.00000000000E+00 0.  1.
         23    2    1    2    0    0  0.10157487016E+03  0.88560360360E+03  0.11255580178E+04  0.14387033724E+04  0.91516913710E+02 0.  0.
         13    1    3    3    0    0  0.98936813298E+02  0.46658361849E+03  0.58795759317E+03  0.75708843436E+03  0.00000000000E+00 0.  1.
        -13    1    3    3    0    0  0.26380568649E+01  0.41901998511E+03  0.53760042460E+03  0.68161493807E+03  0.00000000000E+00 0. -1.
         22    1    1    2    0    0 -0.10157487016E+03 -0.88560360360E+03 -0.20326333340E+04  0.22195065820E+04  0.00000000000E+00 0.  1.
<mgrwt>
<rscale>  0 0.35439687E+04</rscale>
<asrwt>0</asrwt>
<pdfrwt beam="1">  1        2 0.21162574E+00 0.35439687E+04</pdfrwt>
<pdfrwt beam="2">  1       -2 0.35117579E+00 0.35439687E+04</pdfrwt>
<totfact> 0.18708128E-01</totfact>
</mgrwt>
</event>
<event>
 6    1  0.9562506E-007  0.2647041E+04  0.7818608E-02  0.8352396E-01
          2   -1    0    0  501    0  0.00000000000E+00  0.00000000000E+00  0.16759006494E+04  0.16759006494E+04  0.00000000000E+00 0. -1.
         -2   -1    0    0    0  501 -0.00000000000E+00 -0.00000000000E+00 -0.10452331759E+04  0.10452331759E+04  0.00000000000E+00 0.  1.
         23    2    1    2    0    0  0.38827779970E+03  0.11894686684E+04 -0.12270913558E+03  0.12605956787E+04  0.91916105395E+02 0.  0.
         13    1    3    3    0    0  0.18800414875E+03  0.70353899286E+03 -0.49039289713E+02  0.72987500735E+03  0.00000000000E+00 0.  1.
        -13    1    3    3    0    0  0.20027365095E+03  0.48592967550E+03 -0.73669845865E+02  0.53072067134E+03  0.00000000000E+00 0. -1.
         22    1    1    2    0    0 -0.38827779970E+03 -0.11894686684E+04  0.75337660907E+03  0.14605381467E+04  0.00000000000E+00 0. -1.
<mgrwt>
<rscale>  0 0.26470413E+04</rscale>
<asrwt>0</asrwt>
<pdfrwt beam="1">  1        2 0.25783087E+00 0.26470413E+04</pdfrwt>
<pdfrwt beam="2">  1       -2 0.16080510E+00 0.26470413E+04</pdfrwt>
<totfact> 0.22148053E+00</totfact>
</mgrwt>
</event>
<event>
 6    1  0.9562506E-007  0.2246738E+04  0.7818608E-02  0.8499223E-01
          2   -1    0    0  501    0  0.00000000000E+00  0.00000000000E+00  0.15098002254E+04  0.15098002254E+04  0.00000000000E+00 0. -1.
         -2   -1    0    0    0  501 -0.00000000000E+00 -0.00000000000E+00 -0.83584408980E+03  0.83584408980E+03  0.00000000000E+00 0.  1.
         23    2    1    2    0    0 -0.70998748460E+03  0.75728383609E+03 -0.10565987405E+03  0.10474293256E+04  0.91559523896E+02 0.  0.
         13    1    3    3    0    0 -0.33583482444E+03  0.40150089536E+03 -0.18099676721E+02  0.52375146451E+03  0.00000000000E+00 0. -1.
        -13    1    3    3    0    0 -0.37415266016E+03  0.35578294073E+03 -0.87560197331E+02  0.52367786108E+03  0.00000000000E+00 0.  1.
         22    1    1    2    0    0  0.70998748460E+03 -0.75728383609E+03  0.77961600961E+03  0.12982149896E+04  0.00000000000E+00 0. -1.
<mgrwt>
<rscale>  0 0.22467377E+04</rscale>
<asrwt>0</asrwt>
<pdfrwt beam="1">  1        2 0.23227696E+00 0.22467377E+04</pdfrwt>
<pdfrwt beam="2">  1       -2 0.12859140E+00 0.22467377E+04</pdfrwt>
<totfact> 0.50957347E+00</totfact>
</mgrwt>
</event>
<event>
 6    1  0.9562506E-007  0.2589366E+04  0.7818608E-02  0.8371822E-01
          2   -1    0    0  501    0  0.00000000000E+00  0.00000000000E+00  0.96005436862E+03  0.96005436862E+03  0.00000000000E+00 0. -1.
         -2   -1    0    0    0  501 -0.00000000000E+00 -0.00000000000E+00 -0.17459475780E+04  0.17459475780E+04  0.00000000000E+00 0.  1.
         23    2    1    2    0    0 -0.10390913115E+04 -0.39777582286E+03 -0.10820930765E+04  0.15546241979E+04  0.89412593204E+02 0.  0.
         13    1    3    3    0    0 -0.84548379395E+03 -0.33952854590E+03 -0.92719641182E+03  0.12999291001E+04  0.00000000000E+00 0.  1.
        -13    1    3    3    0    0 -0.19360751756E+03 -0.58247276965E+02 -0.15489666463E+03  0.25469509780E+03  0.00000000000E+00 0. -1.
         22    1    1    2    0    0  0.10390913115E+04  0.39777582286E+03  0.29619986705E+03  0.11513777487E+04  0.00000000000E+00 0. -1.
<mgrwt>
<rscale>  0 0.25893664E+04</rscale>
<asrwt>0</asrwt>
<pdfrwt beam="1">  1        2 0.14770067E+00 0.25893664E+04</pdfrwt>
<pdfrwt beam="2">  1       -2 0.26860732E+00 0.25893664E+04</pdfrwt>
<totfact> 0.11700312E+00</totfact>
</mgrwt>
</event>
<event>
 6    1  0.9562506E-007  0.4309646E+04  0.7818608E-02  0.7944837E-01
          2   -1    0    0  501    0  0.00000000000E+00  0.00000000000E+00  0.36681565394E+04  0.36681565394E+04  0.00000000000E+00 0. -1.
         -2   -1    0    0    0  501 -0.00000000000E+00 -0.00000000000E+00 -0.12658299801E+04  0.12658299801E+04  0.00000000000E+00 0.  1.
         23    2    1    2    0    0 -0.15454447715E+04 -0.11885010472E+04  0.15354150317E+03  0.19577525722E+04  0.91026699720E+02 0.  0.
         13    1    3    3    0    0 -0.36067869249E+03 -0.32437551486E+03  0.25541144862E+02  0.48575811258E+03  0.00000000000E+00 0. -1.
        -13    1    3    3    0    0 -0.11847660790E+04 -0.86412553231E+03  0.12800035831E+03  0.14719944596E+04  0.00000000000E+00 0.  1.
         22    1    1    2    0    0  0.15454447715E+04  0.11885010472E+04  0.22487850561E+04  0.29762339473E+04  0.00000000000E+00 0. -1.
<mgrwt>
<rscale>  0 0.43096462E+04</rscale>
<asrwt>0</asrwt>
<pdfrwt beam="1">  1        2 0.56433177E+00 0.43096462E+04</pdfrwt>
<pdfrwt beam="2">  1       -2 0.19474308E+00 0.43096462E+04</pdfrwt>
<totfact> 0.68128848E-02</totfact>
</mgrwt>
</event>
<event>
 6    1  0.9562506E-007  0.3589172E+04  0.7818608E-02  0.8092976E-01
          1   -1    0    0  501    0  0.00000000000E+00  0.00000000000E+00  0.15318240415E+04  0.15318240415E+04  0.00000000000E+00 0. -1.
         -1   -1    0    0    0  501 -0.00000000000E+00 -0.00000000000E+00 -0.21024213396E+04  0.21024213396E+04  0.00000000000E+00 0.  1.
         23    2    1    2    0    0 -0.10852850975E+04 -0.57603777148E+03  0.10377662927E+04  0.16102649719E+04  0.79568488440E+02 0.  0.
         11    1    3    3    0    0 -0.97179814388E+03 -0.50003691342E+03  0.94852554468E+03  0.14471106579E+04  0.00000000000E+00 0. -1.
        -11    1    3    3    0    0 -0.11348695365E+03 -0.76000858051E+02  0.89240747991E+02  0.16315431399E+03  0.00000000000E+00 0.  1.
         22    1    1    2    0    0  0.10852850975E+04  0.57603777148E+03 -0.16083635907E+04  0.20239804093E+04  0.00000000000E+00 0.  1.
<mgrwt>
<rscale>  0 0.35891724E+04</rscale>
<asrwt>0</asrwt>
<pdfrwt beam="1">  1        1 0.23566524E+00 0.35891724E+04</pdfrwt>
<pdfrwt beam="2">  1       -1 0.32344944E+00 0.35891724E+04</pdfrwt>
<totfact> 0.11697304E-01</totfact>
</mgrwt>
</event>
<event>
 6    1  0.9562506E-007  0.3774375E+03  0.7818608E-02  0.1051885E+00
         -2   -1    0    0    0  501 -0.00000000000E+00  0.00000000000E+00  0.92315518242E+02  0.92315518242E+02  0.00000000000E+00 0.  1.
          2   -1    0    0  501    0  0.00000000000E+00 -0.00000000000E+00 -0.38579393738E+03  0.38579393738E+03  0.00000000000E+00 0. -1.
         23    2    1    2    0    0 -0.16004526663E+03  0.65328198112E+02 -0.20797849171E+03  0.28525588830E+03  0.90739230513E+02 0.  0.
         13    1    3    3    0    0 -0.65202558544E+02 -0.17389200034E+02 -0.54238195210E+02  0.86576785215E+02  0.00000000000E+00 0.  1.
        -13    1    3    3    0    0 -0.94842708088E+02  0.82717398146E+02 -0.15374029650E+03  0.19867910308E+03  0.00000000000E+00 0. -1.
         22    1    1    2    0    0  0.16004526663E+03 -0.65328198112E+02 -0.85499927427E+02  0.19285356732E+03  0.00000000000E+00 0.  1.
<mgrwt>
<rscale>  0 0.37743750E+03</rscale>
<asrwt>0</asrwt>
<pdfrwt beam="1">  1        2 0.59352915E-01 0.37743750E+03</pdfrwt>
<pdfrwt beam="2">  1       -2 0.14202387E-01 0.37743750E+03</pdfrwt>
<totfact> 0.31303161E+03</totfact>
</mgrwt>
</event>
<event>
 6    1  0.9562506E-007  0.2078020E+04  0.7818608E-02  0.8570988E-01
          1   -1    0    0  501    0  0.00000000000E+00  0.00000000000E+00  0.20269091425E+04  0.20269091425E+04  0.00000000000E+00 0. -1.
         -1   -1    0    0    0  501 -0.00000000000E+00 -0.00000000000E+00 -0.53260503161E+03  0.53260503161E+03  0.00000000000E+00 0.  1.
         23    2    1    2    0    0  0.35681198621E+03 -0.67514897384E+03 -0.11550560313E+03  0.77776552582E+03  0.91851719674E+02 0.  0.
         13    1    3    3    0    0  0.24189089749E+03 -0.36860373764E+03 -0.84625527993E+02  0.44893362726E+03  0.00000000000E+00 0.  1.
        -13    1    3    3    0    0  0.11492108872E+03 -0.30654523620E+03 -0.30880075132E+02  0.32883189856E+03  0.00000000000E+00 0. -1.
         22    1    1    2    0    0 -0.35681198621E+03  0.67514897384E+03  0.16098097140E+04  0.17817486483E+04  0.00000000000E+00 0. -1.
<mgrwt>
<rscale>  0 0.20780202E+04</rscale>
<asrwt>0</asrwt>
<pdfrwt beam="1">  1        1 0.31183217E+00 0.20780202E+04</pdfrwt>
<pdfrwt beam="2">  1       -1 0.81939237E-01 0.20780202E+04</pdfrwt>
<totfact> 0.39011391E+00</totfact>
</mgrwt>
</event>
<event>
 6    1  0.9562506E-007  0.1466095E+04  0.7818608E-02  0.8907318E-01
          1   -1    0    0  501    0  0.00000000000E+00  0.00000000000E+00  0.10780155781E+04  0.10780155781E+04  0.00000000000E+00 0. -1.
         -1   -1    0    0    0  501 -0.00000000000E+00 -0.00000000000E+00 -0.49847033806E+03  0.49847033806E+03  0.00000000000E+00 0.  1.
         23    2    1    2    0    0  0.22690473907E+03 -0.42669645848E+03  0.87960769589E+03  0.10076334698E+04  0.89776848508E+02 0.  0.
         11    1    3    3    0    0  0.12805941532E+02 -0.71747567092E+02  0.18362977144E+03  0.19756416295E+03  0.00000000000E+00 0. -1.
        -11    1    3    3    0    0  0.21409879754E+03 -0.35494889138E+03  0.69597792445E+03  0.81006930687E+03  0.00000000000E+00 0.  1.
         22    1    1    2    0    0 -0.22690473907E+03  0.42669645848E+03 -0.30006245586E+03  0.56885244634E+03  0.00000000000E+00 0.  1.
<mgrwt>
<rscale>  0 0.14660952E+04</rscale>
<asrwt>0</asrwt>
<pdfrwt beam="1">  1        1 0.16584855E+00 0.14660952E+04</pdfrwt>
<pdfrwt beam="2">  1       -1 0.76687745E-01 0.14660952E+04</pdfrwt>
<totfact> 0.21806600E+01</totfact>
</mgrwt>
</event>
<event>
 6    1  0.9562506E-007  0.1704040E+04  0.7818608E-02  0.8759064E-01
          2   -1    0    0  501    0  0.00000000000E+00  0.00000000000E+00  0.15273015700E+04  0.15273015700E+04  0.00000000000E+00 0. -1.
         -2   -1    0    0    0  501 -0.00000000000E+00 -0.00000000000E+00 -0.47530761191E+03  0.47530761191E+03  0.00000000000E+00 0.  1.
         23    2    1    2    0    0 -0.97194622075E+02  0.38000473675E+03 -0.35797951547E+03  0.53909437479E+03  0.92860200968E+02 0.  0.
         13    1    3    3    0    0 -0.42879487588E+02  0.55015613547E+02 -0.36394468837E+02  0.78676079920E+02  0.00000000000E+00 0.  1.
        -13    1    3    3    0    0 -0.54315134487E+02  0.32498912320E+03 -0.32158504663E+03  0.46041829487E+03  0.00000000000E+00 0. -1.
         22    1    1    2    0    0  0.97194622075E+02 -0.38000473675E+03  0.14099734735E+04  0.14635148071E+04  0.00000000000E+00 0. -1.
<mgrwt>
<rscale>  0 0.17040400E+04</rscale>
<asrwt>0</asrwt>
<pdfrwt beam="1">  1        2 0.23496947E+00 0.17040400E+04</pdfrwt>
<pdfrwt beam="2">  1       -2 0.73124249E-01 0.17040400E+04</pdfrwt>
<totfact> 0.19681223E+01</totfact>
</mgrwt>
</event>
<event>
 6    1  0.9562506E-007  0.5842906E+04  0.7818608E-02  0.7710190E-01
         -2   -1    0    0    0  501 -0.00000000000E+00  0.00000000000E+00  0.25177506009E+04  0.25177506009E+04  0.00000000000E+00 0.  1.
          2   -1    0    0  501    0  0.00000000000E+00 -0.00000000000E+00 -0.33898857507E+04  0.33898857507E+04  0.00000000000E+00 0. -1.
         23    2    1    2    0    0  0.53608609966E+03  0.17997706787E+04  0.18255473405E+04  0.26206843256E+04  0.93810660668E+02 0.  0.
         11    1    3    3    0    0  0.41291979043E+03  0.12740447651E+04  0.13394158672E+04  0.18941297955E+04  0.00000000000E+00 0. -1.
        -11    1    3    3    0    0  0.12316630923E+03  0.52572591359E+03  0.48613147332E+03  0.72655453016E+03  0.00000000000E+00 0.  1.
         22    1    1    2    0    0 -0.53608609966E+03 -0.17997706787E+04 -0.26976824904E+04  0.32869520260E+04  0.00000000000E+00 0. -1.
<mgrwt>
<rscale>  0 0.58429057E+04</rscale>
<asrwt>0</asrwt>
<pdfrwt beam="1">  1        2 0.52152089E+00 0.58429057E+04</pdfrwt>
<pdfrwt beam="2">  1       -2 0.38734624E+00 0.58429057E+04</pdfrwt>
<totfact> 0.59177059E-03</totfact>
</mgrwt>
</event>
<event>
 6    1  0.9562506E-007  0.4726952E+04  0.7818608E-02  0.7872066E-01
         -2   -1    0    0    0  501 -0.00000000000E+00  0.00000000000E+00  0.27734756031E+04  0.27734756031E+04  0.00000000000E+00 0.  1.
          2   -1    0    0  501    0  0.00000000000E+00 -0.00000000000E+00 -0.20140864318E+04  0.20140864318E+04  0.00000000000E+00 0. -1.
         23    2    1    2    0    0 -0.14142324831E+04  0.31223874189E+03  0.22703108031E+04  0.26946141795E+04  0.95330401861E+02 0.  0.
         11    1    3    3    0    0 -0.12369684775E+04  0.30362597862E+03  0.19754914097E+04  0.23504991085E+04  0.00000000000E+00 0.  1.
        -11    1    3    3    0    0 -0.17726400554E+03  0.86127632752E+01  0.29481939345E+03  0.34411507102E+03  0.00000000000E+00 0. -1.
         22    1    1    2    0    0  0.14142324831E+04 -0.31223874189E+03 -0.15109216318E+04  0.20929478554E+04  0.00000000000E+00 0. -1.
<mgrwt>
<rscale>  0 0.47269523E+04</rscale>
<asrwt>0</asrwt>
<pdfrwt beam="1">  1        2 0.30985945E+00 0.47269523E+04</pdfrwt>
<pdfrwt beam="2">  1       -2 0.42668855E+00 0.47269523E+04</pdfrwt>
<totfact> 0.24199781E-02</totfact>
</mgrwt>
</event>
<event>
 6    1  0.9562506E-007  0.2049289E+04  0.7818608E-02  0.8583917E-01
          1   -1    0    0  501    0  0.00000000000E+00  0.00000000000E+00  0.22025161922E+04  0.22025161922E+04  0.00000000000E+00 0. -1.
         -1   -1    0    0    0  501 -0.00000000000E+00 -0.00000000000E+00 -0.47668032470E+03  0.47668032470E+03  0.00000000000E+00 0.  1.
         23    2    1    2    0    0  0.57045073086E+02  0.90044876089E+03  0.23531718726E+03  0.93686817599E+03  0.91025761336E+02 0.  0.
         13    1    3    3    0    0  0.20639630125E+02  0.72092519229E+03  0.21489845997E+03  0.75255596158E+03  0.00000000000E+00 0.  1.
        -13    1    3    3    0    0  0.36405442962E+02  0.17952356860E+03  0.20418727289E+02  0.18431221441E+03  0.00000000000E+00 0. -1.
         22    1    1    2    0    0 -0.57045073086E+02 -0.90044876089E+03  0.14905186802E+04  0.17423283409E+04  0.00000000000E+00 0.  1.
<mgrwt>
<rscale>  0 0.20492888E+04</rscale>
<asrwt>0</asrwt>
<pdfrwt beam="1">  1        1 0.33884864E+00 0.20492888E+04</pdfrwt>
<pdfrwt beam="2">  1       -1 0.73335436E-01 0.20492888E+04</pdfrwt>
<totfact> 0.37557336E+00</totfact>
</mgrwt>
</event>
<event>
 6    1  0.9562506E-007  0.6088876E+04  0.7818608E-02  0.7679479E-01
         -2   -1    0    0    0  501 -0.00000000000E+00  0.00000000000E+00  0.28585276948E+04  0.28585276948E+04  0.00000000000E+00 0.  1.
          2   -1    0    0  501    0  0.00000000000E+00 -0.00000000000E+00 -0.32424397905E+04  0.32424397905E+04  0.00000000000E+00 0. -1.
         23    2    1    2    0    0  0.23982971309E+04  0.18706929029E+04 -0.77229179228E+02  0.30439467991E+04  0.91250779911E+02 0.  0.
         13    1    3    3    0    0  0.99251481473E+03  0.76768565589E+03 -0.76510321942E+02  0.12570921816E+04  0.00000000000E+00 0. -1.
        -13    1    3    3    0    0  0.14057823161E+04  0.11030072470E+04 -0.71885728568E+00  0.17868546175E+04  0.00000000000E+00 0.  1.
         22    1    1    2    0    0 -0.23982971309E+04 -0.18706929029E+04 -0.30668291645E+03  0.30570206862E+04  0.00000000000E+00 0. -1.
<mgrwt>
<rscale>  0 0.60888764E+04</rscale>
<asrwt>0</asrwt>
<pdfrwt beam="1">  1        2 0.49883689E+00 0.60888764E+04</pdfrwt>
<pdfrwt beam="2">  1       -2 0.43977349E+00 0.60888764E+04</pdfrwt>
<totfact> 0.33074270E-03</totfact>
</mgrwt>
</event>
<event>
 6    1  0.9562506E-007  0.3283058E+04  0.7818608E-02  0.8167220E-01
          1   -1    0    0  501    0  0.00000000000E+00  0.00000000000E+00  0.10417402095E+04  0.10417402095E+04  0.00000000000E+00 0. -1.
         -1   -1    0    0    0  501 -0.00000000000E+00 -0.00000000000E+00 -0.25866507293E+04  0.25866507293E+04  0.00000000000E+00 0.  1.
         23    2    1    2    0    0 -0.83890532874E+03  0.59962864517E+03 -0.21828282893E+04  0.24158499113E+04  0.90965875183E+02 0.  0.
         11    1    3    3    0    0 -0.31129779931E+03  0.27465867411E+03 -0.90780992042E+03  0.99822971240E+03  0.00000000000E+00 0.  1.
        -11    1    3    3    0    0 -0.52760752944E+03  0.32496997106E+03 -0.12750183689E+04  0.14176201989E+04  0.00000000000E+00 0. -1.
         22    1    1    2    0    0  0.83890532874E+03 -0.59962864517E+03  0.63791776948E+03  0.12125410275E+04  0.00000000000E+00 0. -1.
<mgrwt>
<rscale>  0 0.32830584E+04</rscale>
<asrwt>0</asrwt>
<pdfrwt beam="1">  1        1 0.16026772E+00 0.32830584E+04</pdfrwt>
<pdfrwt beam="2">  1       -1 0.39794627E+00 0.32830584E+04</pdfrwt>
<totfact> 0.86131049E-02</totfact>
</mgrwt>
</event>
<event>
 6    1  0.9562506E-007  0.3434080E+04  0.7818608E-02  0.8129592E-01
         -2   -1    0    0    0  501 -0.00000000000E+00  0.00000000000E+00  0.10965551540E+04  0.10965551540E+04  0.00000000000E+00 0.  1.
          2   -1    0    0  501    0  0.00000000000E+00 -0.00000000000E+00 -0.26886254447E+04  0.26886254447E+04  0.00000000000E+00 0. -1.
         23    2    1    2    0    0  0.16370580483E+04 -0.34654891421E+03 -0.37825814466E+03  0.17179614208E+04  0.90868124417E+02 0.  0.
         11    1    3    3    0    0  0.14793451225E+04 -0.33070252886E+03 -0.32133107647E+03  0.15495418080E+04  0.00000000000E+00 0. -1.
        -11    1    3    3    0    0  0.15771292584E+03 -0.15846385354E+02 -0.56927068185E+02  0.16841961286E+03  0.00000000000E+00 0.  1.
         22    1    1    2    0    0 -0.16370580483E+04  0.34654891421E+03 -0.12138121461E+04  0.20672191779E+04  0.00000000000E+00 0. -1.
<mgrwt>
<rscale>  0 0.34340798E+04</rscale>
<asrwt>0</asrwt>
<pdfrwt beam="1">  1        2 0.41363468E+00 0.34340798E+04</pdfrwt>
<pdfrwt beam="2">  1       -2 0.16870079E+00 0.34340798E+04</pdfrwt>
<totfact> 0.48502678E-01</totfact>
</mgrwt>
</event>
<event>
 6    1  0.9562506E-007  0.1477592E+04  0.7818608E-02  0.8899492E-01
          1   -1    0    0  501    0  0.00000000000E+00  0.00000000000E+00  0.28341842416E+04  0.28341842416E+04  0.00000000000E+00 0. -1.
         -1   -1    0    0    0  501 -0.00000000000E+00 -0.00000000000E+00 -0.19258439696E+03  0.19258439696E+03  0.00000000000E+00 0.  1.
         23    2    1    2    0    0  0.66040050205E+03  0.10902417747E+03  0.19526941299E+04  0.20662447304E+04  0.91311699865E+02 0.  0.
         13    1    3    3    0    0  0.29649958741E+03  0.41934188305E+02  0.73798979568E+03  0.79642916824E+03  0.00000000000E+00 0. -1.
        -13    1    3    3    0    0  0.36390091464E+03  0.67089989164E+02  0.12147043342E+04  0.12698155621E+04  0.00000000000E+00 0.  1.
         22    1    1    2    0    0 -0.66040050205E+03 -0.10902417747E+03  0.68890571476E+03  0.96052390819E+03  0.00000000000E+00 0.  1.
<mgrwt>
<rscale>  0 0.14775922E+04</rscale>
<asrwt>0</asrwt>
<pdfrwt beam="1">  1        1 0.43602832E+00 0.14775922E+04</pdfrwt>
<pdfrwt beam="2">  1       -1 0.29628371E-01 0.14775922E+04</pdfrwt>
<totfact> 0.80036018E+00</totfact>
</mgrwt>
</event>
<event>
 6    1  0.9562506E-007  0.4518971E+04  0.7818608E-02  0.7907324E-01
          2   -1    0    0  501    0  0.00000000000E+00  0.00000000000E+00  0.38434680853E+04  0.38434680853E+04  0.00000000000E+00 0. -1.
         -2   -1    0    0    0  501 -0.00000000000E+00 -0.00000000000E+00 -0.13282987347E+04  0.13282987347E+04  0.00000000000E+00 0.  1.
         23    2    1    2    0    0  0.11260237172E+04 -0.19256360818E+04  0.16624980009E+04  0.27836604233E+04  0.94138290164E+02 0.  0.
         11    1    3    3    0    0  0.18041572118E+03 -0.36100737324E+03  0.33189464118E+03  0.52252292660E+03  0.00000000000E+00 0.  1.
        -11    1    3    3    0    0  0.94560799602E+03 -0.15646287086E+04  0.13306033598E+04  0.22611374967E+04  0.00000000000E+00 0. -1.
         22    1    1    2    0    0 -0.11260237172E+04  0.19256360818E+04  0.85267134972E+03  0.23881063967E+04  0.00000000000E+00 0. -1.
<mgrwt>
<rscale>  0 0.45189706E+04</rscale>
<asrwt>0</asrwt>
<pdfrwt beam="1">  1        2 0.59130278E+00 0.45189706E+04</pdfrwt>
<pdfrwt beam="2">  1       -2 0.20435365E+00 0.45189706E+04</pdfrwt>
<totfact> 0.42720538E-02</totfact>
</mgrwt>
</event>
<event>
 6    1  0.9562506E-007  0.1529666E+04  0.7818608E-02  0.8864961E-01
         -2   -1    0    0    0  501 -0.00000000000E+00  0.00000000000E+00  0.19994271108E+03  0.19994271108E+03  0.00000000000E+00 0.  1.
          2   -1    0    0  501    0  0.00000000000E+00 -0.00000000000E+00 -0.29256873514E+04  0.29256873514E+04  0.00000000000E+00 0. -1.
         23    2    1    2    0    0 -0.35329744145E+03 -0.65196643007E+03 -0.10071357819E+04  0.12538673327E+04  0.89339223987E+02 0.  0.
         13    1    3    3    0    0 -0.29171474750E+02 -0.11974547837E+03 -0.14967002590E+03  0.19388416950E+03  0.00000000000E+00 0.  1.
        -13    1    3    3    0    0 -0.32412596670E+03 -0.53222095170E+03 -0.85746575596E+03  0.10599831632E+04  0.00000000000E+00 0. -1.
         22    1    1    2    0    0  0.35329744145E+03  0.65196643007E+03 -0.17186088585E+04  0.18717627298E+04  0.00000000000E+00 0. -1.
<mgrwt>
<rscale>  0 0.15296664E+04</rscale>
<asrwt>0</asrwt>
<pdfrwt beam="1">  1        2 0.45010577E+00 0.15296664E+04</pdfrwt>
<pdfrwt beam="2">  1       -2 0.30760416E-01 0.15296664E+04</pdfrwt>
<totfact> 0.18384214E+01</totfact>
</mgrwt>
</event>
<event>
 6    1  0.9562506E-007  0.4433255E+04  0.7818608E-02  0.7922427E-01
          1   -1    0    0  501    0  0.00000000000E+00  0.00000000000E+00  0.46446508118E+04  0.46446508118E+04  0.00000000000E+00 0. -1.
         -1   -1    0    0    0  501 -0.00000000000E+00 -0.00000000000E+00 -0.10578703511E+04  0.10578703511E+04  0.00000000000E+00 0.  1.
         23    2    1    2    0    0  0.14015620238E+04 -0.15064492653E+04  0.28514356134E+04  0.35174587977E+04  0.89810024688E+02 0.  0.
         13    1    3    3    0    0  0.23663307655E+03 -0.25319637247E+03  0.53948883298E+03  0.64121121080E+03  0.00000000000E+00 0. -1.
        -13    1    3    3    0    0  0.11649289472E+04 -0.12532528928E+04  0.23119467804E+04  0.28762475869E+04  0.00000000000E+00 0.  1.
         22    1    1    2    0    0 -0.14015620238E+04  0.15064492653E+04  0.73534484730E+03  0.21850623652E+04  0.00000000000E+00 0.  1.
<mgrwt>
<rscale>  0 0.44332554E+04</rscale>
<asrwt>0</asrwt>
<pdfrwt beam="1">  1        1 0.71456165E+00 0.44332554E+04</pdfrwt>
<pdfrwt beam="2">  1       -1 0.16274929E+00 0.44332554E+04</pdfrwt>
<totfact> 0.47301952E-03</totfact>
</mgrwt>
</event>
<event>
 6    1  0.9562506E-007  0.7437307E+03  0.7818608E-02  0.9645238E-01
          1   -1    0    0  501    0  0.00000000000E+00  0.00000000000E+00  0.48578927938E+03  0.48578927938E+03  0.00000000000E+00 0. -1.
         -1   -1    0    0    0  501 -0.00000000000E+00 -0.00000000000E+00 -0.28465808377E+03  0.28465808377E+03  0.00000000000E+00 0.  1.
         23    2    1    2    0    0 -0.11803220050E+02  0.36043918878E+03  0.35775062256E+02  0.37371272179E+03  0.91244827435E+02 0.  0.
         13    1    3    3    0    0  0.22961369289E+02  0.18485290339E+03 -0.17139703054E+02  0.18706039076E+03  0.00000000000E+00 0.  1.
        -13    1    3    3    0    0 -0.34764589339E+02  0.17558628540E+03  0.52914765310E+02  0.18665233103E+03  0.00000000000E+00 0. -1.
         22    1    1    2    0    0  0.11803220050E+02 -0.36043918878E+03  0.16535613335E+03  0.39673464136E+03  0.00000000000E+00 0.  1.
<mgrwt>
<rscale>  0 0.74373072E+03</rscale>
<asrwt>0</asrwt>
<pdfrwt beam="1">  1        1 0.74736812E-01 0.74373072E+03</pdfrwt>
<pdfrwt beam="2">  1       -1 0.43793551E-01 0.74373072E+03</pdfrwt>
<totfact> 0.24058210E+02</totfact>
</mgrwt>
</event>
<event>
 6    1  0.9562506E-007  0.1257663E+04  0.7818608E-02  0.9063829E-01
         -2   -1    0    0    0  501 -0.00000000000E+00  0.00000000000E+00  0.29785163572E+03  0.29785163572E+03  0.00000000000E+00 0.  1.
          2   -1    0    0  501    0  0.00000000000E+00 -0.00000000000E+00 -0.13276040397E+04  0.13276040397E+04  0.00000000000E+00 0. -1.
         23    2    1    2    0    0 -0.55389748329E+03  0.28830035561E+03 -0.47107464869E+03  0.78757719301E+03  0.91907525656E+02 0.  0.
         11    1    3    3    0    0 -0.25435901765E+03  0.83226419058E+02 -0.21578184073E+03  0.34378328854E+03  0.00000000000E+00 0. -1.
        -11    1    3    3    0    0 -0.29953846564E+03  0.20507393655E+03 -0.25529280796E+03  0.44379390448E+03  0.00000000000E+00 0.  1.
         22    1    1    2    0    0  0.55389748329E+03 -0.28830035561E+03 -0.55867775534E+03  0.83787848245E+03  0.00000000000E+00 0. -1.
<mgrwt>
<rscale>  0 0.12576630E+04</rscale>
<asrwt>0</asrwt>
<pdfrwt beam="1">  1        2 0.20424678E+00 0.12576630E+04</pdfrwt>
<pdfrwt beam="2">  1       -2 0.45823328E-01 0.12576630E+04</pdfrwt>
<totfact> 0.70689490E+01</totfact>
</mgrwt>
</event>
<event>
 6    1  0.9562506E-007  0.2023611E+04  0.7818608E-02  0.8595660E-01
          1   -1    0    0  501    0  0.00000000000E+00  0.00000000000E+00  0.12409870343E+04  0.12409870343E+04  0.00000000000E+00 0. -1.
         -1   -1    0    0    0  501 -0.00000000000E+00 -0.00000000000E+00 -0.82494875741E+03  0.82494875741E+03  0.00000000000E+00 0.  1.
         23    2    1    2    0    0 -0.33805094488E+03 -0.27478581040E+02  0.11794433354E+04  0.12305791031E+04  0.90580537526E+02 0.  0.
         13    1    3    3    0    0 -0.13987746865E+03  0.26966544070E+02  0.56476427154E+03  0.58245307377E+03  0.00000000000E+00 0.  1.
        -13    1    3    3    0    0 -0.19817347622E+03 -0.54445125110E+02  0.61467906390E+03  0.64812602935E+03  0.00000000000E+00 0. -1.
         22    1    1    2    0    0  0.33805094488E+03  0.27478581040E+02 -0.76340505855E+03  0.83535668859E+03  0.00000000000E+00 0.  1.
<mgrwt>
<rscale>  0 0.20236113E+04</rscale>
<asrwt>0</asrwt>
<pdfrwt beam="1">  1        1 0.19092108E+00 0.20236113E+04</pdfrwt>
<pdfrwt beam="2">  1       -1 0.12691519E+00 0.20236113E+04</pdfrwt>
<totfact> 0.49759038E+00</totfact>
</mgrwt>
</event>
<event>
 6    1  0.9562506E-007  0.5998933E+03  0.7818608E-02  0.9905627E-01
          1   -1    0    0  501    0  0.00000000000E+00  0.00000000000E+00  0.65537529758E+03  0.65537529758E+03  0.00000000000E+00 0. -1.
         -1   -1    0    0    0  501 -0.00000000000E+00 -0.00000000000E+00 -0.13727707183E+03  0.13727707183E+03  0.00000000000E+00 0.  1.
         23    2    1    2    0    0 -0.16044783552E+03 -0.10581320825E+03  0.55715706083E+03  0.59652604389E+03  0.92083590542E+02 0.  0.
         13    1    3    3    0    0  0.19178263666E+01 -0.33210534177E+02  0.12124010149E+03  0.12572103979E+03  0.00000000000E+00 0. -1.
        -13    1    3    3    0    0 -0.16236566188E+03 -0.72602674076E+02  0.43591695935E+03  0.47080500410E+03  0.00000000000E+00 0.  1.
         22    1    1    2    0    0  0.16044783552E+03  0.10581320825E+03 -0.39058835087E+02  0.19612632552E+03  0.00000000000E+00 0.  1.
<mgrwt>
<rscale>  0 0.59989333E+03</rscale>
<asrwt>0</asrwt>
<pdfrwt beam="1">  1        1 0.10082697E+00 0.59989333E+03</pdfrwt>
<pdfrwt beam="2">  1       -1 0.21119550E-01 0.59989333E+03</pdfrwt>
<totfact> 0.56702091E+02</totfact>
</mgrwt>
</event>
<event>
 6    1  0.9562506E-007  0.1636432E+04  0.7818608E-02  0.8798474E-01
         -2   -1    0    0    0  501 -0.00000000000E+00  0.00000000000E+00  0.11636247777E+04  0.11636247777E+04  0.00000000000E+00 0.  1.
          2   -1    0    0  501    0  0.00000000000E+00 -0.00000000000E+00 -0.57533763687E+03  0.57533763687E+03  0.00000000000E+00 0. -1.
         23    2    1    2    0    0 -0.52077818465E+03 -0.50739443863E+03  0.68800630231E+03  0.10050666828E+04  0.90262566887E+02 0.  0.
         13    1    3    3    0    0 -0.47020774372E+02 -0.88611352416E+02  0.97801420548E+02  0.14010011728E+03  0.00000000000E+00 0. -1.
        -13    1    3    3    0    0 -0.47375741027E+03 -0.41878308622E+03  0.59020488176E+03  0.86496656556E+03  0.00000000000E+00 0.  1.
         22    1    1    2    0    0  0.52077818465E+03  0.50739443863E+03 -0.99719161435E+02  0.73389573177E+03  0.00000000000E+00 0.  1.
<mgrwt>
<rscale>  0 0.16364316E+04</rscale>
<asrwt>0</asrwt>
<pdfrwt beam="1">  1        2 0.88513482E-01 0.16364316E+04</pdfrwt>
<pdfrwt beam="2">  1       -2 0.17901920E+00 0.16364316E+04</pdfrwt>
<totfact> 0.91800100E+00</totfact>
</mgrwt>
</event>
<event>
 6    1  0.9562506E-007  0.1609607E+04  0.7818608E-02  0.8814668E-01
         -2   -1    0    0    0  501 -0.00000000000E+00  0.00000000000E+00  0.12327710401E+03  0.12327710401E+03  0.00000000000E+00 0.  1.
          2   -1    0    0  501    0  0.00000000000E+00 -0.00000000000E+00 -0.52540888716E+04  0.52540888716E+04  0.00000000000E+00 0. -1.
         23    2    1    2    0    0  0.73626552760E+03 -0.31639938954E+03 -0.24505809546E+04  0.25798969925E+04  0.91246785276E+02 0.  0.
         13    1    3    3    0    0  0.35763690112E+03 -0.19937667088E+03 -0.13023869060E+04  0.13652350944E+04  0.00000000000E+00 0. -1.
        -13    1    3    3    0    0  0.37862862647E+03 -0.11702271866E+03 -0.11481940486E+04  0.12146618981E+04  0.00000000000E+00 0.  1.
         22    1    1    2    0    0 -0.73626552760E+03  0.31639938954E+03 -0.26802308130E+04  0.27974689831E+04  0.00000000000E+00 0.  1.
<mgrwt>
<rscale>  0 0.16096072E+04</rscale>
<asrwt>0</asrwt>
<pdfrwt beam="1">  1        2 0.80832164E+00 0.16096072E+04</pdfrwt>
<pdfrwt beam="2">  1       -2 0.18965702E-01 0.16096072E+04</pdfrwt>
<totfact> 0.36394209E-01</totfact>
</mgrwt>
</event>
<event>
 6    1  0.9562506E-007  0.2998507E+04  0.7818608E-02  0.8244157E-01
         -2   -1    0    0    0  501 -0.00000000000E+00  0.00000000000E+00  0.26772103532E+04  0.26772103532E+04  0.00000000000E+00 0.  1.
          2   -1    0    0  501    0  0.00000000000E+00 -0.00000000000E+00 -0.83959071506E+03  0.83959071506E+03  0.00000000000E+00 0. -1.
         23    2    1    2    0    0 -0.52127972751E+03  0.11012525318E+04 -0.10213991073E+03  0.12261337418E+04  0.92096136159E+02 0.  0.
         13    1    3    3    0    0 -0.33952996725E+03  0.79649322189E+03 -0.96984540237E+02  0.87125659379E+03  0.00000000000E+00 0. -1.
        -13    1    3    3    0    0 -0.18174976026E+03  0.30475930991E+03 -0.51553704888E+01  0.35487714800E+03  0.00000000000E+00 0.  1.
         22    1    1    2    0    0  0.52127972751E+03 -0.11012525318E+04  0.19397595488E+04  0.22906673264E+04  0.00000000000E+00 0.  1.
<mgrwt>
<rscale>  0 0.29985069E+04</rscale>
<asrwt>0</asrwt>
<pdfrwt beam="1">  1        2 0.12916780E+00 0.29985069E+04</pdfrwt>
<pdfrwt beam="2">  1       -2 0.41187851E+00 0.29985069E+04</pdfrwt>
<totfact> 0.17125323E-01</totfact>
</mgrwt>
</event>
<event>
 6    1  0.9562506E-007  0.1062973E+04  0.7818608E-02  0.9242051E-01
          1   -1    0    0  501    0  0.00000000000E+00  0.00000000000E+00  0.11686334876E+04  0.11686334876E+04  0.00000000000E+00 0. -1.
         -1   -1    0    0    0  501 -0.00000000000E+00 -0.00000000000E+00 -0.24171655376E+03  0.24171655376E+03  0.00000000000E+00 0.  1.
         23    2    1    2    0    0  0.11971375191E+03  0.52026124137E+02  0.11449719613E+04  0.11562120965E+04  0.93954882465E+02 0.  0.
         11    1    3    3    0    0  0.91483944676E+02 -0.69272102512E+01  0.78614327607E+03  0.79147871031E+03  0.00000000000E+00 0. -1.
        -11    1    3    3    0    0  0.28229807231E+02  0.58953334388E+02  0.35882868525E+03  0.36473338621E+03  0.00000000000E+00 0.  1.
         22    1    1    2    0    0 -0.11971375191E+03 -0.52026124137E+02 -0.21805502749E+03  0.25413794483E+03  0.00000000000E+00 0.  1.
<mgrwt>
<rscale>  0 0.10629733E+04</rscale>
<asrwt>0</asrwt>
<pdfrwt beam="1">  1        1 0.17978976E+00 0.10629733E+04</pdfrwt>
<pdfrwt beam="2">  1       -1 0.37187163E-01 0.10629733E+04</pdfrwt>
<totfact> 0.78228310E+01</totfact>
</mgrwt>
</event>
<event>
 6    1  0.9562506E-007  0.3491580E+04  0.7818608E-02  0.8115788E-01
          2   -1    0    0  501    0  0.00000000000E+00  0.00000000000E+00  0.20543689680E+04  0.20543689680E+04  0.00000000000E+00 0. -1.
         -2   -1    0    0    0  501 -0.00000000000E+00 -0.00000000000E+00 -0.14835611015E+04  0.14835611015E+04  0.00000000000E+00 0.  1.
         23    2    1    2    0    0 -0.31705925098E+03  0.11644259924E+04  0.15622217452E+04  0.19760991122E+04  0.89534684732E+02 0.  0.
         13    1    3    3    0    0 -0.19089390394E+03  0.75173819339E+03  0.93600999479E+03  0.12155926556E+04  0.00000000000E+00 0.  1.
        -13    1    3    3    0    0 -0.12616534704E+03  0.41268779897E+03  0.62621175041E+03  0.76050645662E+03  0.00000000000E+00 0. -1.
         22    1    1    2    0    0  0.31705925098E+03 -0.11644259924E+04 -0.99141387875E+03  0.15618309573E+04  0.00000000000E+00 0.  1.
<mgrwt>
<rscale>  0 0.34915795E+04</rscale>
<asrwt>0</asrwt>
<pdfrwt beam="1">  1        2 0.31605677E+00 0.34915795E+04</pdfrwt>
<pdfrwt beam="2">  1       -2 0.22824017E+00 0.34915795E+04</pdfrwt>
<totfact> 0.44936108E-01</totfact>
</mgrwt>
</event>
<event>
 6    1  0.9562506E-007  0.1272379E+04  0.7818608E-02  0.9051761E-01
          2   -1    0    0  501    0  0.00000000000E+00  0.00000000000E+00  0.20730666144E+04  0.20730666144E+04  0.00000000000E+00 0. -1.
         -2   -1    0    0    0  501 -0.00000000000E+00 -0.00000000000E+00 -0.19523577636E+03  0.19523577636E+03  0.00000000000E+00 0.  1.
         23    2    1    2    0    0 -0.61129266188E+02  0.84030630328E+02  0.20567405629E+04  0.20614047744E+04  0.91705871095E+02 0.  0.
         13    1    3    3    0    0 -0.65665311036E+02  0.41837976471E+02  0.76170278873E+03  0.76567191911E+03  0.00000000000E+00 0. -1.
        -13    1    3    3    0    0  0.45360448477E+01  0.42192653857E+02  0.12950377741E+04  0.12957328552E+04  0.00000000000E+00 0.  1.
         22    1    1    2    0    0  0.61129266188E+02 -0.84030630328E+02 -0.17890972485E+03  0.20689761638E+03  0.00000000000E+00 0.  1.
<mgrwt>
<rscale>  0 0.12723785E+04</rscale>
<asrwt>0</asrwt>
<pdfrwt beam="1">  1        2 0.31893331E+00 0.12723785E+04</pdfrwt>
<pdfrwt beam="2">  1       -2 0.30036275E-01 0.12723785E+04</pdfrwt>
<totfact> 0.61205399E+01</totfact>
</mgrwt>
</event>
<event>
 6    1  0.9562506E-007  0.3094851E+04  0.7818608E-02  0.8217152E-01
          2   -1    0    0  501    0  0.00000000000E+00  0.00000000000E+00  0.27431129830E+04  0.27431129830E+04  0.00000000000E+00 0. -1.
         -2   -1    0    0    0  501 -0.00000000000E+00 -0.00000000000E+00 -0.87292280405E+03  0.87292280405E+03  0.00000000000E+00 0.  1.
         23    2    1    2    0    0  0.10522681460E+04  0.70589645227E+03 -0.98750914438E+02  0.12746073594E+04  0.96509715356E+02 0.  0.
         13    1    3    3    0    0  0.68474121190E+03  0.46619688739E+03 -0.18755142873E+02  0.82859026090E+03  0.00000000000E+00 0. -1.
        -13    1    3    3    0    0  0.36752693412E+03  0.23969956488E+03 -0.79995771565E+02  0.44601709852E+03  0.00000000000E+00 0.  1.
         22    1    1    2    0    0 -0.10522681460E+04 -0.70589645227E+03  0.19689410934E+04  0.23414284276E+04  0.00000000000E+00 0. -1.
<mgrwt>
<rscale>  0 0.30948511E+04</rscale>
<asrwt>0</asrwt>
<pdfrwt beam="1">  1        2 0.42201738E+00 0.30948511E+04</pdfrwt>
<pdfrwt beam="2">  1       -2 0.13429582E+00 0.30948511E+04</pdfrwt>
<totfact> 0.84946950E-01</totfact>
</mgrwt>
</event>
<event>
 6    1  0.9562506E-007  0.3890594E+04  0.7818608E-02  0.8026988E-01
         -2   -1    0    0    0  501 -0.00000000000E+00  0.00000000000E+00  0.19737736026E+04  0.19737736026E+04  0.00000000000E+00 0.  1.
          2   -1    0    0  501    0  0.00000000000E+00 -0.00000000000E+00 -0.19172310948E+04  0.19172310948E+04  0.00000000000E+00 0. -1.
         23    2    1    2    0    0  0.12721971817E+04  0.10381830804E+04  0.10693927992E+04  0.19617106580E+04  0.91640433454E+02 0.  0.
         13    1    3    3    0    0  0.52683986713E+03  0.48148016602E+03  0.49010122335E+03  0.86578438713E+03  0.00000000000E+00 0.  1.
        -13    1    3    3    0    0  0.74535731455E+03  0.55670291436E+03  0.57929157590E+03  0.10959262708E+04  0.00000000000E+00 0. -1.
         22    1    1    2    0    0 -0.12721971817E+04 -0.10381830804E+04 -0.10128502915E+04  0.19292940394E+04  0.00000000000E+00 0. -1.
<mgrwt>
<rscale>  0 0.38905938E+04</rscale>
<asrwt>0</asrwt>
<pdfrwt beam="1">  1        2 0.29495863E+00 0.38905938E+04</pdfrwt>
<pdfrwt beam="2">  1       -2 0.30365748E+00 0.38905938E+04</pdfrwt>
<totfact> 0.17844651E-01</totfact>
</mgrwt>
</event>
<event>
 6    1  0.9562506E-007  0.2974751E+04  0.7818608E-02  0.8250978E-01
          1   -1    0    0  501    0  0.00000000000E+00  0.00000000000E+00  0.28378631810E+04  0.28378631810E+04  0.00000000000E+00 0. -1.
         -1   -1    0    0    0  501 -0.00000000000E+00 -0.00000000000E+00 -0.77956022995E+03  0.77956022995E+03  0.00000000000E+00 0.  1.
         23    2    1    2    0    0 -0.38523499535E+03  0.12926291507E+04  0.27205833947E+03  0.13791280919E+04  0.93179563520E+02 0.  0.
         11    1    3    3    0    0 -0.24636634654E+03  0.80450272967E+03  0.21514014509E+03  0.86845051717E+03  0.00000000000E+00 0.  1.
        -11    1    3    3    0    0 -0.13886864881E+03  0.48812642099E+03  0.56918194383E+02  0.51067757474E+03  0.00000000000E+00 0. -1.
         22    1    1    2    0    0  0.38523499535E+03 -0.12926291507E+04  0.17862446115E+04  0.22382953190E+04  0.00000000000E+00 0.  1.
<mgrwt>
<rscale>  0 0.29747506E+04</rscale>
<asrwt>0</asrwt>
<pdfrwt beam="1">  1        1 0.43659433E+00 0.29747506E+04</pdfrwt>
<pdfrwt beam="2">  1       -1 0.11993235E+00 0.29747506E+04</pdfrwt>
<totfact> 0.41375433E-01</totfact>
</mgrwt>
</event>
<event>
 6    1  0.9562506E-007  0.9948795E+03  0.7818608E-02  0.9314179E-01
          3   -1    0    0  501    0  0.00000000000E+00  0.00000000000E+00  0.39641176363E+03  0.39641176363E+03  0.00000000000E+00 0. -1.
         -3   -1    0    0    0  501 -0.00000000000E+00 -0.00000000000E+00 -0.62421529253E+03  0.62421529253E+03  0.00000000000E+00 0.  1.
         23    2    1    2    0    0  0.28669506794E+03  0.12178913666E+03  0.27757563591E+03  0.42696489971E+03  0.90687023023E+02 0.  0.
         13    1    3    3    0    0  0.99394027741E+02  0.55300591228E+02  0.48403634383E+02  0.12361326774E+03  0.00000000000E+00 0. -1.
        -13    1    3    3    0    0  0.18730104020E+03  0.66488545431E+02  0.22917200153E+03  0.30335163196E+03  0.00000000000E+00 0.  1.
         22    1    1    2    0    0 -0.28669506794E+03 -0.12178913666E+03 -0.50537916481E+03  0.59366215646E+03  0.00000000000E+00 0.  1.
<mgrwt>
<rscale>  0 0.99487946E+03</rscale>
<asrwt>0</asrwt>
<pdfrwt beam="1">  1        3 0.60986425E-01 0.99487946E+03</pdfrwt>
<pdfrwt beam="2">  1       -3 0.96033122E-01 0.99487946E+03</pdfrwt>
<totfact> 0.65921554E+00</totfact>
</mgrwt>
</event>
<event>
 6    1  0.9562506E-007  0.2280423E+04  0.7818608E-02  0.8485680E-01
         -1   -1    0    0    0  501 -0.00000000000E+00  0.00000000000E+00  0.40972263147E+03  0.40972263147E+03  0.00000000000E+00 0.  1.
          1   -1    0    0  501    0  0.00000000000E+00 -0.00000000000E+00 -0.31730791079E+04  0.31730791079E+04  0.00000000000E+00 0. -1.
         23    2    1    2    0    0  0.33503196854E+03 -0.87380029174E+03 -0.36552043518E+03  0.10088182409E+04  0.91299971496E+02 0.  0.
         11    1    3    3    0    0  0.77056414265E+02 -0.13302405503E+03 -0.35290939629E+02  0.15772932707E+03  0.00000000000E+00 0. -1.
        -11    1    3    3    0    0  0.25797555427E+03 -0.74077623671E+03 -0.33022949555E+03  0.85108891381E+03  0.00000000000E+00 0.  1.
         22    1    1    2    0    0 -0.33503196854E+03  0.87380029174E+03 -0.23978360412E+04  0.25739834985E+04  0.00000000000E+00 0. -1.
<mgrwt>
<rscale>  0 0.22804231E+04</rscale>
<asrwt>0</asrwt>
<pdfrwt beam="1">  1        1 0.48816599E+00 0.22804231E+04</pdfrwt>
<pdfrwt beam="2">  1       -1 0.63034254E-01 0.22804231E+04</pdfrwt>
<totfact> 0.10302378E+00</totfact>
</mgrwt>
</event>
<event>
 6    1  0.9562506E-007  0.1203870E+04  0.7818608E-02  0.9109476E-01
          2   -1    0    0  501    0  0.00000000000E+00  0.00000000000E+00  0.22256442453E+04  0.22256442453E+04  0.00000000000E+00 0. -1.
         -2   -1    0    0    0  501 -0.00000000000E+00 -0.00000000000E+00 -0.16279588380E+03  0.16279588380E+03  0.00000000000E+00 0.  1.
         23    2    1    2    0    0 -0.27904685230E+03 -0.43758461674E+03  0.44557086260E+03  0.68993079706E+03  0.90131396059E+02 0.  0.
         11    1    3    3    0    0 -0.65159006983E+01 -0.59418356925E+02  0.63620111283E+02  0.87295570685E+02  0.00000000000E+00 0.  1.
        -11    1    3    3    0    0 -0.27253095160E+03 -0.37816625981E+03  0.38195075132E+03  0.60263522638E+03  0.00000000000E+00 0. -1.
         22    1    1    2    0    0  0.27904685230E+03  0.43758461674E+03  0.16172774989E+04  0.16985093321E+04  0.00000000000E+00 0. -1.
<mgrwt>
<rscale>  0 0.12038700E+04</rscale>
<asrwt>0</asrwt>
<pdfrwt beam="1">  1        2 0.34240678E+00 0.12038700E+04</pdfrwt>
<pdfrwt beam="2">  1       -2 0.25045522E-01 0.12038700E+04</pdfrwt>
<totfact> 0.70680774E+01</totfact>
</mgrwt>
</event>
<event>
 6    1  0.9562506E-007  0.1305209E+04  0.7818608E-02  0.9025445E-01
         -2   -1    0    0    0  501 -0.00000000000E+00  0.00000000000E+00  0.21087073966E+03  0.21087073966E+03  0.00000000000E+00 0.  1.
          2   -1    0    0  501    0  0.00000000000E+00 -0.00000000000E+00 -0.20196853365E+04  0.20196853365E+04  0.00000000000E+00 0. -1.
         23    2    1    2    0    0  0.21135823796E+03 -0.13973925112E+03 -0.19307573756E+04  0.19493632519E+04  0.89407389412E+02 0.  0.
         13    1    3    3    0    0  0.92122294743E+02 -0.11004270734E+02 -0.72179767120E+03  0.72773586507E+03  0.00000000000E+00 0.  1.
        -13    1    3    3    0    0  0.11923594322E+03 -0.12873498039E+03 -0.12089597044E+04  0.12216273869E+04  0.00000000000E+00 0. -1.
         22    1    1    2    0    0 -0.21135823796E+03  0.13973925112E+03  0.12194277885E+03  0.28119282418E+03  0.00000000000E+00 0.  1.
<mgrwt>
<rscale>  0 0.13052089E+04</rscale>
<asrwt>0</asrwt>
<pdfrwt beam="1">  1        2 0.31072082E+00 0.13052089E+04</pdfrwt>
<pdfrwt beam="2">  1       -2 0.32441652E-01 0.13052089E+04</pdfrwt>
<totfact> 0.56558234E+01</totfact>
</mgrwt>
</event>
<event>
 6    1  0.9562506E-007  0.7237188E+03  0.7818608E-02  0.9677508E-01
         -2   -1    0    0    0  501 -0.00000000000E+00  0.00000000000E+00  0.33376339594E+03  0.33376339594E+03  0.00000000000E+00 0.  1.
          2   -1    0    0  501    0  0.00000000000E+00 -0.00000000000E+00 -0.39232049761E+03  0.39232049761E+03  0.00000000000E+00 0. -1.
         23    2    1    2    0    0 -0.11410239968E+03  0.25231877849E+03  0.19432767128E+03  0.35107078447E+03  0.93826053350E+02 0.  0.
         11    1    3    3    0    0 -0.67837205895E+02  0.16040161179E+03  0.65214362341E+02  0.18596633196E+03  0.00000000000E+00 0. -1.
        -11    1    3    3    0    0 -0.46265193782E+02  0.91917166704E+02  0.12911330894E+03  0.16510445250E+03  0.00000000000E+00 0.  1.
         22    1    1    2    0    0  0.11410239968E+03 -0.25231877849E+03 -0.25288477295E+03  0.37501310908E+03  0.00000000000E+00 0. -1.
<mgrwt>
<rscale>  0 0.72371879E+03</rscale>
<asrwt>0</asrwt>
<pdfrwt beam="1">  1        2 0.60356999E-01 0.72371879E+03</pdfrwt>
<pdfrwt beam="2">  1       -2 0.51348215E-01 0.72371879E+03</pdfrwt>
<totfact> 0.29388492E+02</totfact>
</mgrwt>
</event>
<event>
 6    1  0.9562506E-007  0.2275724E+04  0.7818608E-02  0.8487555E-01
          2   -1    0    0  501    0  0.00000000000E+00  0.00000000000E+00  0.28787204870E+04  0.28787204870E+04  0.00000000000E+00 0. -1.
         -2   -1    0    0    0  501 -0.00000000000E+00 -0.00000000000E+00 -0.44975881758E+03  0.44975881758E+03  0.00000000000E+00 0.  1.
         23    2    1    2    0    0 -0.40408648788E+02 -0.11344189098E+04  0.11530984881E+04  0.16207422115E+04  0.92898175802E+02 0.  0.
         11    1    3    3    0    0 -0.19379819729E+02 -0.47390375581E+03  0.41731885613E+03  0.63175578736E+03  0.00000000000E+00 0.  1.
        -11    1    3    3    0    0 -0.21028829059E+02 -0.66051515395E+03  0.73577963200E+03  0.98898642413E+03  0.00000000000E+00 0. -1.
         22    1    1    2    0    0  0.40408648788E+02  0.11344189098E+04  0.12758631813E+04  0.17077370931E+04  0.00000000000E+00 0.  1.
<mgrwt>
<rscale>  0 0.22757240E+04</rscale>
<asrwt>0</asrwt>
<pdfrwt beam="1">  1        2 0.44288006E+00 0.22757240E+04</pdfrwt>
<pdfrwt beam="2">  1       -2 0.69193666E-01 0.22757240E+04</pdfrwt>
<totfact> 0.35881185E+00</totfact>
</mgrwt>
</event>
<event>
 6    1  0.9562506E-007  0.1523726E+04  0.7818608E-02  0.8868827E-01
         -1   -1    0    0    0  501 -0.00000000000E+00  0.00000000000E+00  0.38291547496E+03  0.38291547496E+03  0.00000000000E+00 0.  1.
          1   -1    0    0  501    0  0.00000000000E+00 -0.00000000000E+00 -0.15158317902E+04  0.15158317902E+04  0.00000000000E+00 0. -1.
         23    2    1    2    0    0 -0.67466636582E+03 -0.90275691711E+02 -0.14948098995E+03  0.70272492226E+03  0.90295871066E+02 0.  0.
         13    1    3    3    0    0 -0.54620428458E+03 -0.46664296523E+02 -0.14473567063E+03  0.56697891620E+03  0.00000000000E+00 0.  1.
        -13    1    3    3    0    0 -0.12846208124E+03 -0.43611395188E+02 -0.47453193226E+01  0.13574600606E+03  0.00000000000E+00 0. -1.
         22    1    1    2    0    0  0.67466636582E+03  0.90275691711E+02 -0.98343532526E+03  0.11960223429E+04  0.00000000000E+00 0. -1.
<mgrwt>
<rscale>  0 0.15237263E+04</rscale>
<asrwt>0</asrwt>
<pdfrwt beam="1">  1        1 0.23320489E+00 0.15237263E+04</pdfrwt>
<pdfrwt beam="2">  1       -1 0.58910073E-01 0.15237263E+04</pdfrwt>
<totfact> 0.17984636E+01</totfact>
</mgrwt>
</event>
<event>
 6    1  0.9562506E-007  0.6304378E+04  0.7818608E-02  0.7653767E-01
         -2   -1    0    0    0  501 -0.00000000000E+00  0.00000000000E+00  0.32267938172E+04  0.32267938172E+04  0.00000000000E+00 0.  1.
          2   -1    0    0  501    0  0.00000000000E+00 -0.00000000000E+00 -0.30793089854E+04  0.30793089854E+04  0.00000000000E+00 0. -1.
         23    2    1    2    0    0  0.14064302842E+04  0.16747969014E+03 -0.27422806467E+04  0.30878983169E+04  0.94431348396E+02 0.  0.
         13    1    3    3    0    0  0.51858781519E+03  0.81637499343E+02 -0.92783985655E+03  0.10660604123E+04  0.00000000000E+00 0. -1.
        -13    1    3    3    0    0  0.88784246902E+03  0.85842190801E+02 -0.18144407901E+04  0.20218379046E+04  0.00000000000E+00 0.  1.
         22    1    1    2    0    0 -0.14064302842E+04 -0.16747969014E+03  0.28897654785E+04  0.32182044857E+04  0.00000000000E+00 0.  1.
<mgrwt>
<rscale>  0 0.63043779E+04</rscale>
<asrwt>0</asrwt>
<pdfrwt beam="1">  1        2 0.47373984E+00 0.63043779E+04</pdfrwt>
<pdfrwt beam="2">  1       -2 0.49642982E+00 0.63043779E+04</pdfrwt>
<totfact> 0.17912970E-03</totfact>
</mgrwt>
</event>
<event>
 6    1  0.9562506E-007  0.1464886E+04  0.7818608E-02  0.8908145E-01
         -2   -1    0    0    0  501 -0.00000000000E+00  0.00000000000E+00  0.49333079495E+03  0.49333079495E+03  0.00000000000E+00 0.  1.
          2   -1    0    0  501    0  0.00000000000E+00 -0.00000000000E+00 -0.10874502052E+04  0.10874502052E+04  0.00000000000E+00 0. -1.
         23    2    1    2    0    0  0.29099930688E+03  0.41077838566E+03  0.26838213107E+03  0.58211769978E+03  0.11581264778E+03 0.  0.
         11    1    3    3    0    0  0.24532035532E+03  0.34196242862E+03  0.17060070738E+03  0.45412000691E+03  0.00000000000E+00 0.  1.
        -11    1    3    3    0    0  0.45678951563E+02  0.68815957041E+02  0.97781423696E+02  0.12799769287E+03  0.00000000000E+00 0. -1.
         22    1    1    2    0    0 -0.29099930688E+03 -0.41077838566E+03 -0.86250154133E+03  0.99866330038E+03  0.00000000000E+00 0. -1.
<mgrwt>
<rscale>  0 0.14648859E+04</rscale>
<asrwt>0</asrwt>
<pdfrwt beam="1">  1        2 0.16730003E+00 0.14648859E+04</pdfrwt>
<pdfrwt beam="2">  1       -2 0.75897047E-01 0.14648859E+04</pdfrwt>
<totfact> 0.33420326E+01</totfact>
</mgrwt>
</event>
<event>
 6    1  0.9562506E-007  0.3154524E+04  0.7818608E-02  0.8200932E-01
          2   -1    0    0  501    0  0.00000000000E+00  0.00000000000E+00  0.30942114303E+04  0.30942114303E+04  0.00000000000E+00 0. -1.
         -2   -1    0    0    0  501 -0.00000000000E+00 -0.00000000000E+00 -0.80400309673E+03  0.80400309673E+03  0.00000000000E+00 0.  1.
         23    2    1    2    0    0  0.10742317390E+04 -0.11463777395E+04  0.99217830721E+03  0.18603142105E+04  0.90528547388E+02 0.  0.
         13    1    3    3    0    0  0.27132846956E+03 -0.29725483420E+03  0.20863156881E+03  0.45332847512E+03  0.00000000000E+00 0.  1.
        -13    1    3    3    0    0  0.80290326947E+03 -0.84912290525E+03  0.78354673840E+03  0.14069857354E+04  0.00000000000E+00 0. -1.
         22    1    1    2    0    0 -0.10742317390E+04  0.11463777395E+04  0.12980300263E+04  0.20379003165E+04  0.00000000000E+00 0.  1.
<mgrwt>
<rscale>  0 0.31545241E+04</rscale>
<asrwt>0</asrwt>
<pdfrwt beam="1">  1        2 0.47603252E+00 0.31545241E+04</pdfrwt>
<pdfrwt beam="2">  1       -2 0.12369279E+00 0.31545241E+04</pdfrwt>
<totfact> 0.63102542E-01</totfact>
</mgrwt>
</event>
<event>
 6    1  0.9562506E-007  0.1785336E+04  0.7818608E-02  0.8714137E-01
         -1   -1    0    0    0  501 -0.00000000000E+00  0.00000000000E+00  0.57735245234E+03  0.57735245234E+03  0.00000000000E+00 0.  1.
          1   -1    0    0  501    0  0.00000000000E+00 -0.00000000000E+00 -0.13801900572E+04  0.13801900572E+04  0.00000000000E+00 0. -1.
         23    2    1    2    0    0  0.19401310254E+03 -0.25360407868E+03  0.50876941994E+03  0.60762803070E+03  0.91702717185E+02 0.  0.
         11    1    3    3    0    0  0.71044524021E+02 -0.15779145295E+03  0.22488579719E+03  0.28375885677E+03  0.00000000000E+00 0.  1.
        -11    1    3    3    0    0  0.12296857852E+03 -0.95812625730E+02  0.28388362276E+03  0.32386917393E+03  0.00000000000E+00 0. -1.
         22    1    1    2    0    0 -0.19401310254E+03  0.25360407868E+03 -0.13116070248E+04  0.13499144788E+04  0.00000000000E+00 0. -1.
<mgrwt>
<rscale>  0 0.17853360E+04</rscale>
<asrwt>0</asrwt>
<pdfrwt beam="1">  1        1 0.21233693E+00 0.17853360E+04</pdfrwt>
<pdfrwt beam="2">  1       -1 0.88823455E-01 0.17853360E+04</pdfrwt>
<totfact> 0.93210369E+00</totfact>
</mgrwt>
</event>
<event>
 6    1  0.9562506E-007  0.5593510E+04  0.7818608E-02  0.7742952E-01
         -1   -1    0    0    0  501 -0.00000000000E+00  0.00000000000E+00  0.24834609039E+04  0.24834609039E+04  0.00000000000E+00 0.  1.
          1   -1    0    0  501    0  0.00000000000E+00 -0.00000000000E+00 -0.31495720934E+04  0.31495720934E+04  0.00000000000E+00 0. -1.
         23    2    1    2    0    0 -0.56124090172E+03  0.27182557970E+04  0.65907594604E+01  0.27770858969E+04  0.90866457879E+02 0.  0.
         11    1    3    3    0    0 -0.44175226152E+03  0.22036849446E+04 -0.27902122220E+02  0.22476990288E+04  0.00000000000E+00 0.  1.
        -11    1    3    3    0    0 -0.11948864020E+03  0.51457085245E+03  0.34492881680E+02  0.52938686819E+03  0.00000000000E+00 0. -1.
         22    1    1    2    0    0  0.56124090172E+03 -0.27182557970E+04 -0.67270194899E+03  0.28559471003E+04  0.00000000000E+00 0.  1.
<mgrwt>
<rscale>  0 0.55935102E+04</rscale>
<asrwt>0</asrwt>
<pdfrwt beam="1">  1        1 0.48454955E+00 0.55935102E+04</pdfrwt>
<pdfrwt beam="2">  1       -1 0.38207091E+00 0.55935102E+04</pdfrwt>
<totfact> 0.30271965E-03</totfact>
</mgrwt>
</event>
<event>
 6    1  0.9562506E-007  0.1565843E+04  0.7818608E-02  0.8841811E-01
         -1   -1    0    0    0  501 -0.00000000000E+00  0.00000000000E+00  0.23382273432E+03  0.23382273432E+03  0.00000000000E+00 0.  1.
          1   -1    0    0  501    0  0.00000000000E+00 -0.00000000000E+00 -0.26215001639E+04  0.26215001639E+04  0.00000000000E+00 0. -1.
         23    2    1    2    0    0  0.15466682937E+03  0.68186557417E+03 -0.56618896928E+03  0.90425070573E+03  0.90757371726E+02 0.  0.
         13    1    3    3    0    0  0.11921901805E+03  0.38190207615E+03 -0.28155643066E+03  0.48922018936E+03  0.00000000000E+00 0. -1.
        -13    1    3    3    0    0  0.35447811320E+02  0.29996349803E+03 -0.28463253862E+03  0.41503051637E+03  0.00000000000E+00 0.  1.
         22    1    1    2    0    0 -0.15466682937E+03 -0.68186557417E+03 -0.18214884603E+04  0.19510721925E+04  0.00000000000E+00 0. -1.
<mgrwt>
<rscale>  0 0.15658433E+04</rscale>
<asrwt>0</asrwt>
<pdfrwt beam="1">  1        1 0.40330771E+00 0.15658433E+04</pdfrwt>
<pdfrwt beam="2">  1       -1 0.35972729E-01 0.15658433E+04</pdfrwt>
<totfact> 0.79436673E+00</totfact>
</mgrwt>
</event>
<event>
 6    1  0.9562506E-007  0.3706047E+04  0.7818608E-02  0.8066623E-01
          1   -1    0    0  501    0  0.00000000000E+00  0.00000000000E+00  0.25816489412E+04  0.25816489412E+04  0.00000000000E+00 0. -1.
         -1   -1    0    0    0  501 -0.00000000000E+00 -0.00000000000E+00 -0.13300400653E+04  0.13300400653E+04  0.00000000000E+00 0.  1.
         23    2    1    2    0    0 -0.14043117120E+04 -0.34441106817E+03 -0.59501577489E+03  0.15663248622E+04  0.92840903186E+02 0.  0.
         11    1    3    3    0    0 -0.80054452983E+03 -0.19773355619E+03 -0.38882542633E+03  0.91167719925E+03  0.00000000000E+00 0.  1.
        -11    1    3    3    0    0 -0.60376718213E+03 -0.14667751198E+03 -0.20619034856E+03  0.65464766293E+03  0.00000000000E+00 0. -1.
         22    1    1    2    0    0  0.14043117120E+04  0.34441106817E+03  0.18466246508E+04  0.23453641443E+04  0.00000000000E+00 0.  1.
<mgrwt>
<rscale>  0 0.37060472E+04</rscale>
<asrwt>0</asrwt>
<pdfrwt beam="1">  1        1 0.39717676E+00 0.37060472E+04</pdfrwt>
<pdfrwt beam="2">  1       -1 0.20462155E+00 0.37060472E+04</pdfrwt>
<totfact> 0.13329875E-01</totfact>
</mgrwt>
</event>
<event>
 6    1  0.9562506E-007  0.6359247E+03  0.7818608E-02  0.9833555E-01
          1   -1    0    0  501    0  0.00000000000E+00  0.00000000000E+00  0.91959561907E+03  0.91959561907E+03  0.00000000000E+00 0. -1.
         -1   -1    0    0    0  501 -0.00000000000E+00 -0.00000000000E+00 -0.10993970410E+03  0.10993970410E+03  0.00000000000E+00 0.  1.
         23    2    1    2    0    0 -0.99519850235E+02  0.25149547181E+03  0.16206074383E+03  0.32772788618E+03  0.89373988136E+02 0.  0.
         11    1    3    3    0    0 -0.71036110198E+02  0.65998102654E+02  0.49152483411E+02  0.10870991276E+03  0.00000000000E+00 0. -1.
        -11    1    3    3    0    0 -0.28483740036E+02  0.18549736916E+03  0.11290826042E+03  0.21901797342E+03  0.00000000000E+00 0.  1.
         22    1    1    2    0    0  0.99519850235E+02 -0.25149547181E+03  0.64759517114E+03  0.70180743699E+03  0.00000000000E+00 0. -1.
<mgrwt>
<rscale>  0 0.63592474E+03</rscale>
<asrwt>0</asrwt>
<pdfrwt beam="1">  1        1 0.14147624E+00 0.63592474E+03</pdfrwt>
<pdfrwt beam="2">  1       -1 0.16913801E-01 0.63592474E+03</pdfrwt>
<totfact> 0.47988347E+02</totfact>
</mgrwt>
</event>
<event>
 6    1  0.9562506E-007  0.2894528E+04  0.7818608E-02  0.8274507E-01
         -2   -1    0    0    0  501 -0.00000000000E+00  0.00000000000E+00  0.59545305973E+03  0.59545305973E+03  0.00000000000E+00 0.  1.
          2   -1    0    0  501    0  0.00000000000E+00 -0.00000000000E+00 -0.35176120185E+04  0.35176120185E+04  0.00000000000E+00 0. -1.
         23    2    1    2    0    0  0.12731577328E+03 -0.10628681966E+04 -0.28433888375E+04  0.30397045417E+04  0.95107884537E+02 0.  0.
         11    1    3    3    0    0  0.13365362232E+03 -0.80556325214E+03 -0.22086027351E+04  0.23547232291E+04  0.00000000000E+00 0. -1.
        -11    1    3    3    0    0 -0.63378490433E+01 -0.25730494445E+03 -0.63478610242E+03  0.68498131259E+03  0.00000000000E+00 0.  1.
         22    1    1    2    0    0 -0.12731577328E+03  0.10628681966E+04 -0.78770121235E+02  0.10733605366E+04  0.00000000000E+00 0.  1.
<mgrwt>
<rscale>  0 0.28945278E+04</rscale>
<asrwt>0</asrwt>
<pdfrwt beam="1">  1        2 0.54117106E+00 0.28945278E+04</pdfrwt>
<pdfrwt beam="2">  1       -2 0.91608166E-01 0.28945278E+04</pdfrwt>
<totfact> 0.69173128E-01</totfact>
</mgrwt>
</event>
<event>
 6    1  0.9562506E-007  0.1737867E+04  0.7818608E-02  0.8740057E-01
         -2   -1    0    0    0  501 -0.00000000000E+00  0.00000000000E+00  0.54795803436E+03  0.54795803436E+03  0.00000000000E+00 0.  1.
          2   -1    0    0  501    0  0.00000000000E+00 -0.00000000000E+00 -0.13779261910E+04  0.13779261910E+04  0.00000000000E+00 0. -1.
         23    2    1    2    0    0 -0.24749308470E+03  0.21777497361E+03  0.47194787980E+03  0.58287859171E+03  0.91290116211E+02 0.  0.
         13    1    3    3    0    0 -0.34501996952E+02  0.14454936416E+02  0.11056770028E+03  0.11672424481E+03  0.00000000000E+00 0.  1.
        -13    1    3    3    0    0 -0.21299108774E+03  0.20332003719E+03  0.36138017952E+03  0.46615434690E+03  0.00000000000E+00 0. -1.
         22    1    1    2    0    0  0.24749308470E+03 -0.21777497361E+03 -0.13019160364E+04  0.13430056337E+04  0.00000000000E+00 0. -1.
<mgrwt>
<rscale>  0 0.17378673E+04</rscale>
<asrwt>0</asrwt>
<pdfrwt beam="1">  1        2 0.21198865E+00 0.17378673E+04</pdfrwt>
<pdfrwt beam="2">  1       -2 0.84301236E-01 0.17378673E+04</pdfrwt>
<totfact> 0.17355934E+01</totfact>
</mgrwt>
</event>
<event>
 6    1  0.9562506E-007  0.2389100E+04  0.7818608E-02  0.8443596E-01
         -1   -1    0    0    0  501 -0.00000000000E+00  0.00000000000E+00  0.12694406827E+04  0.12694406827E+04  0.00000000000E+00 0.  1.
          1   -1    0    0  501    0  0.00000000000E+00 -0.00000000000E+00 -0.11240772323E+04  0.11240772323E+04  0.00000000000E+00 0. -1.
         23    2    1    2    0    0 -0.99364645154E+01  0.97153850769E+03 -0.62063907408E+03  0.11562848436E+04  0.88407997397E+02 0.  0.
         13    1    3    3    0    0 -0.19792438163E+02  0.69892906249E+03 -0.49012421605E+03  0.85388249904E+03  0.00000000000E+00 0. -1.
        -13    1    3    3    0    0  0.98559736476E+01  0.27260944520E+03 -0.13051485803E+03  0.30240234456E+03  0.00000000000E+00 0.  1.
         22    1    1    2    0    0  0.99364645154E+01 -0.97153850769E+03  0.76600252447E+03  0.12372330713E+04  0.00000000000E+00 0.  1.
<mgrwt>
<rscale>  0 0.23890997E+04</rscale>
<asrwt>0</asrwt>
<pdfrwt beam="1">  1        1 0.17293496E+00 0.23890997E+04</pdfrwt>
<pdfrwt beam="2">  1       -1 0.19529857E+00 0.23890997E+04</pdfrwt>
<totfact> 0.17698062E+00</totfact>
</mgrwt>
</event>
<event>
 6    1  0.9562506E-007  0.3197479E+04  0.7818608E-02  0.8189483E-01
          2   -1    0    0  501    0  0.00000000000E+00  0.00000000000E+00  0.20198041323E+04  0.20198041323E+04  0.00000000000E+00 0. -1.
         -2   -1    0    0    0  501 -0.00000000000E+00 -0.00000000000E+00 -0.12654535866E+04  0.12654535866E+04  0.00000000000E+00 0.  1.
         23    2    1    2    0    0  0.87960865036E+03 -0.71339856077E+03 -0.77992025747E+03  0.13782611846E+04  0.93163300375E+02 0.  0.
         13    1    3    3    0    0  0.75455650405E+03 -0.64894113724E+03 -0.69588446194E+03  0.12143868007E+04  0.00000000000E+00 0.  1.
        -13    1    3    3    0    0  0.12505214631E+03 -0.64457423534E+02 -0.84035795532E+02  0.16387438383E+03  0.00000000000E+00 0. -1.
         22    1    1    2    0    0 -0.87960865036E+03  0.71339856077E+03  0.15342708033E+04  0.19069965344E+04  0.00000000000E+00 0. -1.
<mgrwt>
<rscale>  0 0.31974792E+04</rscale>
<asrwt>0</asrwt>
<pdfrwt beam="1">  1        2 0.31073910E+00 0.31974792E+04</pdfrwt>
<pdfrwt beam="2">  1       -2 0.19468517E+00 0.31974792E+04</pdfrwt>
<totfact> 0.79121651E-01</totfact>
</mgrwt>
</event>
<event>
 6    1  0.9562506E-007  0.1029918E+04  0.7818608E-02  0.9276326E-01
         -2   -1    0    0    0  501 -0.00000000000E+00  0.00000000000E+00  0.49056214313E+03  0.49056214313E+03  0.00000000000E+00 0.  1.
          2   -1    0    0  501    0  0.00000000000E+00 -0.00000000000E+00 -0.54056953957E+03  0.54056953957E+03  0.00000000000E+00 0. -1.
         23    2    1    2    0    0  0.31980933716E+03  0.38648460208E+03 -0.12149511422E+03  0.52441790396E+03  0.92761605367E+02 0.  0.
         11    1    3    3    0    0  0.15913103307E+03  0.13877334137E+03 -0.19509935699E+02  0.21204094782E+03  0.00000000000E+00 0. -1.
        -11    1    3    3    0    0  0.16067830409E+03  0.24771126070E+03 -0.10198517852E+03  0.31237695613E+03  0.00000000000E+00 0.  1.
         22    1    1    2    0    0 -0.31980933716E+03 -0.38648460208E+03  0.71487717786E+02  0.50671377875E+03  0.00000000000E+00 0. -1.
<mgrwt>
<rscale>  0 0.10299183E+04</rscale>
<asrwt>0</asrwt>
<pdfrwt beam="1">  1        2 0.83164544E-01 0.10299183E+04</pdfrwt>
<pdfrwt beam="2">  1       -2 0.75471099E-01 0.10299183E+04</pdfrwt>
<totfact> 0.88271128E+01</totfact>
</mgrwt>
</event>
<event>
 6    1  0.9562506E-007  0.3064164E+04  0.7818608E-02  0.8225642E-01
         -1   -1    0    0    0  501 -0.00000000000E+00  0.00000000000E+00  0.17114109664E+04  0.17114109664E+04  0.00000000000E+00 0.  1.
          1   -1    0    0  501    0  0.00000000000E+00 -0.00000000000E+00 -0.13715438704E+04  0.13715438704E+04  0.00000000000E+00 0. -1.
         23    2    1    2    0    0  0.99338058516E+03  0.93105445896E+03 -0.53372048275E+03  0.14652952155E+04  0.92547946519E+02 0.  0.
         13    1    3    3    0    0  0.45146781529E+03  0.41701471924E+03 -0.29025946276E+03  0.67968744289E+03  0.00000000000E+00 0. -1.
        -13    1    3    3    0    0  0.54191276987E+03  0.51403973972E+03 -0.24346101998E+03  0.78560777263E+03  0.00000000000E+00 0.  1.
         22    1    1    2    0    0 -0.99338058516E+03 -0.93105445896E+03  0.87358757880E+03  0.16176596213E+04  0.00000000000E+00 0.  1.
<mgrwt>
<rscale>  0 0.30641640E+04</rscale>
<asrwt>0</asrwt>
<pdfrwt beam="1">  1        1 0.21100675E+00 0.30641640E+04</pdfrwt>
<pdfrwt beam="2">  1       -1 0.26329400E+00 0.30641640E+04</pdfrwt>
<totfact> 0.38895616E-01</totfact>
</mgrwt>
</event>
<event>
 6    1  0.9562506E-007  0.2363744E+04  0.7818608E-02  0.8453203E-01
          2   -1    0    0  501    0  0.00000000000E+00  0.00000000000E+00  0.14233712325E+04  0.14233712325E+04  0.00000000000E+00 0. -1.
         -2   -1    0    0    0  501 -0.00000000000E+00 -0.00000000000E+00 -0.98134730475E+03  0.98134730475E+03  0.00000000000E+00 0.  1.
         23    2    1    2    0    0  0.40212751624E+03 -0.14833365880E+03 -0.89722916800E+03  0.99855059987E+03  0.91507961078E+02 0.  0.
         13    1    3    3    0    0  0.17919048995E+03 -0.27424334218E+02 -0.31408459126E+03  0.36264370430E+03  0.00000000000E+00 0.  1.
        -13    1    3    3    0    0  0.22293702629E+03 -0.12090932458E+03 -0.58314457674E+03  0.63590689557E+03  0.00000000000E+00 0. -1.
         22    1    1    2    0    0 -0.40212751624E+03  0.14833365880E+03  0.13392530958E+04  0.14061679374E+04  0.00000000000E+00 0. -1.
<mgrwt>
<rscale>  0 0.23637441E+04</rscale>
<asrwt>0</asrwt>
<pdfrwt beam="1">  1        2 0.21898019E+00 0.23637441E+04</pdfrwt>
<pdfrwt beam="2">  1       -2 0.15097651E+00 0.23637441E+04</pdfrwt>
<totfact> 0.37276125E+00</totfact>
</mgrwt>
</event>
<event>
 6    1  0.9562506E-007  0.1200277E+04  0.7818608E-02  0.9112614E-01
         -2   -1    0    0    0  501 -0.00000000000E+00  0.00000000000E+00  0.20856462644E+03  0.20856462644E+03  0.00000000000E+00 0.  1.
          2   -1    0    0  501    0  0.00000000000E+00 -0.00000000000E+00 -0.17268803679E+04  0.17268803679E+04  0.00000000000E+00 0. -1.
         23    2    1    2    0    0 -0.24545784617E+03  0.22294420636E+03  0.36494419480E+02  0.34566881199E+03  0.90561644929E+02 0.  0.
         13    1    3    3    0    0 -0.21071240242E+03  0.14591776915E+03  0.77769567936E+01  0.25642190418E+03  0.00000000000E+00 0.  1.
        -13    1    3    3    0    0 -0.34745443757E+02  0.77026437203E+02  0.28717462686E+02  0.89246907808E+02  0.00000000000E+00 0. -1.
         22    1    1    2    0    0  0.24545784617E+03 -0.22294420636E+03 -0.15548101609E+04  0.15897761823E+04  0.00000000000E+00 0. -1.
<mgrwt>
<rscale>  0 0.12002769E+04</rscale>
<asrwt>0</asrwt>
<pdfrwt beam="1">  1        2 0.26567391E+00 0.12002769E+04</pdfrwt>
<pdfrwt beam="2">  1       -2 0.32086865E-01 0.12002769E+04</pdfrwt>
<totfact> 0.84489253E+01</totfact>
</mgrwt>
</event>
<event>
 6    1  0.9562506E-007  0.1746619E+04  0.7818608E-02  0.8735213E-01
         -2   -1    0    0    0  501 -0.00000000000E+00  0.00000000000E+00  0.61488237351E+03  0.61488237351E+03  0.00000000000E+00 0.  1.
          2   -1    0    0  501    0  0.00000000000E+00 -0.00000000000E+00 -0.12403503694E+04  0.12403503694E+04  0.00000000000E+00 0. -1.
         23    2    1    2    0    0  0.51041898663E+03 -0.27760727879E+03 -0.10027907030E+04  0.11624371247E+04  0.89875089392E+02 0.  0.
         11    1    3    3    0    0  0.15161164949E+03 -0.12908142510E+03 -0.36254413685E+03  0.41362586685E+03  0.00000000000E+00 0.  1.
        -11    1    3    3    0    0  0.35880733714E+03 -0.14852585369E+03 -0.64024656619E+03  0.74881125787E+03  0.00000000000E+00 0. -1.
         22    1    1    2    0    0 -0.51041898663E+03  0.27760727879E+03  0.37732270720E+03  0.69279561814E+03  0.00000000000E+00 0.  1.
<mgrwt>
<rscale>  0 0.17466191E+04</rscale>
<asrwt>0</asrwt>
<pdfrwt beam="1">  1        2 0.19082313E+00 0.17466191E+04</pdfrwt>
<pdfrwt beam="2">  1       -2 0.94597288E-01 0.17466191E+04</pdfrwt>
<totfact> 0.15996365E+01</totfact>
</mgrwt>
</event>
<event>
 6    1  0.9562506E-007  0.2218509E+04  0.7818608E-02  0.8510764E-01
         -1   -1    0    0    0  501 -0.00000000000E+00  0.00000000000E+00  0.21154515267E+04  0.21154515267E+04  0.00000000000E+00 0.  1.
          1   -1    0    0  501    0  0.00000000000E+00 -0.00000000000E+00 -0.58164677668E+03  0.58164677668E+03  0.00000000000E+00 0. -1.
         23    2    1    2    0    0 -0.10594355934E+03  0.10505669984E+04  0.11734232472E+04  0.15813967827E+04  0.94755534946E+02 0.  0.
         11    1    3    3    0    0 -0.37893745653E+02  0.56392293243E+03  0.69205846470E+03  0.89352668021E+03  0.00000000000E+00 0.  1.
        -11    1    3    3    0    0 -0.68049813684E+02  0.48664406592E+03  0.48136478247E+03  0.68787010245E+03  0.00000000000E+00 0. -1.
         22    1    1    2    0    0  0.10594355934E+03 -0.10505669984E+04  0.36038150289E+03  0.11157015208E+04  0.00000000000E+00 0. -1.
<mgrwt>
<rscale>  0 0.22185090E+04</rscale>
<asrwt>0</asrwt>
<pdfrwt beam="1">  1        1 0.89484120E-01 0.22185090E+04</pdfrwt>
<pdfrwt beam="2">  1       -1 0.32545408E+00 0.22185090E+04</pdfrwt>
<totfact> 0.73552449E-01</totfact>
</mgrwt>
</event>
<event>
 6    1  0.9562506E-007  0.2036333E+04  0.7818608E-02  0.8589820E-01
          2   -1    0    0  501    0  0.00000000000E+00  0.00000000000E+00  0.88089348104E+03  0.88089348104E+03  0.00000000000E+00 0. -1.
         -2   -1    0    0    0  501 -0.00000000000E+00 -0.00000000000E+00 -0.11768313459E+04  0.11768313459E+04  0.00000000000E+00 0.  1.
         23    2    1    2    0    0 -0.42556200260E+03  0.28780732524E+03 -0.10341545220E+04  0.11583361972E+04  0.91274836060E+02 0.  0.
         13    1    3    3    0    0 -0.41516378218E+03  0.26239881317E+03 -0.94436357476E+03  0.10644419498E+04  0.00000000000E+00 0.  1.
        -13    1    3    3    0    0 -0.10398220427E+02  0.25408512076E+02 -0.89790947283E+02  0.93894247363E+02  0.00000000000E+00 0. -1.
         22    1    1    2    0    0  0.42556200260E+03 -0.28780732524E+03  0.73821665714E+03  0.89938862980E+03  0.00000000000E+00 0. -1.
<mgrwt>
<rscale>  0 0.20363330E+04</rscale>
<asrwt>0</asrwt>
<pdfrwt beam="1">  1        2 0.13552207E+00 0.20363330E+04</pdfrwt>
<pdfrwt beam="2">  1       -2 0.18105098E+00 0.20363330E+04</pdfrwt>
<totfact> 0.49890338E+00</totfact>
</mgrwt>
</event>
<event>
 6    1  0.9562506E-007  0.1722243E+04  0.7818608E-02  0.8748779E-01
          2   -1    0    0  501    0  0.00000000000E+00  0.00000000000E+00  0.32468357840E+04  0.32468357840E+04  0.00000000000E+00 0. -1.
         -2   -1    0    0    0  501 -0.00000000000E+00 -0.00000000000E+00 -0.22838542414E+03  0.22838542414E+03  0.00000000000E+00 0.  1.
         23    2    1    2    0    0  0.31864853115E+02  0.58419271418E+03  0.24501335555E+03  0.64074606924E+03  0.90705483238E+02 0.  0.
         11    1    3    3    0    0  0.11396363710E+02  0.52216821677E+03  0.24126350657E+03  0.57532391165E+03  0.00000000000E+00 0.  1.
        -11    1    3    3    0    0  0.20468489405E+02  0.62024497408E+02  0.37498489837E+01  0.65422157597E+02  0.00000000000E+00 0. -1.
         22    1    1    2    0    0 -0.31864853115E+02 -0.58419271418E+03  0.27734370043E+04  0.28344751389E+04  0.00000000000E+00 0. -1.
<mgrwt>
<rscale>  0 0.17222427E+04</rscale>
<asrwt>0</asrwt>
<pdfrwt beam="1">  1        2 0.49951316E+00 0.17222427E+04</pdfrwt>
<pdfrwt beam="2">  1       -2 0.35136221E-01 0.17222427E+04</pdfrwt>
<totfact> 0.87859628E+00</totfact>
</mgrwt>
</event>
<event>
 6    1  0.9562506E-007  0.2059856E+04  0.7818608E-02  0.8579136E-01
         -2   -1    0    0    0  501 -0.00000000000E+00  0.00000000000E+00  0.65812922761E+03  0.65812922761E+03  0.00000000000E+00 0.  1.
          2   -1    0    0  501    0  0.00000000000E+00 -0.00000000000E+00 -0.16117675435E+04  0.16117675435E+04  0.00000000000E+00 0. -1.
         23    2    1    2    0    0 -0.54538854332E+03  0.82034438369E+02 -0.14336575861E+04  0.15387354948E+04  0.90302472694E+02 0.  0.
         13    1    3    3    0    0 -0.17688072178E+03  0.58052684443E+02 -0.40312993027E+03  0.44403901246E+03  0.00000000000E+00 0.  1.
        -13    1    3    3    0    0 -0.36850782154E+03  0.23981753925E+02 -0.10305276558E+04  0.10946964824E+04  0.00000000000E+00 0. -1.
         22    1    1    2    0    0  0.54538854332E+03 -0.82034438369E+02  0.48001927018E+03  0.73116127633E+03  0.00000000000E+00 0.  1.
<mgrwt>
<rscale>  0 0.20598557E+04</rscale>
<asrwt>0</asrwt>
<pdfrwt beam="1">  1        2 0.24796424E+00 0.20598557E+04</pdfrwt>
<pdfrwt beam="2">  1       -2 0.10125065E+00 0.20598557E+04</pdfrwt>
<totfact> 0.81446267E+00</totfact>
</mgrwt>
</event>
<event>
 6    1  0.9562506E-007  0.2951483E+04  0.7818608E-02  0.8257723E-01
         -1   -1    0    0    0  501 -0.00000000000E+00  0.00000000000E+00  0.11960109644E+04  0.11960109644E+04  0.00000000000E+00 0.  1.
          1   -1    0    0  501    0  0.00000000000E+00 -0.00000000000E+00 -0.18208970088E+04  0.18208970088E+04  0.00000000000E+00 0. -1.
         23    2    1    2    0    0  0.19237745984E+01  0.13866643241E+04 -0.82461046568E+03  0.16159327795E+04  0.91731559855E+02 0.  0.
         13    1    3    3    0    0  0.26046765350E+02  0.12596797570E+03 -0.69830887273E+02  0.14636501531E+03  0.00000000000E+00 0.  1.
        -13    1    3    3    0    0 -0.24122990752E+02  0.12606963484E+04 -0.75477957841E+03  0.14695677642E+04  0.00000000000E+00 0. -1.
         22    1    1    2    0    0 -0.19237745984E+01 -0.13866643241E+04  0.19972442128E+03  0.14009751937E+04  0.00000000000E+00 0.  1.
<mgrwt>
<rscale>  0 0.29514829E+04</rscale>
<asrwt>0</asrwt>
<pdfrwt beam="1">  1        1 0.28013800E+00 0.29514829E+04</pdfrwt>
<pdfrwt beam="2">  1       -1 0.18400169E+00 0.29514829E+04</pdfrwt>
<totfact> 0.65652327E-01</totfact>
</mgrwt>
</event>
<event>
 6    1  0.9562506E-007  0.1070604E+04  0.7818608E-02  0.9234326E-01
          2   -1    0    0  501    0  0.00000000000E+00  0.00000000000E+00  0.65439192735E+03  0.65439192735E+03  0.00000000000E+00 0. -1.
         -2   -1    0    0    0  501 -0.00000000000E+00 -0.00000000000E+00 -0.43788499092E+03  0.43788499092E+03  0.00000000000E+00 0.  1.
         23    2    1    2    0    0  0.52648904790E+03 -0.69822467598E+01  0.35405407965E+02  0.53546704683E+03  0.90730072238E+02 0.  0.
         13    1    3    3    0    0  0.71864846506E+02  0.24893299970E+02  0.23385399157E+02  0.79568269056E+02  0.00000000000E+00 0.  1.
        -13    1    3    3    0    0  0.45462420139E+03 -0.31875546730E+02  0.12020008808E+02  0.45589877778E+03  0.00000000000E+00 0. -1.
         22    1    1    2    0    0 -0.52648904790E+03  0.69822467598E+01  0.18110152846E+03  0.55680987144E+03  0.00000000000E+00 0.  1.
<mgrwt>
<rscale>  0 0.10706043E+04</rscale>
<asrwt>0</asrwt>
<pdfrwt beam="1">  1        2 0.10067568E+00 0.10706043E+04</pdfrwt>
<pdfrwt beam="2">  1       -2 0.67366922E-01 0.10706043E+04</pdfrwt>
<totfact> 0.89670184E+01</totfact>
</mgrwt>
</event>
<event>
 6    1  0.9562506E-007  0.2322548E+04  0.7818608E-02  0.8469084E-01
          2   -1    0    0  501    0  0.00000000000E+00  0.00000000000E+00  0.10652594543E+04  0.10652594543E+04  0.00000000000E+00 0. -1.
         -2   -1    0    0    0  501 -0.00000000000E+00 -0.00000000000E+00 -0.12659424322E+04  0.12659424322E+04  0.00000000000E+00 0.  1.
         23    2    1    2    0    0 -0.42316928979E+03 -0.98480882568E+03  0.34299364332E+03  0.11293262941E+04  0.93875280476E+02 0.  0.
         13    1    3    3    0    0 -0.28608142231E+03 -0.72310878974E+03  0.21107898779E+03  0.80578113721E+03  0.00000000000E+00 0.  1.
        -13    1    3    3    0    0 -0.13708786748E+03 -0.26170003593E+03  0.13191465553E+03  0.32354515691E+03  0.00000000000E+00 0. -1.
         22    1    1    2    0    0  0.42316928979E+03  0.98480882568E+03 -0.54367662122E+03  0.12018755923E+04  0.00000000000E+00 0.  1.
<mgrwt>
<rscale>  0 0.23225479E+04</rscale>
<asrwt>0</asrwt>
<pdfrwt beam="1">  1        2 0.16388607E+00 0.23225479E+04</pdfrwt>
<pdfrwt beam="2">  1       -2 0.19476037E+00 0.23225479E+04</pdfrwt>
<totfact> 0.29843294E+00</totfact>
</mgrwt>
</event>
<event>
 6    1  0.9562506E-007  0.1560115E+04  0.7818608E-02  0.8845433E-01
         -1   -1    0    0    0  501 -0.00000000000E+00  0.00000000000E+00  0.28604055832E+03  0.28604055832E+03  0.00000000000E+00 0.  1.
          1   -1    0    0  501    0  0.00000000000E+00 -0.00000000000E+00 -0.21272838877E+04  0.21272838877E+04  0.00000000000E+00 0. -1.
         23    2    1    2    0    0  0.40082921512E+03  0.37064432269E+03 -0.17795170423E+04  0.18639143914E+04  0.97235183086E+02 0.  0.
         11    1    3    3    0    0  0.27812562741E+03  0.21504075010E+03 -0.10162175255E+04  0.10753113260E+04  0.00000000000E+00 0. -1.
        -11    1    3    3    0    0  0.12270358771E+03  0.15560357259E+03 -0.76329951686E+03  0.78860306535E+03  0.00000000000E+00 0.  1.
         22    1    1    2    0    0 -0.40082921512E+03 -0.37064432269E+03 -0.61726287071E+02  0.54941005465E+03  0.00000000000E+00 0. -1.
<mgrwt>
<rscale>  0 0.15601147E+04</rscale>
<asrwt>0</asrwt>
<pdfrwt beam="1">  1        1 0.32727446E+00 0.15601147E+04</pdfrwt>
<pdfrwt beam="2">  1       -1 0.44006238E-01 0.15601147E+04</pdfrwt>
<totfact> 0.12011998E+01</totfact>
</mgrwt>
</event>
<event>
 6    1  0.9562506E-007  0.2475462E+04  0.7818608E-02  0.8411780E-01
          1   -1    0    0  501    0  0.00000000000E+00  0.00000000000E+00  0.19672101372E+04  0.19672101372E+04  0.00000000000E+00 0. -1.
         -1   -1    0    0    0  501 -0.00000000000E+00 -0.00000000000E+00 -0.77875638821E+03  0.77875638821E+03  0.00000000000E+00 0.  1.
         23    2    1    2    0    0 -0.11185854039E+02 -0.48294377660E+03  0.18571188574E+04  0.19210587477E+04  0.90644618090E+02 0.  0.
         11    1    3    3    0    0  0.33726249036E+02 -0.27224405076E+03  0.95912260078E+03  0.99758230055E+03  0.00000000000E+00 0.  1.
        -11    1    3    3    0    0 -0.44912103076E+02 -0.21069972584E+03  0.89799625661E+03  0.92347644710E+03  0.00000000000E+00 0. -1.
         22    1    1    2    0    0  0.11185854039E+02  0.48294377660E+03 -0.66866510837E+03  0.82490777778E+03  0.00000000000E+00 0.  1.
<mgrwt>
<rscale>  0 0.24754615E+04</rscale>
<asrwt>0</asrwt>
<pdfrwt beam="1">  1        1 0.30264771E+00 0.24754615E+04</pdfrwt>
<pdfrwt beam="2">  1       -1 0.11980868E+00 0.24754615E+04</pdfrwt>
<totfact> 0.17353431E+00</totfact>
</mgrwt>
</event>
<event>
 6    1  0.9562506E-007  0.1061914E+04  0.7818608E-02  0.9243130E-01
          2   -1    0    0  501    0  0.00000000000E+00  0.00000000000E+00  0.83588505464E+03  0.83588505464E+03  0.00000000000E+00 0. -1.
         -2   -1    0    0    0  501 -0.00000000000E+00 -0.00000000000E+00 -0.33726542164E+03  0.33726542164E+03  0.00000000000E+00 0.  1.
         23    2    1    2    0    0 -0.49005926351E+03 -0.10480975596E+03  0.43183271369E+03  0.66757787092E+03  0.89652408998E+02 0.  0.
         11    1    3    3    0    0 -0.17280252185E+03 -0.56543778289E+02  0.10702087947E+03  0.21097720034E+03  0.00000000000E+00 0.  1.
        -11    1    3    3    0    0 -0.31725674166E+03 -0.48265977667E+02  0.32481183422E+03  0.45660067058E+03  0.00000000000E+00 0. -1.
         22    1    1    2    0    0  0.49005926351E+03  0.10480975596E+03  0.66786919305E+02  0.50557260535E+03  0.00000000000E+00 0. -1.
<mgrwt>
<rscale>  0 0.10619136E+04</rscale>
<asrwt>0</asrwt>
<pdfrwt beam="1">  1        2 0.12859770E+00 0.10619136E+04</pdfrwt>
<pdfrwt beam="2">  1       -2 0.51886988E-01 0.10619136E+04</pdfrwt>
<totfact> 0.11333214E+02</totfact>
</mgrwt>
</event>
<event>
 6    1  0.9562506E-007  0.1165294E+04  0.7818608E-02  0.9143789E-01
          2   -1    0    0  501    0  0.00000000000E+00  0.00000000000E+00  0.41151462200E+04  0.41151462200E+04  0.00000000000E+00 0. -1.
         -2   -1    0    0    0  501 -0.00000000000E+00 -0.00000000000E+00 -0.82494674686E+02  0.82494674686E+02  0.00000000000E+00 0.  1.
         23    2    1    2    0    0 -0.18430270214E+03 -0.48820705583E+03  0.11239093689E+04  0.12424599080E+04  0.90668285762E+02 0.  0.
         11    1    3    3    0    0 -0.14327515618E+03 -0.26534745930E+03  0.59511793883E+03  0.66715995507E+03  0.00000000000E+00 0.  1.
        -11    1    3    3    0    0 -0.41027545959E+02 -0.22285959652E+03  0.52879143005E+03  0.57529995288E+03  0.00000000000E+00 0. -1.
         22    1    1    2    0    0  0.18430270214E+03  0.48820705583E+03  0.29087421764E+04  0.29551809867E+04  0.00000000000E+00 0. -1.
<mgrwt>
<rscale>  0 0.11652942E+04</rscale>
<asrwt>0</asrwt>
<pdfrwt beam="1">  1        2 0.63309926E+00 0.11652942E+04</pdfrwt>
<pdfrwt beam="2">  1       -2 0.12691492E-01 0.11652942E+04</pdfrwt>
<totfact> 0.13238957E+01</totfact>
</mgrwt>
</event>
<event>
 6    1  0.9562506E-007  0.2970382E+04  0.7818608E-02  0.8252239E-01
         -2   -1    0    0    0  501 -0.00000000000E+00  0.00000000000E+00  0.13238442235E+04  0.13238442235E+04  0.00000000000E+00 0.  1.
          2   -1    0    0  501    0  0.00000000000E+00 -0.00000000000E+00 -0.16662027562E+04  0.16662027562E+04  0.00000000000E+00 0. -1.
         23    2    1    2    0    0 -0.63495497087E+03  0.13159365743E+04 -0.43167741348E+03  0.15262045206E+04  0.89988704039E+02 0.  0.
         11    1    3    3    0    0 -0.55774949822E+03  0.10999065775E+04 -0.34093147869E+03  0.12794972666E+04  0.00000000000E+00 0. -1.
        -11    1    3    3    0    0 -0.77205472656E+02  0.21602999675E+03 -0.90745934785E+02  0.24670725402E+03  0.00000000000E+00 0.  1.
         22    1    1    2    0    0  0.63495497087E+03 -0.13159365743E+04  0.89318880824E+02  0.14638424591E+04  0.00000000000E+00 0.  1.
<mgrwt>
<rscale>  0 0.29703824E+04</rscale>
<asrwt>0</asrwt>
<pdfrwt beam="1">  1        2 0.25633888E+00 0.29703824E+04</pdfrwt>
<pdfrwt beam="2">  1       -2 0.20366834E+00 0.29703824E+04</pdfrwt>
<totfact> 0.11060868E+00</totfact>
</mgrwt>
</event>
<event>
 6    1  0.9562506E-007  0.2186291E+04  0.7818608E-02  0.8524156E-01
          2   -1    0    0  501    0  0.00000000000E+00  0.00000000000E+00  0.28456429641E+04  0.28456429641E+04  0.00000000000E+00 0. -1.
         -2   -1    0    0    0  501 -0.00000000000E+00 -0.00000000000E+00 -0.41992860853E+03  0.41992860853E+03  0.00000000000E+00 0.  1.
         23    2    1    2    0    0 -0.82774101538E+03  0.54370916654E+03  0.18993349325E+04  0.21440323877E+04  0.92880823154E+02 0.  0.
         13    1    3    3    0    0 -0.22071530884E+03  0.13315440730E+03  0.41265483025E+03  0.48654840733E+03  0.00000000000E+00 0. -1.
        -13    1    3    3    0    0 -0.60702570654E+03  0.41055475924E+03  0.14866801022E+04  0.16574839804E+04  0.00000000000E+00 0.  1.
         22    1    1    2    0    0  0.82774101538E+03 -0.54370916654E+03  0.52637942306E+03  0.11215391849E+04  0.00000000000E+00 0.  1.
<mgrwt>
<rscale>  0 0.21862908E+04</rscale>
<asrwt>0</asrwt>
<pdfrwt beam="1">  1        2 0.43779121E+00 0.21862908E+04</pdfrwt>
<pdfrwt beam="2">  1       -2 0.64604403E-01 0.21862908E+04</pdfrwt>
<totfact> 0.43946010E+00</totfact>
</mgrwt>
</event>
<event>
 6    1  0.9562506E-007  0.1722103E+04  0.7818608E-02  0.8748857E-01
         -1   -1    0    0    0  501 -0.00000000000E+00  0.00000000000E+00  0.19855169847E+04  0.19855169847E+04  0.00000000000E+00 0.  1.
          1   -1    0    0  501    0  0.00000000000E+00 -0.00000000000E+00 -0.37340909651E+03  0.37340909651E+03  0.00000000000E+00 0. -1.
         23    2    1    2    0    0  0.55214153627E+03  0.40887197915E+03  0.10306138029E+03  0.70083744232E+03  0.92276221406E+02 0.  0.
         13    1    3    3    0    0  0.46141160273E+03  0.34674643931E+03  0.51747798780E+02  0.57949253229E+03  0.00000000000E+00 0.  1.
        -13    1    3    3    0    0  0.90729933540E+02  0.62125539845E+02  0.51313581511E+02  0.12134491002E+03  0.00000000000E+00 0. -1.
         22    1    1    2    0    0 -0.55214153627E+03 -0.40887197915E+03  0.15090465079E+04  0.16580886389E+04  0.00000000000E+00 0.  1.
<mgrwt>
<rscale>  0 0.17221035E+04</rscale>
<asrwt>0</asrwt>
<pdfrwt beam="1">  1        1 0.57447555E-01 0.17221035E+04</pdfrwt>
<pdfrwt beam="2">  1       -1 0.30546414E+00 0.17221035E+04</pdfrwt>
<totfact> 0.19036339E+00</totfact>
</mgrwt>
</event>
<event>
 6    1  0.9562506E-007  0.2748678E+04  0.7818608E-02  0.8319381E-01
          1   -1    0    0  501    0  0.00000000000E+00  0.00000000000E+00  0.12221628291E+04  0.12221628291E+04  0.00000000000E+00 0. -1.
         -1   -1    0    0    0  501 -0.00000000000E+00 -0.00000000000E+00 -0.15454629437E+04  0.15454629437E+04  0.00000000000E+00 0.  1.
         23    2    1    2    0    0  0.12499424558E+04 -0.44363683679E+03  0.19472205166E+03  0.13437168043E+04  0.92132442150E+02 0.  0.
         11    1    3    3    0    0  0.44614209686E+03 -0.13728886527E+03  0.28916216590E+02  0.46768274578E+03  0.00000000000E+00 0. -1.
        -11    1    3    3    0    0  0.80380035895E+03 -0.30634797151E+03  0.16580583507E+03  0.87603405850E+03  0.00000000000E+00 0.  1.
         22    1    1    2    0    0 -0.12499424558E+04  0.44363683679E+03 -0.51802216630E+03  0.14239089685E+04  0.00000000000E+00 0.  1.
<mgrwt>
<rscale>  0 0.27486778E+04</rscale>
<asrwt>0</asrwt>
<pdfrwt beam="1">  1        1 0.18802505E+00 0.27486778E+04</pdfrwt>
<pdfrwt beam="2">  1       -1 0.23776353E+00 0.27486778E+04</pdfrwt>
<totfact> 0.75074973E-01</totfact>
</mgrwt>
</event>
<event>
 6    1  0.9562506E-007  0.2799852E+04  0.7818608E-02  0.8303314E-01
          2   -1    0    0  501    0  0.00000000000E+00  0.00000000000E+00  0.17754544478E+04  0.17754544478E+04  0.00000000000E+00 0. -1.
         -2   -1    0    0    0  501 -0.00000000000E+00 -0.00000000000E+00 -0.11038257218E+04  0.11038257218E+04  0.00000000000E+00 0.  1.
         23    2    1    2    0    0  0.30971644993E+03 -0.91294229073E+03 -0.70627873652E+03  0.11976093097E+04  0.77784956963E+02 0.  0.
         11    1    3    3    0    0  0.92593478883E+02 -0.27811707038E+03 -0.17135648344E+03  0.33953748186E+03  0.00000000000E+00 0. -1.
        -11    1    3    3    0    0  0.21712297104E+03 -0.63482522035E+03 -0.53492225308E+03  0.85807182787E+03  0.00000000000E+00 0.  1.
         22    1    1    2    0    0 -0.30971644993E+03  0.91294229073E+03  0.13779074626E+04  0.16816708599E+04  0.00000000000E+00 0. -1.
<mgrwt>
<rscale>  0 0.27998516E+04</rscale>
<asrwt>0</asrwt>
<pdfrwt beam="1">  1        2 0.27314684E+00 0.27998516E+04</pdfrwt>
<pdfrwt beam="2">  1       -2 0.16981934E+00 0.27998516E+04</pdfrwt>
<totfact> 0.16564764E+00</totfact>
</mgrwt>
</event>
<event>
 6    1  0.9562506E-007  0.6274900E+04  0.7818608E-02  0.7657222E-01
         -2   -1    0    0    0  501 -0.00000000000E+00  0.00000000000E+00  0.56557102129E+04  0.56557102129E+04  0.00000000000E+00 0.  1.
          2   -1    0    0  501    0  0.00000000000E+00 -0.00000000000E+00 -0.17404694795E+04  0.17404694795E+04  0.00000000000E+00 0. -1.
         23    2    1    2    0    0 -0.10497656196E+04  0.28635979710E+04  0.28220102368E+04  0.41562176379E+04  0.90565345802E+02 0.  0.
         11    1    3    3    0    0 -0.45526804667E+03  0.13331140079E+04  0.13473981602E+04  0.19493444422E+04  0.00000000000E+00 0. -1.
        -11    1    3    3    0    0 -0.59449757291E+03  0.15304839631E+04  0.14746120766E+04  0.22068731957E+04  0.00000000000E+00 0.  1.
         22    1    1    2    0    0  0.10497656196E+04 -0.28635979710E+04  0.10932304966E+04  0.32399620545E+04  0.00000000000E+00 0. -1.
<mgrwt>
<rscale>  0 0.62748995E+04</rscale>
<asrwt>0</asrwt>
<pdfrwt beam="1">  1        2 0.26776454E+00 0.62748995E+04</pdfrwt>
<pdfrwt beam="2">  1       -2 0.87010925E+00 0.62748995E+04</pdfrwt>
<totfact> 0.12593144E-04</totfact>
</mgrwt>
</event>
<event>
 6    1  0.9562506E-007  0.2090029E+04  0.7818608E-02  0.8565649E-01
          1   -1    0    0  501    0  0.00000000000E+00  0.00000000000E+00  0.17912925643E+04  0.17912925643E+04  0.00000000000E+00 0. -1.
         -1   -1    0    0    0  501 -0.00000000000E+00 -0.00000000000E+00 -0.60964628886E+03  0.60964628886E+03  0.00000000000E+00 0.  1.
         23    2    1    2    0    0 -0.47975291594E+03  0.92216439966E+03  0.49312787968E+03  0.11540998012E+04  0.90670860567E+02 0.  0.
         11    1    3    3    0    0 -0.94930626152E+02  0.26837514486E+03  0.12628247927E+03  0.31142303500E+03  0.00000000000E+00 0.  1.
        -11    1    3    3    0    0 -0.38482228979E+03  0.65378925480E+03  0.36684540041E+03  0.84267676615E+03  0.00000000000E+00 0. -1.
         22    1    1    2    0    0  0.47975291594E+03 -0.92216439966E+03  0.68851839581E+03  0.12468390521E+04  0.00000000000E+00 0.  1.
<mgrwt>
<rscale>  0 0.20900286E+04</rscale>
<asrwt>0</asrwt>
<pdfrwt beam="1">  1        1 0.27558347E+00 0.20900286E+04</pdfrwt>
<pdfrwt beam="2">  1       -1 0.93791737E-01 0.20900286E+04</pdfrwt>
<totfact> 0.41886417E+00</totfact>
</mgrwt>
</event>
<event>
 6    1  0.9562506E-007  0.4062004E+04  0.7818608E-02  0.7992154E-01
         -2   -1    0    0    0  501 -0.00000000000E+00  0.00000000000E+00  0.23979403107E+04  0.23979403107E+04  0.00000000000E+00 0.  1.
          2   -1    0    0  501    0  0.00000000000E+00 -0.00000000000E+00 -0.17202132166E+04  0.17202132166E+04  0.00000000000E+00 0. -1.
         23    2    1    2    0    0 -0.25777607916E+03  0.19559081354E+04  0.82264781235E+03  0.21400162328E+04  0.10437869611E+03 0.  0.
         11    1    3    3    0    0 -0.17472474642E+03  0.16219134889E+04  0.68815411640E+03  0.17705050665E+04  0.00000000000E+00 0. -1.
        -11    1    3    3    0    0 -0.83051332744E+02  0.33399464651E+03  0.13449369595E+03  0.36951116629E+03  0.00000000000E+00 0.  1.
         22    1    1    2    0    0  0.25777607916E+03 -0.19559081354E+04 -0.14492071822E+03  0.19781372945E+04  0.00000000000E+00 0. -1.
<mgrwt>
<rscale>  0 0.40620037E+04</rscale>
<asrwt>0</asrwt>
<pdfrwt beam="1">  1        2 0.26464818E+00 0.40620037E+04</pdfrwt>
<pdfrwt beam="2">  1       -2 0.36891390E+00 0.40620037E+04</pdfrwt>
<totfact> 0.88463459E-02</totfact>
</mgrwt>
</event>
<event>
 6    1  0.9562506E-007  0.3333678E+04  0.7818608E-02  0.8154379E-01
          2   -1    0    0  501    0  0.00000000000E+00  0.00000000000E+00  0.32541951725E+04  0.32541951725E+04  0.00000000000E+00 0. -1.
         -2   -1    0    0    0  501 -0.00000000000E+00 -0.00000000000E+00 -0.85377540984E+03  0.85377540984E+03  0.00000000000E+00 0.  1.
         23    2    1    2    0    0  0.12117238255E+04  0.98831837728E+03  0.49376945717E+03  0.16421313273E+04  0.87972581051E+02 0.  0.
         13    1    3    3    0    0  0.14070815146E+03  0.84665626607E+02  0.66039849510E+02  0.17699806197E+03  0.00000000000E+00 0.  1.
        -13    1    3    3    0    0  0.10710156741E+04  0.90365275067E+03  0.42772960767E+03  0.14651332653E+04  0.00000000000E+00 0. -1.
         22    1    1    2    0    0 -0.12117238255E+04 -0.98831837728E+03  0.19066503055E+04  0.24658392550E+04  0.00000000000E+00 0.  1.
<mgrwt>
<rscale>  0 0.33336777E+04</rscale>
<asrwt>0</asrwt>
<pdfrwt beam="1">  1        2 0.50064541E+00 0.33336777E+04</pdfrwt>
<pdfrwt beam="2">  1       -2 0.13135006E+00 0.33336777E+04</pdfrwt>
<totfact> 0.42052440E-01</totfact>
</mgrwt>
</event>
<event>
 6    1  0.9562506E-007  0.2007618E+04  0.7818608E-02  0.8603067E-01
          1   -1    0    0  501    0  0.00000000000E+00  0.00000000000E+00  0.16376987602E+04  0.16376987602E+04  0.00000000000E+00 0. -1.
         -1   -1    0    0    0  501 -0.00000000000E+00 -0.00000000000E+00 -0.61527341589E+03  0.61527341589E+03  0.00000000000E+00 0.  1.
         23    2    1    2    0    0  0.79552690683E+03  0.24612669590E+03  0.11367041952E+04  0.14124359986E+04  0.97147377309E+02 0.  0.
         11    1    3    3    0    0  0.32811082162E+03  0.13501733318E+03  0.42318609002E+03  0.55224347738E+03  0.00000000000E+00 0. -1.
        -11    1    3    3    0    0  0.46741608522E+03  0.11110936272E+03  0.71351810514E+03  0.86019252122E+03  0.00000000000E+00 0.  1.
         22    1    1    2    0    0 -0.79552690683E+03 -0.24612669590E+03 -0.11427885084E+03  0.84053617749E+03  0.00000000000E+00 0.  1.
<mgrwt>
<rscale>  0 0.20076180E+04</rscale>
<asrwt>0</asrwt>
<pdfrwt beam="1">  1        1 0.25195365E+00 0.20076180E+04</pdfrwt>
<pdfrwt beam="2">  1       -1 0.94657449E-01 0.20076180E+04</pdfrwt>
<totfact> 0.52607910E+00</totfact>
</mgrwt>
</event>
<event>
 6    1  0.9562506E-007  0.3041065E+04  0.7818608E-02  0.8232101E-01
         -2   -1    0    0    0  501 -0.00000000000E+00  0.00000000000E+00  0.14801699582E+04  0.14801699582E+04  0.00000000000E+00 0.  1.
          2   -1    0    0  501    0  0.00000000000E+00 -0.00000000000E+00 -0.15619957553E+04  0.15619957553E+04  0.00000000000E+00 0. -1.
         23    2    1    2    0    0 -0.28315272295E+03 -0.72519125142E+03 -0.13459387176E+04  0.15575582599E+04  0.91426941889E+02 0.  0.
         11    1    3    3    0    0 -0.21789761212E+03 -0.64006760347E+03 -0.11426987043E+04  0.13277523245E+04  0.00000000000E+00 0.  1.
        -11    1    3    3    0    0 -0.65255110834E+02 -0.85123647947E+02 -0.20324001325E+03  0.22980593533E+03  0.00000000000E+00 0. -1.
         22    1    1    2    0    0  0.28315272295E+03  0.72519125142E+03  0.12641129205E+04  0.14846074536E+04  0.00000000000E+00 0.  1.
<mgrwt>
<rscale>  0 0.30410651E+04</rscale>
<asrwt>0</asrwt>
<pdfrwt beam="1">  1        2 0.24030704E+00 0.30410651E+04</pdfrwt>
<pdfrwt beam="2">  1       -2 0.22771846E+00 0.30410651E+04</pdfrwt>
<totfact> 0.88302057E-01</totfact>
</mgrwt>
</event>
<event>
 6    1  0.9562506E-007  0.6146839E+03  0.7818608E-02  0.9875401E-01
         -2   -1    0    0    0  501 -0.00000000000E+00  0.00000000000E+00  0.22469098124E+03  0.22469098124E+03  0.00000000000E+00 0.  1.
          2   -1    0    0  501    0  0.00000000000E+00 -0.00000000000E+00 -0.42039546739E+03  0.42039546739E+03  0.00000000000E+00 0. -1.
         23    2    1    2    0    0 -0.13038056997E+03 -0.22022342310E+03 -0.26724386561E+03  0.37935099386E+03  0.83608873511E+02 0.  0.
         11    1    3    3    0    0 -0.87411589077E+02 -0.72512859571E+02 -0.13559926611E+03  0.17687866372E+03  0.00000000000E+00 0.  1.
        -11    1    3    3    0    0 -0.42968980893E+02 -0.14771056353E+03 -0.13164459949E+03  0.20247233014E+03  0.00000000000E+00 0. -1.
         22    1    1    2    0    0  0.13038056997E+03  0.22022342310E+03  0.71539379458E+02  0.26573545477E+03  0.00000000000E+00 0.  1.
<mgrwt>
<rscale>  0 0.61468389E+03</rscale>
<asrwt>0</asrwt>
<pdfrwt beam="1">  1        2 0.64676226E-01 0.61468389E+03</pdfrwt>
<pdfrwt beam="2">  1       -2 0.34567843E-01 0.61468389E+03</pdfrwt>
<totfact> 0.59362125E+02</totfact>
</mgrwt>
</event>
<event>
 6    1  0.9562506E-007  0.4957101E+04  0.7818608E-02  0.7835159E-01
         -2   -1    0    0    0  501 -0.00000000000E+00  0.00000000000E+00  0.17647581235E+04  0.17647581235E+04  0.00000000000E+00 0.  1.
          2   -1    0    0  501    0  0.00000000000E+00 -0.00000000000E+00 -0.34810514175E+04  0.34810514175E+04  0.00000000000E+00 0. -1.
         23    2    1    2    0    0  0.17508816760E+04 -0.14153863818E+04 -0.19532099888E+04  0.29819555762E+04  0.90136259039E+02 0.  0.
         13    1    3    3    0    0  0.42668443177E+03 -0.31494272962E+03 -0.42034187461E+03  0.67670955277E+03  0.00000000000E+00 0. -1.
        -13    1    3    3    0    0  0.13241972443E+04 -0.11004436522E+04 -0.15328681142E+04  0.23052460235E+04  0.00000000000E+00 0.  1.
         22    1    1    2    0    0 -0.17508816760E+04  0.14153863818E+04  0.23691669472E+03  0.22638539647E+04  0.00000000000E+00 0. -1.
<mgrwt>
<rscale>  0 0.49571015E+04</rscale>
<asrwt>0</asrwt>
<pdfrwt beam="1">  1        2 0.53554637E+00 0.49571015E+04</pdfrwt>
<pdfrwt beam="2">  1       -2 0.27150125E+00 0.49571015E+04</pdfrwt>
<totfact> 0.28999823E-02</totfact>
</mgrwt>
</event>
<event>
 6    1  0.9562506E-007  0.2974001E+04  0.7818608E-02  0.8251194E-01
         -2   -1    0    0    0  501 -0.00000000000E+00  0.00000000000E+00  0.55829954269E+03  0.55829954269E+03  0.00000000000E+00 0.  1.
          2   -1    0    0  501    0  0.00000000000E+00 -0.00000000000E+00 -0.39605446942E+04  0.39605446942E+04  0.00000000000E+00 0. -1.
         23    2    1    2    0    0 -0.20649052458E+03  0.74902117774E+03  0.22147394053E+03  0.81276664469E+03  0.88700907242E+02 0.  0.
         13    1    3    3    0    0 -0.18098585008E+02  0.20865494892E+03  0.69451436471E+02  0.22065345797E+03  0.00000000000E+00 0. -1.
        -13    1    3    3    0    0 -0.18839193957E+03  0.54036622882E+03  0.15202250406E+03  0.59211318672E+03  0.00000000000E+00 0.  1.
         22    1    1    2    0    0  0.20649052458E+03 -0.74902117774E+03 -0.36237190920E+04  0.37060775922E+04  0.00000000000E+00 0. -1.
<mgrwt>
<rscale>  0 0.29740009E+04</rscale>
<asrwt>0</asrwt>
<pdfrwt beam="1">  1        2 0.60931455E+00 0.29740009E+04</pdfrwt>
<pdfrwt beam="2">  1       -2 0.85892240E-01 0.29740009E+04</pdfrwt>
<totfact> 0.37132716E-01</totfact>
</mgrwt>
</event>
<event>
 6    1  0.9562506E-007  0.7945212E+03  0.7818608E-02  0.9567981E-01
         -2   -1    0    0    0  501 -0.00000000000E+00  0.00000000000E+00  0.50873741060E+03  0.50873741060E+03  0.00000000000E+00 0.  1.
          2   -1    0    0  501    0  0.00000000000E+00 -0.00000000000E+00 -0.31021110691E+03  0.31021110691E+03  0.00000000000E+00 0. -1.
         23    2    1    2    0    0  0.27738240892E+03  0.66623442794E+00  0.38691946573E+03  0.48363757503E+03  0.85189121235E+02 0.  0.
         13    1    3    3    0    0  0.11925604006E+03  0.16114622930E+02  0.23395813632E+03  0.26309331751E+03  0.00000000000E+00 0. -1.
        -13    1    3    3    0    0  0.15812636885E+03 -0.15448388502E+02  0.15296132940E+03  0.22054425752E+03  0.00000000000E+00 0.  1.
         22    1    1    2    0    0 -0.27738240892E+03 -0.66623442794E+00 -0.18839316204E+03  0.33531094248E+03  0.00000000000E+00 0. -1.
<mgrwt>
<rscale>  0 0.79452123E+03</rscale>
<asrwt>0</asrwt>
<pdfrwt beam="1">  1        2 0.47724786E-01 0.79452123E+03</pdfrwt>
<pdfrwt beam="2">  1       -2 0.78267294E-01 0.79452123E+03</pdfrwt>
<totfact> 0.15476351E+02</totfact>
</mgrwt>
</event>
<event>
 6    1  0.9562506E-007  0.3838916E+04  0.7818608E-02  0.8037855E-01
          2   -1    0    0  501    0  0.00000000000E+00  0.00000000000E+00  0.18513833009E+04  0.18513833009E+04  0.00000000000E+00 0. -1.
         -2   -1    0    0    0  501 -0.00000000000E+00 -0.00000000000E+00 -0.19900361920E+04  0.19900361920E+04  0.00000000000E+00 0.  1.
         23    2    1    2    0    0 -0.15263853458E+04 -0.26413509941E+03  0.10629985797E+04  0.18809129685E+04  0.90818720080E+02 0.  0.
         13    1    3    3    0    0 -0.52559668989E+03 -0.57484490035E+02  0.32915499804E+03  0.62281567077E+03  0.00000000000E+00 0. -1.
        -13    1    3    3    0    0 -0.10007886559E+04 -0.20665060938E+03  0.73384358170E+03  0.12580972977E+04  0.00000000000E+00 0.  1.
         22    1    1    2    0    0  0.15263853458E+04  0.26413509941E+03 -0.12016514708E+04  0.19605065243E+04  0.00000000000E+00 0.  1.
<mgrwt>
<rscale>  0 0.38389164E+04</rscale>
<asrwt>0</asrwt>
<pdfrwt beam="1">  1        2 0.28482820E+00 0.38389164E+04</pdfrwt>
<pdfrwt beam="2">  1       -2 0.30615941E+00 0.38389164E+04</pdfrwt>
<totfact> 0.18816288E-01</totfact>
</mgrwt>
</event>
<event>
 6    1  0.9562506E-007  0.3126485E+04  0.7818608E-02  0.8208507E-01
         -2   -1    0    0    0  501 -0.00000000000E+00  0.00000000000E+00  0.16315518029E+04  0.16315518029E+04  0.00000000000E+00 0.  1.
          2   -1    0    0  501    0  0.00000000000E+00 -0.00000000000E+00 -0.14977928102E+04  0.14977928102E+04  0.00000000000E+00 0. -1.
         23    2    1    2    0    0  0.11860154791E+04 -0.88113262012E+03  0.57382608975E+03  0.15876940493E+04  0.92025006784E+02 0.  0.
         13    1    3    3    0    0  0.43280494469E+03 -0.37299288533E+03  0.20295028446E+03  0.60632716467E+03  0.00000000000E+00 0.  1.
        -13    1    3    3    0    0  0.75321053444E+03 -0.50813973480E+03  0.37087580530E+03  0.98136688462E+03  0.00000000000E+00 0. -1.
         22    1    1    2    0    0 -0.11860154791E+04  0.88113262012E+03 -0.44006709709E+03  0.15416505638E+04  0.00000000000E+00 0.  1.
<mgrwt>
<rscale>  0 0.31264846E+04</rscale>
<asrwt>0</asrwt>
<pdfrwt beam="1">  1        2 0.23042966E+00 0.31264846E+04</pdfrwt>
<pdfrwt beam="2">  1       -2 0.25100797E+00 0.31264846E+04</pdfrwt>
<totfact> 0.68323556E-01</totfact>
</mgrwt>
</event>
<event>
 6    1  0.9562506E-007  0.1321850E+04  0.7818608E-02  0.9012415E-01
         -1   -1    0    0    0  501 -0.00000000000E+00  0.00000000000E+00  0.21984178864E+03  0.21984178864E+03  0.00000000000E+00 0.  1.
          1   -1    0    0  501    0  0.00000000000E+00 -0.00000000000E+00 -0.19869820026E+04  0.19869820026E+04  0.00000000000E+00 0. -1.
         23    2    1    2    0    0 -0.46459541285E+03  0.20814695950E+03 -0.19442143598E+03  0.55376045035E+03  0.98371170680E+02 0.  0.
         11    1    3    3    0    0 -0.25571320765E+03  0.12319175603E+03 -0.15946934724E+03  0.32557015531E+03  0.00000000000E+00 0. -1.
        -11    1    3    3    0    0 -0.20888220520E+03  0.84955203469E+02 -0.34952088741E+02  0.22819029504E+03  0.00000000000E+00 0.  1.
         22    1    1    2    0    0  0.46459541285E+03 -0.20814695950E+03 -0.15727187780E+04  0.16530633409E+04  0.00000000000E+00 0. -1.
<mgrwt>
<rscale>  0 0.13218497E+04</rscale>
<asrwt>0</asrwt>
<pdfrwt beam="1">  1        1 0.30568955E+00 0.13218497E+04</pdfrwt>
<pdfrwt beam="2">  1       -1 0.33821813E-01 0.13218497E+04</pdfrwt>
<totfact> 0.24641417E+01</totfact>
</mgrwt>
</event>
<event>
 6    1  0.9562506E-007  0.2239166E+04  0.7818608E-02  0.8502301E-01
         -2   -1    0    0    0  501 -0.00000000000E+00  0.00000000000E+00  0.49802546084E+03  0.49802546084E+03  0.00000000000E+00 0.  1.
          2   -1    0    0  501    0  0.00000000000E+00 -0.00000000000E+00 -0.25168724215E+04  0.25168724215E+04  0.00000000000E+00 0. -1.
         23    2    1    2    0    0  0.41735704836E+02 -0.10300932463E+04 -0.15924506270E+04  0.18992600385E+04  0.91955040235E+02 0.  0.
         13    1    3    3    0    0 -0.11419204946E+02 -0.26595397896E+03 -0.47443872759E+03  0.54401656538E+03  0.00000000000E+00 0. -1.
        -13    1    3    3    0    0  0.53154909781E+02 -0.76413926736E+03 -0.11180118994E+04  0.13552434732E+04  0.00000000000E+00 0.  1.
         22    1    1    2    0    0 -0.41735704836E+02  0.10300932463E+04 -0.42639633369E+03  0.11156378438E+04  0.00000000000E+00 0. -1.
<mgrwt>
<rscale>  0 0.22391664E+04</rscale>
<asrwt>0</asrwt>
<pdfrwt beam="1">  1        2 0.38721114E+00 0.22391664E+04</pdfrwt>
<pdfrwt beam="2">  1       -2 0.76619301E-01 0.22391664E+04</pdfrwt>
<totfact> 0.47220937E+00</totfact>
</mgrwt>
</event>
<event>
 6    1  0.9562506E-007  0.1385325E+04  0.7818608E-02  0.8964510E-01
          2   -1    0    0  501    0  0.00000000000E+00  0.00000000000E+00  0.93245062800E+03  0.93245062800E+03  0.00000000000E+00 0. -1.
         -2   -1    0    0    0  501 -0.00000000000E+00 -0.00000000000E+00 -0.51453820760E+03  0.51453820760E+03  0.00000000000E+00 0.  1.
         23    2    1    2    0    0  0.50362568026E+02  0.12191832819E+03  0.91694576998E+03  0.93081565633E+03  0.90707077871E+02 0.  0.
         13    1    3    3    0    0 -0.15115146197E+02  0.51372697285E+02  0.50225141744E+03  0.50509811720E+03  0.00000000000E+00 0. -1.
        -13    1    3    3    0    0  0.65477714223E+02  0.70545630908E+02  0.41469435254E+03  0.42571753914E+03  0.00000000000E+00 0.  1.
         22    1    1    2    0    0 -0.50362568026E+02 -0.12191832819E+03 -0.49903334958E+03  0.51617317927E+03  0.00000000000E+00 0.  1.
<mgrwt>
<rscale>  0 0.13853252E+04</rscale>
<asrwt>0</asrwt>
<pdfrwt beam="1">  1        2 0.14345394E+00 0.13853252E+04</pdfrwt>
<pdfrwt beam="2">  1       -2 0.79159724E-01 0.13853252E+04</pdfrwt>
<totfact> 0.38472325E+01</totfact>
</mgrwt>
</event>
<event>
 6    1  0.9562506E-007  0.1003449E+04  0.7818608E-02  0.9304770E-01
         -2   -1    0    0    0  501 -0.00000000000E+00  0.00000000000E+00  0.14190492003E+03  0.14190492003E+03  0.00000000000E+00 0.  1.
          2   -1    0    0  501    0  0.00000000000E+00 -0.00000000000E+00 -0.17739175974E+04  0.17739175974E+04  0.00000000000E+00 0. -1.
         23    2    1    2    0    0  0.19176713628E+03  0.23425570203E+03 -0.15766716232E+04  0.16080677437E+04  0.91313155789E+02 0.  0.
         11    1    3    3    0    0  0.15637888571E+03  0.13539895655E+03 -0.11647086460E+04  0.11829342600E+04  0.00000000000E+00 0.  1.
        -11    1    3    3    0    0  0.35388250566E+02  0.98856745479E+02 -0.41196297715E+03  0.42513348368E+03  0.00000000000E+00 0. -1.
         22    1    1    2    0    0 -0.19176713628E+03 -0.23425570203E+03 -0.55341054192E+02  0.30775477375E+03  0.00000000000E+00 0.  1.
<mgrwt>
<rscale>  0 0.10034493E+04</rscale>
<asrwt>0</asrwt>
<pdfrwt beam="1">  1        2 0.27291043E+00 0.10034493E+04</pdfrwt>
<pdfrwt beam="2">  1       -2 0.21831524E-01 0.10034493E+04</pdfrwt>
<totfact> 0.16318293E+02</totfact>
</mgrwt>
</event>
<event>
 6    1  0.9562506E-007  0.4039520E+04  0.7818608E-02  0.7996621E-01
          1   -1    0    0  501    0  0.00000000000E+00  0.00000000000E+00  0.16436500657E+04  0.16436500657E+04  0.00000000000E+00 0. -1.
         -1   -1    0    0    0  501 -0.00000000000E+00 -0.00000000000E+00 -0.24819338786E+04  0.24819338786E+04  0.00000000000E+00 0.  1.
         23    2    1    2    0    0 -0.36992830173E+03 -0.15303985852E+04 -0.17097915640E+04  0.23260027324E+04  0.89077163425E+02 0.  0.
         11    1    3    3    0    0 -0.97281213089E+02 -0.54523668458E+03 -0.63970091626E+03  0.84614652330E+03  0.00000000000E+00 0. -1.
        -11    1    3    3    0    0 -0.27264708864E+03 -0.98516190062E+03 -0.10700906477E+04  0.14798562091E+04  0.00000000000E+00 0.  1.
         22    1    1    2    0    0  0.36992830173E+03  0.15303985852E+04  0.87150775102E+03  0.17995812119E+04  0.00000000000E+00 0. -1.
<mgrwt>
<rscale>  0 0.40395202E+04</rscale>
<asrwt>0</asrwt>
<pdfrwt beam="1">  1        1 0.25286924E+00 0.40395202E+04</pdfrwt>
<pdfrwt beam="2">  1       -1 0.38183598E+00 0.40395202E+04</pdfrwt>
<totfact> 0.38610456E-02</totfact>
</mgrwt>
</event>
<event>
 6    1  0.9562506E-007  0.2494288E+04  0.7818608E-02  0.8405023E-01
          2   -1    0    0  501    0  0.00000000000E+00  0.00000000000E+00  0.85182725343E+03  0.85182725343E+03  0.00000000000E+00 0. -1.
         -2   -1    0    0    0  501 -0.00000000000E+00 -0.00000000000E+00 -0.18259193759E+04  0.18259193759E+04  0.00000000000E+00 0.  1.
         23    2    1    2    0    0 -0.50732983614E+03  0.25507749343E+03  0.70252893872E+03  0.90757537403E+03  0.87738586201E+02 0.  0.
         11    1    3    3    0    0 -0.40081223656E+03  0.23086007330E+03  0.53089174847E+03  0.70412560741E+03  0.00000000000E+00 0. -1.
        -11    1    3    3    0    0 -0.10651759958E+03  0.24217420126E+02  0.17163719025E+03  0.20344976662E+03  0.00000000000E+00 0.  1.
         22    1    1    2    0    0  0.50732983614E+03 -0.25507749343E+03 -0.16766210612E+04  0.17701712553E+04  0.00000000000E+00 0.  1.
<mgrwt>
<rscale>  0 0.24942878E+04</rscale>
<asrwt>0</asrwt>
<pdfrwt beam="1">  1        2 0.13105035E+00 0.24942878E+04</pdfrwt>
<pdfrwt beam="2">  1       -2 0.28091067E+00 0.24942878E+04</pdfrwt>
<totfact> 0.11740700E+00</totfact>
</mgrwt>
</event>
<event>
 6    1  0.9562506E-007  0.8512231E+03  0.7818608E-02  0.9488697E-01
          2   -1    0    0  501    0  0.00000000000E+00  0.00000000000E+00  0.13574195988E+04  0.13574195988E+04  0.00000000000E+00 0. -1.
         -2   -1    0    0    0  501 -0.00000000000E+00 -0.00000000000E+00 -0.13344819481E+03  0.13344819481E+03  0.00000000000E+00 0.  1.
         23    2    1    2    0    0 -0.37387527884E+03  0.19243589266E+03  0.62844485304E+03  0.76185053058E+03  0.93053751769E+02 0.  0.
         11    1    3    3    0    0 -0.36037749558E+03  0.19241417257E+03  0.56642241242E+03  0.69837633294E+03  0.00000000000E+00 0.  1.
        -11    1    3    3    0    0 -0.13497783259E+02  0.21720091611E-01  0.62022440621E+02  0.63474197634E+02  0.00000000000E+00 0. -1.
         22    1    1    2    0    0  0.37387527884E+03 -0.19243589266E+03  0.59552655096E+03  0.72901726304E+03  0.00000000000E+00 0.  1.
<mgrwt>
<rscale>  0 0.85122311E+03</rscale>
<asrwt>0</asrwt>
<pdfrwt beam="1">  1        2 0.20883378E+00 0.85122311E+03</pdfrwt>
<pdfrwt beam="2">  1       -2 0.20530492E-01 0.85122311E+03</pdfrwt>
<totfact> 0.31364652E+02</totfact>
</mgrwt>
</event>
<event>
 6    1  0.9562506E-007  0.1314636E+04  0.7818608E-02  0.9018039E-01
          1   -1    0    0  501    0  0.00000000000E+00  0.00000000000E+00  0.19632175168E+04  0.19632175168E+04  0.00000000000E+00 0. -1.
         -1   -1    0    0    0  501 -0.00000000000E+00 -0.00000000000E+00 -0.22008093567E+03  0.22008093567E+03  0.00000000000E+00 0.  1.
         23    2    1    2    0    0  0.31249435931E+03 -0.20473103585E+03  0.17678303365E+04  0.18088958574E+04  0.85513757039E+02 0.  0.
         11    1    3    3    0    0  0.31705471251E+02 -0.55890945863E+02  0.24749141784E+03  0.25569715806E+03  0.00000000000E+00 0.  1.
        -11    1    3    3    0    0  0.28078888806E+03 -0.14884008999E+03  0.15203389187E+04  0.15531986993E+04  0.00000000000E+00 0. -1.
         22    1    1    2    0    0 -0.31249435931E+03  0.20473103585E+03 -0.24693755353E+02  0.37440259507E+03  0.00000000000E+00 0.  1.
<mgrwt>
<rscale>  0 0.13146357E+04</rscale>
<asrwt>0</asrwt>
<pdfrwt beam="1">  1        1 0.30203345E+00 0.13146357E+04</pdfrwt>
<pdfrwt beam="2">  1       -1 0.33858607E-01 0.13146357E+04</pdfrwt>
<totfact> 0.25536085E+01</totfact>
</mgrwt>
</event>
<event>
 6    1  0.9562506E-007  0.2274709E+04  0.7818608E-02  0.8487960E-01
          2   -1    0    0  501    0  0.00000000000E+00  0.00000000000E+00  0.21376495464E+04  0.21376495464E+04  0.00000000000E+00 0. -1.
         -2   -1    0    0    0  501 -0.00000000000E+00 -0.00000000000E+00 -0.60513926827E+03  0.60513926827E+03  0.00000000000E+00 0.  1.
         23    2    1    2    0    0 -0.17466082920E+03 -0.10449747368E+04  0.27526598289E+03  0.10986653936E+04  0.93891853044E+02 0.  0.
         13    1    3    3    0    0 -0.13900806983E+03 -0.57426699451E+03  0.17301303806E+03  0.61566170565E+03  0.00000000000E+00 0. -1.
        -13    1    3    3    0    0 -0.35652759372E+02 -0.47070774225E+03  0.10225294483E+03  0.48300368797E+03  0.00000000000E+00 0.  1.
         22    1    1    2    0    0  0.17466082920E+03  0.10449747368E+04  0.12572442952E+04  0.16441234210E+04  0.00000000000E+00 0.  1.
<mgrwt>
<rscale>  0 0.22747094E+04</rscale>
<asrwt>0</asrwt>
<pdfrwt beam="1">  1        2 0.32886916E+00 0.22747094E+04</pdfrwt>
<pdfrwt beam="2">  1       -2 0.93098350E-01 0.22747094E+04</pdfrwt>
<totfact> 0.49678827E+00</totfact>
</mgrwt>
</event>
<event>
 6    1  0.9562506E-007  0.9630354E+03  0.7818608E-02  0.9350043E-01
          2   -1    0    0  501    0  0.00000000000E+00  0.00000000000E+00  0.32886984834E+04  0.32886984834E+04  0.00000000000E+00 0. -1.
         -2   -1    0    0    0  501 -0.00000000000E+00 -0.00000000000E+00 -0.70501836590E+02  0.70501836590E+02  0.00000000000E+00 0.  1.
         23    2    1    2    0    0 -0.41634302235E+03 -0.66638620773E+02  0.84261503857E+03  0.94649018501E+03  0.89785015754E+02 0.  0.
         11    1    3    3    0    0 -0.23247965325E+03  0.30550146572E+01  0.50120500905E+03  0.55250573154E+03  0.00000000000E+00 0. -1.
        -11    1    3    3    0    0 -0.18386336910E+03 -0.69693635430E+02  0.34141002952E+03  0.39398445347E+03  0.00000000000E+00 0.  1.
         22    1    1    2    0    0  0.41634302235E+03  0.66638620773E+02  0.23755816083E+04  0.24127101350E+04  0.00000000000E+00 0. -1.
<mgrwt>
<rscale>  0 0.96303537E+03</rscale>
<asrwt>0</asrwt>
<pdfrwt beam="1">  1        2 0.50595349E+00 0.96303537E+03</pdfrwt>
<pdfrwt beam="2">  1       -2 0.10846439E-01 0.96303537E+03</pdfrwt>
<totfact> 0.70760918E+01</totfact>
</mgrwt>
</event>
<event>
 6    1  0.9562506E-007  0.2511372E+04  0.7818608E-02  0.8398945E-01
          1   -1    0    0  501    0  0.00000000000E+00  0.00000000000E+00  0.97818554351E+03  0.97818554351E+03  0.00000000000E+00 0. -1.
         -1   -1    0    0    0  501 -0.00000000000E+00 -0.00000000000E+00 -0.16119105196E+04  0.16119105196E+04  0.00000000000E+00 0.  1.
         23    2    1    2    0    0 -0.35810643241E+03  0.66533578470E+02 -0.15548938527E+04  0.15995310560E+04  0.90209599852E+02 0.  0.
         13    1    3    3    0    0 -0.20673809822E+03  0.12999645687E+02 -0.71378163831E+03  0.74323203593E+03  0.00000000000E+00 0.  1.
        -13    1    3    3    0    0 -0.15136833419E+03  0.53533932783E+02 -0.84111221441E+03  0.85629902007E+03  0.00000000000E+00 0. -1.
         22    1    1    2    0    0  0.35810643241E+03 -0.66533578470E+02  0.92116887664E+03  0.99056500710E+03  0.00000000000E+00 0. -1.
<mgrwt>
<rscale>  0 0.25113722E+04</rscale>
<asrwt>0</asrwt>
<pdfrwt beam="1">  1        1 0.15049008E+00 0.25113722E+04</pdfrwt>
<pdfrwt beam="2">  1       -1 0.24798623E+00 0.25113722E+04</pdfrwt>
<totfact> 0.10039490E+00</totfact>
</mgrwt>
</event>
<event>
 6    1  0.9562506E-007  0.1203390E+04  0.7818608E-02  0.9109895E-01
         -1   -1    0    0    0  501 -0.00000000000E+00  0.00000000000E+00  0.10889635338E+04  0.10889635338E+04  0.00000000000E+00 0.  1.
          1   -1    0    0  501    0  0.00000000000E+00 -0.00000000000E+00 -0.33245986942E+03  0.33245986942E+03  0.00000000000E+00 0. -1.
         23    2    1    2    0    0  0.31480882142E+03 -0.17994862861E+03 -0.18150349662E+03  0.41576762857E+03  0.91831904596E+02 0.  0.
         13    1    3    3    0    0  0.23583702589E+03 -0.17433182979E+03 -0.12667101890E+03  0.31946241828E+03  0.00000000000E+00 0.  1.
        -13    1    3    3    0    0  0.78971795525E+02 -0.56167988148E+01 -0.54832477716E+02  0.96305210294E+02  0.00000000000E+00 0. -1.
         22    1    1    2    0    0 -0.31480882142E+03  0.17994862861E+03  0.93800716097E+03  0.10056557746E+04  0.00000000000E+00 0.  1.
<mgrwt>
<rscale>  0 0.12033897E+04</rscale>
<asrwt>0</asrwt>
<pdfrwt beam="1">  1        1 0.51147673E-01 0.12033897E+04</pdfrwt>
<pdfrwt beam="2">  1       -1 0.16753285E+00 0.12033897E+04</pdfrwt>
<totfact> 0.19457693E+01</totfact>
</mgrwt>
</event>
<event>
 6    1  0.9562506E-007  0.2961689E+04  0.7818608E-02  0.8254756E-01
         -2   -1    0    0    0  501 -0.00000000000E+00  0.00000000000E+00  0.83239683112E+03  0.83239683112E+03  0.00000000000E+00 0.  1.
          2   -1    0    0  501    0  0.00000000000E+00 -0.00000000000E+00 -0.26344419188E+04  0.26344419188E+04  0.00000000000E+00 0. -1.
         23    2    1    2    0    0 -0.20775915185E+03 -0.59463087701E+03  0.66497139976E+03  0.92068084156E+03  0.93362221772E+02 0.  0.
         13    1    3    3    0    0 -0.18560953946E+03 -0.40119718499E+03  0.46429524563E+03  0.64107734128E+03  0.00000000000E+00 0. -1.
        -13    1    3    3    0    0 -0.22149612389E+02 -0.19343369202E+03  0.20067615412E+03  0.27960350028E+03  0.00000000000E+00 0.  1.
         22    1    1    2    0    0  0.20775915185E+03  0.59463087701E+03 -0.24670164874E+04  0.25461579083E+04  0.00000000000E+00 0. -1.
<mgrwt>
<rscale>  0 0.29616895E+04</rscale>
<asrwt>0</asrwt>
<pdfrwt beam="1">  1        2 0.40529876E+00 0.29616895E+04</pdfrwt>
<pdfrwt beam="2">  1       -2 0.12806105E+00 0.29616895E+04</pdfrwt>
<totfact> 0.11247573E+00</totfact>
</mgrwt>
</event>
<event>
 6    1  0.9562506E-007  0.2179804E+04  0.7818608E-02  0.8526882E-01
          2   -1    0    0  501    0  0.00000000000E+00  0.00000000000E+00  0.10203288172E+04  0.10203288172E+04  0.00000000000E+00 0. -1.
         -2   -1    0    0    0  501 -0.00000000000E+00 -0.00000000000E+00 -0.11642189640E+04  0.11642189640E+04  0.00000000000E+00 0.  1.
         23    2    1    2    0    0  0.89193380514E+03  0.35076989783E+03 -0.58820416964E+03  0.11281385873E+04  0.90150391327E+02 0.  0.
         13    1    3    3    0    0  0.75463753625E+02  0.48532109425E+01 -0.38620977938E+02  0.84911198935E+02  0.00000000000E+00 0. -1.
        -13    1    3    3    0    0  0.81647005152E+03  0.34591668689E+03 -0.54958319170E+03  0.10432273884E+04  0.00000000000E+00 0.  1.
         22    1    1    2    0    0 -0.89193380514E+03 -0.35076989783E+03  0.44431402283E+03  0.10564091939E+04  0.00000000000E+00 0.  1.
<mgrwt>
<rscale>  0 0.21798038E+04</rscale>
<asrwt>0</asrwt>
<pdfrwt beam="1">  1        2 0.15697366E+00 0.21798038E+04</pdfrwt>
<pdfrwt beam="2">  1       -2 0.17911061E+00 0.21798038E+04</pdfrwt>
<totfact> 0.41153565E+00</totfact>
</mgrwt>
</event>
<event>
 6    1  0.9562506E-007  0.3979103E+04  0.7818608E-02  0.8008776E-01
          2   -1    0    0  501    0  0.00000000000E+00  0.00000000000E+00  0.21148034178E+04  0.21148034178E+04  0.00000000000E+00 0. -1.
         -2   -1    0    0    0  501 -0.00000000000E+00 -0.00000000000E+00 -0.18717173970E+04  0.18717173970E+04  0.00000000000E+00 0.  1.
         23    2    1    2    0    0  0.11952750174E+04 -0.12800980771E+04 -0.82195974123E+03  0.19367266961E+04  0.89213368551E+02 0.  0.
         11    1    3    3    0    0  0.84631934613E+03 -0.93266865247E+03 -0.55092419774E+03  0.13746434893E+04  0.00000000000E+00 0. -1.
        -11    1    3    3    0    0  0.34895567128E+03 -0.34742942458E+03 -0.27103554349E+03  0.56208320685E+03  0.00000000000E+00 0.  1.
         22    1    1    2    0    0 -0.11952750174E+04  0.12800980771E+04  0.10650457620E+04  0.20497941188E+04  0.00000000000E+00 0.  1.
<mgrwt>
<rscale>  0 0.39791026E+04</rscale>
<asrwt>0</asrwt>
<pdfrwt beam="1">  1        2 0.32535437E+00 0.39791026E+04</pdfrwt>
<pdfrwt beam="2">  1       -2 0.28795652E+00 0.39791026E+04</pdfrwt>
<totfact> 0.17155437E-01</totfact>
</mgrwt>
</event>
<event>
 6    1  0.9562506E-007  0.4749763E+04  0.7818608E-02  0.7868312E-01
          2   -1    0    0  501    0  0.00000000000E+00  0.00000000000E+00  0.36926709635E+04  0.36926709635E+04  0.00000000000E+00 0. -1.
         -2   -1    0    0    0  501 -0.00000000000E+00 -0.00000000000E+00 -0.15273664628E+04  0.15273664628E+04  0.00000000000E+00 0.  1.
         23    2    1    2    0    0  0.22172289525E+04 -0.66107963438E+03  0.16673767225E+04  0.28533810121E+04  0.92236407606E+02 0.  0.
         11    1    3    3    0    0  0.18828965860E+03 -0.30623567507E+02  0.12934650573E+03  0.23048062167E+03  0.00000000000E+00 0. -1.
        -11    1    3    3    0    0  0.20289392939E+04 -0.63045606688E+03  0.15380302168E+04  0.26229003904E+04  0.00000000000E+00 0.  1.
         22    1    1    2    0    0 -0.22172289525E+04  0.66107963438E+03  0.49792777825E+03  0.23666564142E+04  0.00000000000E+00 0.  1.
<mgrwt>
<rscale>  0 0.47497629E+04</rscale>
<asrwt>0</asrwt>
<pdfrwt beam="1">  1        2 0.56810322E+00 0.47497629E+04</pdfrwt>
<pdfrwt beam="2">  1       -2 0.23497946E+00 0.47497629E+04</pdfrwt>
<totfact> 0.34835703E-02</totfact>
</mgrwt>
</event>
<event>
 6    1  0.9562506E-007  0.3920616E+04  0.7818608E-02  0.8020755E-01
         -2   -1    0    0    0  501 -0.00000000000E+00  0.00000000000E+00  0.10921159508E+04  0.10921159508E+04  0.00000000000E+00 0.  1.
          2   -1    0    0  501    0  0.00000000000E+00 -0.00000000000E+00 -0.35186809359E+04  0.35186809359E+04  0.00000000000E+00 0. -1.
         23    2    1    2    0    0  0.15261150213E+04  0.12223942535E+04 -0.10675841432E+04  0.22295989323E+04  0.90004038976E+02 0.  0.
         11    1    3    3    0    0  0.47747649526E+03  0.33100516261E+03 -0.32696694849E+03  0.66667503823E+03  0.00000000000E+00 0.  1.
        -11    1    3    3    0    0  0.10486385260E+04  0.89138909087E+03 -0.74061719468E+03  0.15629238941E+04  0.00000000000E+00 0. -1.
         22    1    1    2    0    0 -0.15261150213E+04 -0.12223942535E+04 -0.13589808420E+04  0.23811979544E+04  0.00000000000E+00 0.  1.
<mgrwt>
<rscale>  0 0.39206161E+04</rscale>
<asrwt>0</asrwt>
<pdfrwt beam="1">  1        2 0.54133553E+00 0.39206161E+04</pdfrwt>
<pdfrwt beam="2">  1       -2 0.16801784E+00 0.39206161E+04</pdfrwt>
<totfact> 0.13764274E-01</totfact>
</mgrwt>
</event>
<event>
 6    1  0.1432965E-006  0.2419854E+04  0.7818608E-02  0.8432108E-01
         -2   -1    0    0    0  501 -0.00000000000E+00  0.00000000000E+00  0.78127198629E+03  0.78127198629E+03  0.00000000000E+00 0.  1.
          2   -1    0    0  501    0  0.00000000000E+00 -0.00000000000E+00 -0.18737687375E+04  0.18737687375E+04  0.00000000000E+00 0. -1.
         23    2    1    2    0    0 -0.14841360923E+03  0.38323454175E+03  0.69965169798E+03  0.81637507246E+03  0.89779992499E+02 0.  0.
         13    1    3    3    0    0 -0.46321410414E+02  0.22443297728E+03  0.33713986783E+03  0.40765073879E+03  0.00000000000E+00 0. -1.
        -13    1    3    3    0    0 -0.10209219881E+03  0.15880156446E+03  0.36251183015E+03  0.40872433367E+03  0.00000000000E+00 0.  1.
         22    1    1    2    0    0  0.14841360923E+03 -0.38323454175E+03 -0.17921484492E+04  0.18386656513E+04  0.00000000000E+00 0. -1.
<mgrwt>
<rscale>  0 0.24198537E+04</rscale>
<asrwt>0</asrwt>
<pdfrwt beam="1">  1        2 0.28827211E+00 0.24198537E+04</pdfrwt>
<pdfrwt beam="2">  1       -2 0.12019569E+00 0.24198537E+04</pdfrwt>
<totfact> 0.37284233E+00</totfact>
</mgrwt>
</event>
<event>
 6    1  0.9562506E-007  0.1460836E+04  0.7818608E-02  0.8910923E-01
         -2   -1    0    0    0  501 -0.00000000000E+00  0.00000000000E+00  0.35859713918E+03  0.35859713918E+03  0.00000000000E+00 0.  1.
          2   -1    0    0  501    0  0.00000000000E+00 -0.00000000000E+00 -0.14877704765E+04  0.14877704765E+04  0.00000000000E+00 0. -1.
         23    2    1    2    0    0  0.62997772437E+03  0.18930256693E+03 -0.17543552127E+03  0.68778088314E+03  0.97762600453E+02 0.  0.
         13    1    3    3    0    0  0.13870705825E+03  0.44239819631E+00 -0.36726197677E+02  0.14348748141E+03  0.00000000000E+00 0.  1.
        -13    1    3    3    0    0  0.49127066611E+03  0.18886016873E+03 -0.13870932359E+03  0.54429340173E+03  0.00000000000E+00 0. -1.
         22    1    1    2    0    0 -0.62997772437E+03 -0.18930256693E+03 -0.95373781600E+03  0.11585867325E+04  0.00000000000E+00 0. -1.
<mgrwt>
<rscale>  0 0.14608357E+04</rscale>
<asrwt>0</asrwt>
<pdfrwt beam="1">  1        2 0.22888777E+00 0.14608357E+04</pdfrwt>
<pdfrwt beam="2">  1       -2 0.55168791E-01 0.14608357E+04</pdfrwt>
<totfact> 0.38601935E+01</totfact>
</mgrwt>
</event>
<event>
 6    1  0.9562506E-007  0.1156523E+04  0.7818608E-02  0.9151787E-01
          1   -1    0    0  501    0  0.00000000000E+00  0.00000000000E+00  0.38206767815E+03  0.38206767815E+03  0.00000000000E+00 0. -1.
         -1   -1    0    0    0  501 -0.00000000000E+00 -0.00000000000E+00 -0.87520166707E+03  0.87520166707E+03  0.00000000000E+00 0.  1.
         23    2    1    2    0    0 -0.46644456206E+03 -0.29880596636E+03 -0.82235910094E+02  0.56756450531E+03  0.92256098775E+02 0.  0.
         13    1    3    3    0    0 -0.33517488576E+03 -0.16668454981E+03 -0.70772355125E+02  0.38096544389E+03  0.00000000000E+00 0. -1.
        -13    1    3    3    0    0 -0.13126967631E+03 -0.13212141655E+03 -0.11463554969E+02  0.18659906142E+03  0.00000000000E+00 0.  1.
         22    1    1    2    0    0  0.46644456206E+03  0.29880596636E+03 -0.41089807883E+03  0.68970483991E+03  0.00000000000E+00 0.  1.
<mgrwt>
<rscale>  0 0.11565228E+04</rscale>
<asrwt>0</asrwt>
<pdfrwt beam="1">  1        1 0.58779643E-01 0.11565228E+04</pdfrwt>
<pdfrwt beam="2">  1       -1 0.13464641E+00 0.11565228E+04</pdfrwt>
<totfact> 0.29366956E+01</totfact>
</mgrwt>
</event>
<event>
 6    1  0.9562506E-007  0.3515585E+04  0.7818608E-02  0.8110106E-01
          2   -1    0    0  501    0  0.00000000000E+00  0.00000000000E+00  0.20708942906E+04  0.20708942906E+04  0.00000000000E+00 0. -1.
         -2   -1    0    0    0  501 -0.00000000000E+00 -0.00000000000E+00 -0.14920287910E+04  0.14920287910E+04  0.00000000000E+00 0.  1.
         23    2    1    2    0    0 -0.15010190371E+04  0.13538079414E+03 -0.62516712482E+03  0.16339127991E+04  0.86319128877E+02 0.  0.
         13    1    3    3    0    0 -0.66751025070E+03  0.37296971114E+02 -0.23797693366E+03  0.70964358646E+03  0.00000000000E+00 0. -1.
        -13    1    3    3    0    0 -0.83350878640E+03  0.98083823027E+02 -0.38719019116E+03  0.92426921266E+03  0.00000000000E+00 0.  1.
         22    1    1    2    0    0  0.15010190371E+04 -0.13538079414E+03  0.12040326244E+04  0.19290102824E+04  0.00000000000E+00 0. -1.
<mgrwt>
<rscale>  0 0.35155847E+04</rscale>
<asrwt>0</asrwt>
<pdfrwt beam="1">  1        2 0.31859912E+00 0.35155847E+04</pdfrwt>
<pdfrwt beam="2">  1       -2 0.22954289E+00 0.35155847E+04</pdfrwt>
<totfact> 0.43087799E-01</totfact>
</mgrwt>
</event>
<event>
 6    1  0.9562506E-007  0.2298342E+04  0.7818608E-02  0.8478575E-01
          1   -1    0    0  501    0  0.00000000000E+00  0.00000000000E+00  0.36989695716E+04  0.36989695716E+04  0.00000000000E+00 0. -1.
         -1   -1    0    0    0  501 -0.00000000000E+00 -0.00000000000E+00 -0.35701664250E+03  0.35701664250E+03  0.00000000000E+00 0.  1.
         23    2    1    2    0    0 -0.32245123831E+03  0.10794058553E+04  0.20576462840E+04  0.23476140766E+04  0.91059436937E+02 0.  0.
         13    1    3    3    0    0 -0.28847089492E+03  0.84132780522E+03  0.16420304778E+04  0.18674346101E+04  0.00000000000E+00 0.  1.
        -13    1    3    3    0    0 -0.33980343393E+02  0.23807805007E+03  0.41561580617E+03  0.48017946645E+03  0.00000000000E+00 0. -1.
         22    1    1    2    0    0  0.32245123831E+03 -0.10794058553E+04  0.12843066450E+04  0.17083721375E+04  0.00000000000E+00 0.  1.
<mgrwt>
<rscale>  0 0.22983417E+04</rscale>
<asrwt>0</asrwt>
<pdfrwt beam="1">  1        1 0.56907221E+00 0.22983417E+04</pdfrwt>
<pdfrwt beam="2">  1       -1 0.54925640E-01 0.22983417E+04</pdfrwt>
<totfact> 0.52502536E-01</totfact>
</mgrwt>
</event>
<event>
 6    1  0.9562506E-007  0.5255363E+04  0.7818608E-02  0.7790279E-01
          2   -1    0    0  501    0  0.00000000000E+00  0.00000000000E+00  0.36194127645E+04  0.36194127645E+04  0.00000000000E+00 0. -1.
         -2   -1    0    0    0  501 -0.00000000000E+00 -0.00000000000E+00 -0.19076876944E+04  0.19076876944E+04  0.00000000000E+00 0.  1.
         23    2    1    2    0    0 -0.59258182363E+03 -0.80165646692E+03  0.34121588041E+04  0.35559887947E+04  0.91773063245E+02 0.  0.
         11    1    3    3    0    0 -0.29642199648E+03 -0.34711874304E+03  0.16756144046E+04  0.17366752876E+04  0.00000000000E+00 0. -1.
        -11    1    3    3    0    0 -0.29615982715E+03 -0.45453772388E+03  0.17365443996E+04  0.18193135071E+04  0.00000000000E+00 0.  1.
         22    1    1    2    0    0  0.59258182363E+03  0.80165646692E+03 -0.17004337340E+04  0.19711116641E+04  0.00000000000E+00 0.  1.
<mgrwt>
<rscale>  0 0.52553627E+04</rscale>
<asrwt>0</asrwt>
<pdfrwt beam="1">  1        2 0.55683273E+00 0.52553627E+04</pdfrwt>
<pdfrwt beam="2">  1       -2 0.29349042E+00 0.52553627E+04</pdfrwt>
<totfact> 0.16571998E-02</totfact>
</mgrwt>
</event>
<event>
 6    1  0.9562506E-007  0.4761373E+03  0.7818608E-02  0.1020202E+00
         -2   -1    0    0    0  501 -0.00000000000E+00  0.00000000000E+00  0.91771470935E+02  0.91771470935E+02  0.00000000000E+00 0.  1.
          2   -1    0    0  501    0  0.00000000000E+00 -0.00000000000E+00 -0.61758504112E+03  0.61758504112E+03  0.00000000000E+00 0. -1.
         23    2    1    2    0    0  0.11802275916E+03 -0.19628055194E+03 -0.25094024751E+03  0.35157058407E+03  0.90418145382E+02 0.  0.
         11    1    3    3    0    0  0.60677796356E+01 -0.59079020935E+02 -0.11091980131E+03  0.12581872272E+03  0.00000000000E+00 0.  1.
        -11    1    3    3    0    0  0.11195497952E+03 -0.13720153100E+03 -0.14002044621E+03  0.22575186135E+03  0.00000000000E+00 0. -1.
         22    1    1    2    0    0 -0.11802275916E+03  0.19628055194E+03 -0.27487332267E+03  0.35778592798E+03  0.00000000000E+00 0.  1.
<mgrwt>
<rscale>  0 0.47613732E+03</rscale>
<asrwt>0</asrwt>
<pdfrwt beam="1">  1        2 0.95013083E-01 0.47613732E+03</pdfrwt>
<pdfrwt beam="2">  1       -2 0.14118688E-01 0.47613732E+03</pdfrwt>
<totfact> 0.18548689E+03</totfact>
</mgrwt>
</event>
<event>
 6    1  0.9562506E-007  0.1559673E+04  0.7818608E-02  0.8845713E-01
          2   -1    0    0  501    0  0.00000000000E+00  0.00000000000E+00  0.90462939951E+03  0.90462939951E+03  0.00000000000E+00 0. -1.
         -2   -1    0    0    0  501 -0.00000000000E+00 -0.00000000000E+00 -0.67225854846E+03  0.67225854846E+03  0.00000000000E+00 0.  1.
         23    2    1    2    0    0 -0.37059647856E+02 -0.62682764321E+03  0.57939471331E+03  0.85945371909E+03  0.93145851475E+02 0.  0.
         11    1    3    3    0    0 -0.27929781263E+02 -0.29098462565E+03  0.33119636768E+03  0.44175010924E+03  0.00000000000E+00 0.  1.
        -11    1    3    3    0    0 -0.91298665932E+01 -0.33584301756E+03  0.24819834563E+03  0.41770360985E+03  0.00000000000E+00 0. -1.
         22    1    1    2    0    0  0.37059647856E+02  0.62682764321E+03 -0.34702386226E+03  0.71743422889E+03  0.00000000000E+00 0.  1.
<mgrwt>
<rscale>  0 0.15596728E+04</rscale>
<asrwt>0</asrwt>
<pdfrwt beam="1">  1        2 0.13917375E+00 0.15596728E+04</pdfrwt>
<pdfrwt beam="2">  1       -2 0.10342439E+00 0.15596728E+04</pdfrwt>
<totfact> 0.21347037E+01</totfact>
</mgrwt>
</event>
<event>
 6    1  0.9562506E-007  0.2033276E+04  0.7818608E-02  0.8591219E-01
          2   -1    0    0  501    0  0.00000000000E+00  0.00000000000E+00  0.13870821225E+04  0.13870821225E+04  0.00000000000E+00 0. -1.
         -2   -1    0    0    0  501 -0.00000000000E+00 -0.00000000000E+00 -0.74512741714E+03  0.74512741714E+03  0.00000000000E+00 0.  1.
         23    2    1    2    0    0  0.28585580549E+03 -0.48025057163E+03  0.12098950147E+04  0.13353969217E+04  0.84171483441E+02 0.  0.
         13    1    3    3    0    0  0.12796568148E+03 -0.21945773056E+03  0.65004160727E+03  0.69791905141E+03  0.00000000000E+00 0.  1.
        -13    1    3    3    0    0  0.15789012401E+03 -0.26079284107E+03  0.55985340748E+03  0.63747787027E+03  0.00000000000E+00 0. -1.
         22    1    1    2    0    0 -0.28585580549E+03  0.48025057163E+03 -0.56794030940E+03  0.79681261795E+03  0.00000000000E+00 0.  1.
<mgrwt>
<rscale>  0 0.20332761E+04</rscale>
<asrwt>0</asrwt>
<pdfrwt beam="1">  1        2 0.21339725E+00 0.20332761E+04</pdfrwt>
<pdfrwt beam="2">  1       -2 0.11463499E+00 0.20332761E+04</pdfrwt>
<totfact> 0.81061504E+00</totfact>
</mgrwt>
</event>
<event>
 6    1  0.9562506E-007  0.1755775E+04  0.7818608E-02  0.8730178E-01
         -1   -1    0    0    0  501 -0.00000000000E+00  0.00000000000E+00  0.39631868898E+03  0.39631868898E+03  0.00000000000E+00 0.  1.
          1   -1    0    0  501    0  0.00000000000E+00 -0.00000000000E+00 -0.19446139790E+04  0.19446139790E+04  0.00000000000E+00 0. -1.
         23    2    1    2    0    0  0.24255735034E+03  0.65329142471E+03 -0.69487152624E+02  0.70615523327E+03  0.90570388542E+02 0.  0.
         13    1    3    3    0    0  0.12489630848E+03  0.44071859457E+03 -0.68652452003E+02  0.46319016250E+03  0.00000000000E+00 0. -1.
        -13    1    3    3    0    0  0.11766104186E+03  0.21257283014E+03 -0.83470062075E+00  0.24296507076E+03  0.00000000000E+00 0.  1.
         22    1    1    2    0    0 -0.24255735034E+03 -0.65329142471E+03 -0.14788081374E+04  0.16347774347E+04  0.00000000000E+00 0. -1.
<mgrwt>
<rscale>  0 0.17557755E+04</rscale>
<asrwt>0</asrwt>
<pdfrwt beam="1">  1        1 0.29917138E+00 0.17557755E+04</pdfrwt>
<pdfrwt beam="2">  1       -1 0.60972107E-01 0.17557755E+04</pdfrwt>
<totfact> 0.83971402E+00</totfact>
</mgrwt>
</event>
<event>
 6    1  0.9562506E-007  0.3337575E+04  0.7818608E-02  0.8153400E-01
         -2   -1    0    0    0  501 -0.00000000000E+00  0.00000000000E+00  0.11015208576E+04  0.11015208576E+04  0.00000000000E+00 0.  1.
          2   -1    0    0  501    0  0.00000000000E+00 -0.00000000000E+00 -0.25281881531E+04  0.25281881531E+04  0.00000000000E+00 0. -1.
         23    2    1    2    0    0  0.13765598024E+04  0.50270932447E+03  0.15142594516E+03  0.14761046296E+04  0.91222288795E+02 0.  0.
         13    1    3    3    0    0  0.49531386610E+03  0.22737875460E+03  0.62113540216E+02  0.54853898300E+03  0.00000000000E+00 0. -1.
        -13    1    3    3    0    0  0.88124593632E+03  0.27533056987E+03  0.89312404947E+02  0.92756564656E+03  0.00000000000E+00 0.  1.
         22    1    1    2    0    0 -0.13765598024E+04 -0.50270932447E+03 -0.15780932406E+04  0.21536043812E+04  0.00000000000E+00 0. -1.
<mgrwt>
<rscale>  0 0.33375752E+04</rscale>
<asrwt>0</asrwt>
<pdfrwt beam="1">  1        2 0.38895202E+00 0.33375752E+04</pdfrwt>
<pdfrwt beam="2">  1       -2 0.16946475E+00 0.33375752E+04</pdfrwt>
<totfact> 0.60005533E-01</totfact>
</mgrwt>
</event>
<event>
 6    1  0.9562506E-007  0.3245584E+04  0.7818608E-02  0.8176881E-01
          2   -1    0    0  501    0  0.00000000000E+00  0.00000000000E+00  0.14495864256E+04  0.14495864256E+04  0.00000000000E+00 0. -1.
         -2   -1    0    0    0  501 -0.00000000000E+00 -0.00000000000E+00 -0.18166928259E+04  0.18166928259E+04  0.00000000000E+00 0.  1.
         23    2    1    2    0    0  0.63151556507E+03  0.36501213344E+03  0.12737140886E+04  0.14706351768E+04  0.91512170283E+02 0.  0.
         13    1    3    3    0    0  0.38449787987E+03  0.19146230257E+03  0.67418800885E+03  0.79939095830E+03  0.00000000000E+00 0.  1.
        -13    1    3    3    0    0  0.24701768520E+03  0.17354983088E+03  0.59952607974E+03  0.67124421851E+03  0.00000000000E+00 0. -1.
         22    1    1    2    0    0 -0.63151556507E+03 -0.36501213344E+03 -0.16408204889E+04  0.17956440748E+04  0.00000000000E+00 0.  1.
<mgrwt>
<rscale>  0 0.32455836E+04</rscale>
<asrwt>0</asrwt>
<pdfrwt beam="1">  1        2 0.22301330E+00 0.32455836E+04</pdfrwt>
<pdfrwt beam="2">  1       -2 0.27949120E+00 0.32455836E+04</pdfrwt>
<totfact> 0.48238171E-01</totfact>
</mgrwt>
</event>
<event>
 6    1  0.9562506E-007  0.5160570E+04  0.7818608E-02  0.7804204E-01
         -1   -1    0    0    0  501 -0.00000000000E+00  0.00000000000E+00  0.32975501249E+04  0.32975501249E+04  0.00000000000E+00 0.  1.
          1   -1    0    0  501    0  0.00000000000E+00 -0.00000000000E+00 -0.20190354582E+04  0.20190354582E+04  0.00000000000E+00 0. -1.
         23    2    1    2    0    0  0.12318246421E+04  0.46432286715E+03  0.29247832214E+04  0.32086985301E+04  0.91660740737E+02 0.  0.
         11    1    3    3    0    0  0.40439121194E+03  0.13290787992E+03  0.10416913376E+04  0.11253077799E+04  0.00000000000E+00 0. -1.
        -11    1    3    3    0    0  0.82743343017E+03  0.33141498723E+03  0.18830918838E+04  0.20833907502E+04  0.00000000000E+00 0.  1.
         22    1    1    2    0    0 -0.12318246421E+04 -0.46432286715E+03 -0.16462685547E+04  0.21078870529E+04  0.00000000000E+00 0. -1.
<mgrwt>
<rscale>  0 0.51605700E+04</rscale>
<asrwt>0</asrwt>
<pdfrwt beam="1">  1        1 0.31062084E+00 0.51605700E+04</pdfrwt>
<pdfrwt beam="2">  1       -1 0.50731540E+00 0.51605700E+04</pdfrwt>
<totfact> 0.27789238E-03</totfact>
</mgrwt>
</event>
<event>
 6    1  0.9562506E-007  0.1148117E+04  0.7818608E-02  0.9159523E-01
          1   -1    0    0  501    0  0.00000000000E+00  0.00000000000E+00  0.77068304389E+03  0.77068304389E+03  0.00000000000E+00 0. -1.
         -1   -1    0    0    0  501 -0.00000000000E+00 -0.00000000000E+00 -0.42759860299E+03  0.42759860299E+03  0.00000000000E+00 0.  1.
         23    2    1    2    0    0 -0.70321029826E+02  0.16460375239E+02  0.76314169848E+03  0.77206094017E+03  0.92069822368E+02 0.  0.
         13    1    3    3    0    0 -0.84798231087E+02  0.32672712399E+02  0.51387592851E+03  0.52184932311E+03  0.00000000000E+00 0.  1.
        -13    1    3    3    0    0  0.14477201261E+02 -0.16212337160E+02  0.24926576997E+03  0.25021161706E+03  0.00000000000E+00 0. -1.
         22    1    1    2    0    0  0.70321029826E+02 -0.16460375239E+02 -0.42005725758E+03  0.42622070671E+03  0.00000000000E+00 0.  1.
<mgrwt>
<rscale>  0 0.11481167E+04</rscale>
<asrwt>0</asrwt>
<pdfrwt beam="1">  1        1 0.11856662E+00 0.11481167E+04</pdfrwt>
<pdfrwt beam="2">  1       -1 0.65784401E-01 0.11481167E+04</pdfrwt>
<totfact> 0.54607910E+01</totfact>
</mgrwt>
</event>
<event>
 6    1  0.9562506E-007  0.3270693E+04  0.7818608E-02  0.8170393E-01
         -1   -1    0    0    0  501 -0.00000000000E+00  0.00000000000E+00  0.18987485439E+04  0.18987485439E+04  0.00000000000E+00 0.  1.
          1   -1    0    0  501    0  0.00000000000E+00 -0.00000000000E+00 -0.14084845677E+04  0.14084845677E+04  0.00000000000E+00 0. -1.
         23    2    1    2    0    0 -0.14798343813E+04 -0.21854715099E+03  0.91049022235E+03  0.17534433089E+04  0.88872601483E+02 0.  0.
         11    1    3    3    0    0 -0.19435190372E+03 -0.36342929876E+02  0.87279960471E+02  0.21612788467E+03  0.00000000000E+00 0. -1.
        -11    1    3    3    0    0 -0.12854824776E+04 -0.18220422111E+03  0.82321026188E+03  0.15373154242E+04  0.00000000000E+00 0.  1.
         22    1    1    2    0    0  0.14798343813E+04  0.21854715099E+03 -0.42022624616E+03  0.15537898028E+04  0.00000000000E+00 0. -1.
<mgrwt>
<rscale>  0 0.32706929E+04</rscale>
<asrwt>0</asrwt>
<pdfrwt beam="1">  1        1 0.21668993E+00 0.32706929E+04</pdfrwt>
<pdfrwt beam="2">  1       -1 0.29211516E+00 0.32706929E+04</pdfrwt>
<totfact> 0.23410274E-01</totfact>
</mgrwt>
</event>
<event>
 6    1  0.9562506E-007  0.3025318E+04  0.7818608E-02  0.8236538E-01
         -1   -1    0    0    0  501 -0.00000000000E+00  0.00000000000E+00  0.69879051922E+03  0.69879051922E+03  0.00000000000E+00 0.  1.
          1   -1    0    0  501    0  0.00000000000E+00 -0.00000000000E+00 -0.32744244362E+04  0.32744244362E+04  0.00000000000E+00 0. -1.
         23    2    1    2    0    0  0.85384789902E+02  0.98275672533E+03  0.21489555976E+03  0.10134588668E+04  0.88416229166E+02 0.  0.
         11    1    3    3    0    0  0.79561779749E+02  0.41317808264E+03  0.95598488367E+02  0.43149191852E+03  0.00000000000E+00 0. -1.
        -11    1    3    3    0    0  0.58230101534E+01  0.56957864269E+03  0.11929707139E+03  0.58196694829E+03  0.00000000000E+00 0.  1.
         22    1    1    2    0    0 -0.85384789902E+02 -0.98275672533E+03 -0.27905294767E+04  0.29597560886E+04  0.00000000000E+00 0. -1.
<mgrwt>
<rscale>  0 0.30253177E+04</rscale>
<asrwt>0</asrwt>
<pdfrwt beam="1">  1        1 0.50375760E+00 0.30253177E+04</pdfrwt>
<pdfrwt beam="2">  1       -1 0.10750624E+00 0.30253177E+04</pdfrwt>
<totfact> 0.25529105E-01</totfact>
</mgrwt>
</event>
<event>
 6    1  0.9562506E-007  0.2701711E+04  0.7818608E-02  0.8334450E-01
          2   -1    0    0  501    0  0.00000000000E+00  0.00000000000E+00  0.25318723718E+04  0.25318723718E+04  0.00000000000E+00 0. -1.
         -2   -1    0    0    0  501 -0.00000000000E+00 -0.00000000000E+00 -0.72073584459E+03  0.72073584459E+03  0.00000000000E+00 0.  1.
         23    2    1    2    0    0  0.72282505107E+03 -0.27194185332E+03  0.22387645167E+04  0.23698318441E+04  0.87223749138E+02 0.  0.
         11    1    3    3    0    0  0.40097649707E+03 -0.15711205510E+03  0.13775792839E+04  0.14433263777E+04  0.00000000000E+00 0. -1.
        -11    1    3    3    0    0  0.32184855400E+03 -0.11482979822E+03  0.86118523275E+03  0.92650546645E+03  0.00000000000E+00 0.  1.
         22    1    1    2    0    0 -0.72282505107E+03  0.27194185332E+03 -0.42762798944E+03  0.88277637225E+03  0.00000000000E+00 0.  1.
<mgrwt>
<rscale>  0 0.27017114E+04</rscale>
<asrwt>0</asrwt>
<pdfrwt beam="1">  1        2 0.38951882E+00 0.27017114E+04</pdfrwt>
<pdfrwt beam="2">  1       -2 0.11088244E+00 0.27017114E+04</pdfrwt>
<totfact> 0.18850706E+00</totfact>
</mgrwt>
</event>
<event>
 6    1  0.9562506E-007  0.1973141E+04  0.7818608E-02  0.8619282E-01
         -2   -1    0    0    0  501 -0.00000000000E+00  0.00000000000E+00  0.42149294936E+03  0.42149294936E+03  0.00000000000E+00 0.  1.
          2   -1    0    0  501    0  0.00000000000E+00 -0.00000000000E+00 -0.23092231798E+04  0.23092231798E+04  0.00000000000E+00 0. -1.
         23    2    1    2    0    0 -0.56686326308E+00  0.54097576281E+03 -0.20845298192E+04  0.21550554866E+04  0.79652280532E+02 0.  0.
         13    1    3    3    0    0  0.25341818238E+02  0.29710922957E+03 -0.10234789190E+04  0.10660324571E+04  0.00000000000E+00 0. -1.
        -13    1    3    3    0    0 -0.25908681501E+02  0.24386653324E+03 -0.10610509002E+04  0.10890230294E+04  0.00000000000E+00 0.  1.
         22    1    1    2    0    0  0.56686326308E+00 -0.54097576281E+03  0.19679958877E+03  0.57566064258E+03  0.00000000000E+00 0.  1.
<mgrwt>
<rscale>  0 0.19731409E+04</rscale>
<asrwt>0</asrwt>
<pdfrwt beam="1">  1        2 0.35526511E+00 0.19731409E+04</pdfrwt>
<pdfrwt beam="2">  1       -2 0.64845069E-01 0.19731409E+04</pdfrwt>
<totfact> 0.91536704E+00</totfact>
</mgrwt>
</event>
<event>
 6    1  0.9562506E-007  0.3410437E+04  0.7818608E-02  0.8135349E-01
         -2   -1    0    0    0  501 -0.00000000000E+00  0.00000000000E+00  0.31249548137E+04  0.31249548137E+04  0.00000000000E+00 0.  1.
          2   -1    0    0  501    0  0.00000000000E+00 -0.00000000000E+00 -0.93050011754E+03  0.93050011754E+03  0.00000000000E+00 0. -1.
         23    2    1    2    0    0 -0.90834038232E+03  0.76927792752E+03 -0.35203457325E+03  0.12444980872E+04  0.89310516115E+02 0.  0.
         13    1    3    3    0    0 -0.63698655503E+03  0.56570672622E+03 -0.21497303938E+03  0.87862926142E+03  0.00000000000E+00 0. -1.
        -13    1    3    3    0    0 -0.27135382729E+03  0.20357120131E+03 -0.13706153387E+03  0.36586882575E+03  0.00000000000E+00 0.  1.
         22    1    1    2    0    0  0.90834038232E+03 -0.76927792752E+03  0.25464892694E+04  0.28109568440E+04  0.00000000000E+00 0.  1.
<mgrwt>
<rscale>  0 0.34104374E+04</rscale>
<asrwt>0</asrwt>
<pdfrwt beam="1">  1        2 0.14315387E+00 0.34104374E+04</pdfrwt>
<pdfrwt beam="2">  1       -2 0.48076227E+00 0.34104374E+04</pdfrwt>
<totfact> 0.50477382E-02</totfact>
</mgrwt>
</event>
<event>
 6    1  0.9562506E-007  0.3822401E+04  0.7818608E-02  0.8041365E-01
          2   -1    0    0  501    0  0.00000000000E+00  0.00000000000E+00  0.22018675529E+04  0.22018675529E+04  0.00000000000E+00 0. -1.
         -2   -1    0    0    0  501 -0.00000000000E+00 -0.00000000000E+00 -0.16589038031E+04  0.16589038031E+04  0.00000000000E+00 0.  1.
         23    2    1    2    0    0  0.10070624422E+04  0.40861204597E+03 -0.13148898496E+04  0.17083869658E+04  0.92261267914E+02 0.  0.
         13    1    3    3    0    0  0.43498037696E+03  0.21878690365E+03 -0.55035640222E+03  0.73482501796E+03  0.00000000000E+00 0. -1.
        -13    1    3    3    0    0  0.57208206523E+03  0.18982514232E+03 -0.76453344741E+03  0.97356194781E+03  0.00000000000E+00 0.  1.
         22    1    1    2    0    0 -0.10070624422E+04 -0.40861204597E+03  0.18578535994E+04  0.21523843902E+04  0.00000000000E+00 0. -1.
<mgrwt>
<rscale>  0 0.38224005E+04</rscale>
<asrwt>0</asrwt>
<pdfrwt beam="1">  1        2 0.33874885E+00 0.38224005E+04</pdfrwt>
<pdfrwt beam="2">  1       -2 0.25521597E+00 0.38224005E+04</pdfrwt>
<totfact> 0.24610651E-01</totfact>
</mgrwt>
</event>
<event>
 6    1  0.9562506E-007  0.1375407E+04  0.7818608E-02  0.8971815E-01
         -1   -1    0    0    0  501 -0.00000000000E+00  0.00000000000E+00  0.22731012217E+03  0.22731012217E+03  0.00000000000E+00 0.  1.
          1   -1    0    0  501    0  0.00000000000E+00 -0.00000000000E+00 -0.20805755188E+04  0.20805755188E+04  0.00000000000E+00 0. -1.
         23    2    1    2    0    0 -0.88485464248E+01 -0.64600837267E+03 -0.13098639664E+04  0.14636758159E+04  0.95907086558E+02 0.  0.
         11    1    3    3    0    0 -0.47715959821E+02 -0.20888214531E+03 -0.43686935637E+03  0.48658339264E+03  0.00000000000E+00 0.  1.
        -11    1    3    3    0    0  0.38867413396E+02 -0.43712622736E+03 -0.87299461001E+03  0.97709242326E+03  0.00000000000E+00 0. -1.
         22    1    1    2    0    0  0.88485464248E+01  0.64600837267E+03 -0.54340143021E+03  0.84420982504E+03  0.00000000000E+00 0. -1.
<mgrwt>
<rscale>  0 0.13754067E+04</rscale>
<asrwt>0</asrwt>
<pdfrwt beam="1">  1        1 0.32008855E+00 0.13754067E+04</pdfrwt>
<pdfrwt beam="2">  1       -1 0.34970787E-01 0.13754067E+04</pdfrwt>
<totfact> 0.19972077E+01</totfact>
</mgrwt>
</event>
<event>
 6    1  0.1134039E-006  0.3419980E+04  0.7818608E-02  0.8133020E-01
          1   -1    0    0  501    0  0.00000000000E+00  0.00000000000E+00  0.16544782527E+04  0.16544782527E+04  0.00000000000E+00 0. -1.
         -1   -1    0    0    0  501 -0.00000000000E+00 -0.00000000000E+00 -0.17673645367E+04  0.17673645367E+04  0.00000000000E+00 0.  1.
         23    2    1    2    0    0  0.14856347304E+04 -0.25752634733E+03 -0.86179836144E+03  0.17383049455E+04  0.74681296166E+02 0.  0.
         11    1    3    3    0    0  0.31819680554E+03 -0.52277509300E+02 -0.22003327685E+03  0.39038031195E+03  0.00000000000E+00 0.  1.
        -11    1    3    3    0    0  0.11674379249E+04 -0.20524883803E+03 -0.64176508459E+03  0.13479246336E+04  0.00000000000E+00 0. -1.
         22    1    1    2    0    0 -0.14856347304E+04  0.25752634733E+03  0.74891207744E+03  0.16835378438E+04  0.00000000000E+00 0. -1.
<mgrwt>
<rscale>  0 0.34199802E+04</rscale>
<asrwt>0</asrwt>
<pdfrwt beam="1">  1        1 0.25453512E+00 0.34199802E+04</pdfrwt>
<pdfrwt beam="2">  1       -1 0.27190224E+00 0.34199802E+04</pdfrwt>
<totfact> 0.21118879E-01</totfact>
</mgrwt>
</event>
<event>
 6    1  0.9562506E-007  0.1073073E+04  0.7818608E-02  0.9231842E-01
          1   -1    0    0  501    0  0.00000000000E+00  0.00000000000E+00  0.76251610778E+03  0.76251610778E+03  0.00000000000E+00 0. -1.
         -1   -1    0    0    0  501 -0.00000000000E+00 -0.00000000000E+00 -0.37752803095E+03  0.37752803095E+03  0.00000000000E+00 0.  1.
         23    2    1    2    0    0 -0.92720477371E+02 -0.41893141819E+03 -0.14176418075E+03  0.46065576605E+03  0.89476431423E+02 0.  0.
         11    1    3    3    0    0  0.11090060358E+02 -0.76083115151E+02 -0.44375931300E+01  0.77015076982E+02  0.00000000000E+00 0. -1.
        -11    1    3    3    0    0 -0.10381053773E+03 -0.34284830304E+03 -0.13732658762E+03  0.38364068907E+03  0.00000000000E+00 0.  1.
         22    1    1    2    0    0  0.92720477371E+02  0.41893141819E+03  0.52675225758E+03  0.67938837268E+03  0.00000000000E+00 0. -1.
<mgrwt>
<rscale>  0 0.10730726E+04</rscale>
<asrwt>0</asrwt>
<pdfrwt beam="1">  1        1 0.11731017E+00 0.10730726E+04</pdfrwt>
<pdfrwt beam="2">  1       -1 0.58081235E-01 0.10730726E+04</pdfrwt>
<totfact> 0.71545662E+01</totfact>
</mgrwt>
</event>
<event>
 6    1  0.9562506E-007  0.6796780E+03  0.7818608E-02  0.9752631E-01
          4   -1    0    0  501    0  0.00000000000E+00  0.00000000000E+00  0.98985486872E+02  0.98985486872E+02  0.00000000000E+00 0. -1.
         -4   -1    0    0    0  501 -0.00000000000E+00 -0.00000000000E+00 -0.11667422116E+04  0.11667422116E+04  0.00000000000E+00 0.  1.
         23    2    1    2    0    0  0.27644563171E+02  0.31728416889E+03 -0.72864260496E+03  0.80050533021E+03  0.91952554235E+02 0.  0.
         11    1    3    3    0    0 -0.42113413224E+01  0.28857992237E+03 -0.63312850812E+03  0.69580731154E+03  0.00000000000E+00 0.  1.
        -11    1    3    3    0    0  0.31855904494E+02  0.28704246522E+02 -0.95514096833E+02  0.10469801867E+03  0.00000000000E+00 0. -1.
         22    1    1    2    0    0 -0.27644563171E+02 -0.31728416889E+03 -0.33911411974E+03  0.46522236824E+03  0.00000000000E+00 0. -1.
<mgrwt>
<rscale>  0 0.67967800E+03</rscale>
<asrwt>0</asrwt>
<pdfrwt beam="1">  1        4 0.15228535E-01 0.67967800E+03</pdfrwt>
<pdfrwt beam="2">  1       -4 0.17949881E+00 0.67967800E+03</pdfrwt>
<totfact> 0.13739553E+01</totfact>
</mgrwt>
</event>
<event>
 6    1  0.9562506E-007  0.2195479E+04  0.7818608E-02  0.8520312E-01
          2   -1    0    0  501    0  0.00000000000E+00  0.00000000000E+00  0.94454133724E+03  0.94454133724E+03  0.00000000000E+00 0. -1.
         -2   -1    0    0    0  501 -0.00000000000E+00 -0.00000000000E+00 -0.12757856039E+04  0.12757856039E+04  0.00000000000E+00 0.  1.
         23    2    1    2    0    0  0.10365046288E+04 -0.19269105116E+03  0.13877706522E+03  0.10660341970E+04  0.75486082804E+02 0.  0.
         11    1    3    3    0    0  0.35551815450E+03 -0.30757843118E+02  0.38619181754E+02  0.35892985985E+03  0.00000000000E+00 0. -1.
        -11    1    3    3    0    0  0.68098647428E+03 -0.16193320804E+03  0.10015788346E+03  0.70710433717E+03  0.00000000000E+00 0.  1.
         22    1    1    2    0    0 -0.10365046288E+04  0.19269105116E+03 -0.47002133185E+03  0.11542927441E+04  0.00000000000E+00 0.  1.
<mgrwt>
<rscale>  0 0.21954792E+04</rscale>
<asrwt>0</asrwt>
<pdfrwt beam="1">  1        2 0.14531405E+00 0.21954792E+04</pdfrwt>
<pdfrwt beam="2">  1       -2 0.19627471E+00 0.21954792E+04</pdfrwt>
<totfact> 0.35221941E+00</totfact>
</mgrwt>
</event>
<event>
 6    1  0.9562506E-007  0.2337037E+04  0.7818608E-02  0.8463460E-01
         -2   -1    0    0    0  501 -0.00000000000E+00  0.00000000000E+00  0.50083695595E+03  0.50083695595E+03  0.00000000000E+00 0.  1.
          2   -1    0    0  501    0  0.00000000000E+00 -0.00000000000E+00 -0.27263062959E+04  0.27263062959E+04  0.00000000000E+00 0. -1.
         23    2    1    2    0    0  0.32180080925E+03 -0.98160265147E+03 -0.36544315724E+03  0.10995161871E+04  0.91036357412E+02 0.  0.
         11    1    3    3    0    0  0.86950640816E+02 -0.18837445887E+03 -0.44598488790E+02  0.21221304365E+03  0.00000000000E+00 0. -1.
        -11    1    3    3    0    0  0.23485016844E+03 -0.79322819260E+03 -0.32084466845E+03  0.88730314347E+03  0.00000000000E+00 0.  1.
         22    1    1    2    0    0 -0.32180080925E+03  0.98160265147E+03 -0.18600261827E+04  0.21276270648E+04  0.00000000000E+00 0. -1.
<mgrwt>
<rscale>  0 0.23370365E+04</rscale>
<asrwt>0</asrwt>
<pdfrwt beam="1">  1        2 0.41943174E+00 0.23370365E+04</pdfrwt>
<pdfrwt beam="2">  1       -2 0.77051839E-01 0.23370365E+04</pdfrwt>
<totfact> 0.34815589E+00</totfact>
</mgrwt>
</event>
<event>
 6    1  0.9562506E-007  0.1189490E+04  0.7818608E-02  0.9122106E-01
          2   -1    0    0  501    0  0.00000000000E+00  0.00000000000E+00  0.46102782743E+03  0.46102782743E+03  0.00000000000E+00 0. -1.
         -2   -1    0    0    0  501 -0.00000000000E+00 -0.00000000000E+00 -0.76724556178E+03  0.76724556178E+03  0.00000000000E+00 0.  1.
         23    2    1    2    0    0 -0.17791754564E+03  0.18368083731E+03  0.39643822532E+03  0.48053098658E+03  0.91397262149E+02 0.  0.
         13    1    3    3    0    0 -0.12813686386E+03  0.69473556604E+02  0.19092739881E+03  0.24020595864E+03  0.00000000000E+00 0.  1.
        -13    1    3    3    0    0 -0.49780681778E+02  0.11420728070E+03  0.20551082651E+03  0.24032502794E+03  0.00000000000E+00 0. -1.
         22    1    1    2    0    0  0.17791754564E+03 -0.18368083731E+03 -0.70265595966E+03  0.74774240263E+03  0.00000000000E+00 0.  1.
<mgrwt>
<rscale>  0 0.11894899E+04</rscale>
<asrwt>0</asrwt>
<pdfrwt beam="1">  1        2 0.70927359E-01 0.11894899E+04</pdfrwt>
<pdfrwt beam="2">  1       -2 0.11803778E+00 0.11894899E+04</pdfrwt>
<totfact> 0.36935062E+01</totfact>
</mgrwt>
</event>
<event>
 6    1  0.9562506E-007  0.2111339E+04  0.7818608E-02  0.8556265E-01
          1   -1    0    0  501    0  0.00000000000E+00  0.00000000000E+00  0.11957183060E+04  0.11957183060E+04  0.00000000000E+00 0. -1.
         -1   -1    0    0    0  501 -0.00000000000E+00 -0.00000000000E+00 -0.93202388707E+03  0.93202388707E+03  0.00000000000E+00 0.  1.
         23    2    1    2    0    0  0.11686282152E+03 -0.10376666806E+04 -0.10333956632E+02  0.10481586577E+04  0.90115048154E+02 0.  0.
         11    1    3    3    0    0  0.11288003009E+03 -0.78398552863E+03 -0.37749893247E+02  0.79296927099E+03  0.00000000000E+00 0. -1.
        -11    1    3    3    0    0  0.39827914287E+01 -0.25368115201E+03  0.27415936615E+02  0.25518938672E+03  0.00000000000E+00 0.  1.
         22    1    1    2    0    0 -0.11686282152E+03  0.10376666806E+04  0.27402837555E+03  0.10795835353E+04  0.00000000000E+00 0. -1.
<mgrwt>
<rscale>  0 0.21113389E+04</rscale>
<asrwt>0</asrwt>
<pdfrwt beam="1">  1        1 0.18395666E+00 0.21113389E+04</pdfrwt>
<pdfrwt beam="2">  1       -1 0.14338829E+00 0.21113389E+04</pdfrwt>
<totfact> 0.38924244E+00</totfact>
</mgrwt>
</event>
<event>
 6    1  0.9562506E-007  0.1757146E+04  0.7818608E-02  0.8729427E-01
         -1   -1    0    0    0  501 -0.00000000000E+00  0.00000000000E+00  0.78812683769E+03  0.78812683769E+03  0.00000000000E+00 0.  1.
          1   -1    0    0  501    0  0.00000000000E+00 -0.00000000000E+00 -0.97939837201E+03  0.97939837201E+03  0.00000000000E+00 0. -1.
         23    2    1    2    0    0 -0.84472731850E+03 -0.27191609290E+02 -0.32784791838E+03  0.91139628547E+03  0.94102631998E+02 0.  0.
         13    1    3    3    0    0 -0.39982556592E+03  0.19310932957E+02 -0.19158473921E+03  0.44377709224E+03  0.00000000000E+00 0. -1.
        -13    1    3    3    0    0 -0.44490175258E+03 -0.46502542247E+02 -0.13626317916E+03  0.46761919323E+03  0.00000000000E+00 0.  1.
         22    1    1    2    0    0  0.84472731850E+03  0.27191609290E+02  0.13657638405E+03  0.85612892424E+03  0.00000000000E+00 0.  1.
<mgrwt>
<rscale>  0 0.17571456E+04</rscale>
<asrwt>0</asrwt>
<pdfrwt beam="1">  1        1 0.15067667E+00 0.17571456E+04</pdfrwt>
<pdfrwt beam="2">  1       -1 0.12125028E+00 0.17571456E+04</pdfrwt>
<totfact> 0.89783776E+00</totfact>
</mgrwt>
</event>
<event>
 6    1  0.9562506E-007  0.4752851E+04  0.7818608E-02  0.7867806E-01
          2   -1    0    0  501    0  0.00000000000E+00  0.00000000000E+00  0.16694564018E+04  0.16694564018E+04  0.00000000000E+00 0. -1.
         -2   -1    0    0    0  501 -0.00000000000E+00 -0.00000000000E+00 -0.33827768979E+04  0.33827768979E+04  0.00000000000E+00 0.  1.
         23    2    1    2    0    0 -0.83515429614E+03  0.16076586505E+04  0.77645310376E+03  0.19731065381E+04  0.90669474756E+02 0.  0.
         11    1    3    3    0    0 -0.32968867405E+03  0.55531223493E+03  0.25117087787E+03  0.69293081180E+03  0.00000000000E+00 0. -1.
        -11    1    3    3    0    0 -0.50546562209E+03  0.10523464156E+04  0.52528222588E+03  0.12801757263E+04  0.00000000000E+00 0.  1.
         22    1    1    2    0    0  0.83515429614E+03 -0.16076586505E+04 -0.24897735999E+04  0.30791267616E+04  0.00000000000E+00 0.  1.
<mgrwt>
<rscale>  0 0.47528512E+04</rscale>
<asrwt>0</asrwt>
<pdfrwt beam="1">  1        2 0.25683945E+00 0.47528512E+04</pdfrwt>
<pdfrwt beam="2">  1       -2 0.52042721E+00 0.47528512E+04</pdfrwt>
<totfact> 0.94685697E-03</totfact>
</mgrwt>
</event>
<event>
 6    1  0.9562506E-007  0.3554414E+04  0.7818608E-02  0.8101014E-01
          2   -1    0    0  501    0  0.00000000000E+00  0.00000000000E+00  0.25714153031E+04  0.25714153031E+04  0.00000000000E+00 0. -1.
         -2   -1    0    0    0  501 -0.00000000000E+00 -0.00000000000E+00 -0.12282980576E+04  0.12282980576E+04  0.00000000000E+00 0.  1.
         23    2    1    2    0    0  0.11621744286E+04 -0.12472538991E+04  0.13967224061E+03  0.17129523367E+04  0.91682506049E+02 0.  0.
         13    1    3    3    0    0  0.92882174545E+03 -0.10102877946E+04  0.14760719445E+03  0.13802822706E+04  0.00000000000E+00 0. -1.
        -13    1    3    3    0    0  0.23335268314E+03 -0.23696610450E+03 -0.79349538348E+01  0.33267006613E+03  0.00000000000E+00 0.  1.
         22    1    1    2    0    0 -0.11621744286E+04  0.12472538991E+04  0.12034450049E+04  0.20867610240E+04  0.00000000000E+00 0. -1.
<mgrwt>
<rscale>  0 0.35544138E+04</rscale>
<asrwt>0</asrwt>
<pdfrwt beam="1">  1        2 0.39560235E+00 0.35544138E+04</pdfrwt>
<pdfrwt beam="2">  1       -2 0.18896893E+00 0.35544138E+04</pdfrwt>
<totfact> 0.40746707E-01</totfact>
</mgrwt>
</event>
<event>
 6    1  0.9562506E-007  0.2395891E+04  0.7818608E-02  0.8441044E-01
          1   -1    0    0  501    0  0.00000000000E+00  0.00000000000E+00  0.21956714286E+04  0.21956714286E+04  0.00000000000E+00 0. -1.
         -1   -1    0    0    0  501 -0.00000000000E+00 -0.00000000000E+00 -0.65359197305E+03  0.65359197305E+03  0.00000000000E+00 0.  1.
         23    2    1    2    0    0  0.89746963310E+02  0.35414548653E+03  0.21267593382E+04  0.21598258714E+04  0.90933872787E+02 0.  0.
         11    1    3    3    0    0  0.88892512661E+01  0.32651050832E+02  0.87842951093E+02  0.94135508525E+02  0.00000000000E+00 0.  1.
        -11    1    3    3    0    0  0.80857712044E+02  0.32149443570E+03  0.20389163871E+04  0.20656903629E+04  0.00000000000E+00 0. -1.
         22    1    1    2    0    0 -0.89746963310E+02 -0.35414548653E+03 -0.58467988258E+03  0.68943753028E+03  0.00000000000E+00 0.  1.
<mgrwt>
<rscale>  0 0.23958908E+04</rscale>
<asrwt>0</asrwt>
<pdfrwt beam="1">  1        1 0.33779560E+00 0.23958908E+04</pdfrwt>
<pdfrwt beam="2">  1       -1 0.10055261E+00 0.23958908E+04</pdfrwt>
<totfact> 0.18500627E+00</totfact>
</mgrwt>
</event>
<event>
 6    1  0.9562506E-007  0.3680844E+04  0.7818608E-02  0.8072220E-01
         -2   -1    0    0    0  501 -0.00000000000E+00  0.00000000000E+00  0.15505225781E+04  0.15505225781E+04  0.00000000000E+00 0.  1.
          2   -1    0    0  501    0  0.00000000000E+00 -0.00000000000E+00 -0.21845240353E+04  0.21845240353E+04  0.00000000000E+00 0. -1.
         23    2    1    2    0    0 -0.15728172660E+04  0.50074013963E+03  0.50650988113E+03  0.17287413146E+04  0.86599269225E+02 0.  0.
         11    1    3    3    0    0 -0.79293912766E+03  0.28641575349E+03  0.22843706034E+03  0.87348150213E+03  0.00000000000E+00 0.  1.
        -11    1    3    3    0    0 -0.77987813829E+03  0.21432438614E+03  0.27807282080E+03  0.85525981242E+03  0.00000000000E+00 0. -1.
         22    1    1    2    0    0  0.15728172660E+04 -0.50074013963E+03 -0.11405113383E+04  0.20063052989E+04  0.00000000000E+00 0. -1.
<mgrwt>
<rscale>  0 0.36808444E+04</rscale>
<asrwt>0</asrwt>
<pdfrwt beam="1">  1        2 0.33608062E+00 0.36808444E+04</pdfrwt>
<pdfrwt beam="2">  1       -2 0.23854194E+00 0.36808444E+04</pdfrwt>
<totfact> 0.32264452E-01</totfact>
</mgrwt>
</event>
<event>
 6    1  0.9562506E-007  0.1952519E+04  0.7818608E-02  0.8629147E-01
          2   -1    0    0  501    0  0.00000000000E+00  0.00000000000E+00  0.13079711874E+04  0.13079711874E+04  0.00000000000E+00 0. -1.
         -2   -1    0    0    0  501 -0.00000000000E+00 -0.00000000000E+00 -0.72867230739E+03  0.72867230739E+03  0.00000000000E+00 0.  1.
         23    2    1    2    0    0  0.91285744091E+03  0.33936437768E+03  0.31058967398E+03  0.10263556518E+04  0.91995054827E+02 0.  0.
         13    1    3    3    0    0  0.17813379672E+03  0.10463538734E+03  0.54745973600E+02  0.21372256653E+03  0.00000000000E+00 0. -1.
        -13    1    3    3    0    0  0.73472364419E+03  0.23472899034E+03  0.25584370038E+03  0.81263308526E+03  0.00000000000E+00 0.  1.
         22    1    1    2    0    0 -0.91285744091E+03 -0.33936437768E+03  0.26870920598E+03  0.10102878430E+04  0.00000000000E+00 0.  1.
<mgrwt>
<rscale>  0 0.19525188E+04</rscale>
<asrwt>0</asrwt>
<pdfrwt beam="1">  1        2 0.20122634E+00 0.19525188E+04</pdfrwt>
<pdfrwt beam="2">  1       -2 0.11210343E+00 0.19525188E+04</pdfrwt>
<totfact> 0.95729961E+00</totfact>
</mgrwt>
</event>
<event>
 6    1  0.9562506E-007  0.3297409E+04  0.7818608E-02  0.8163555E-01
         -1   -1    0    0    0  501 -0.00000000000E+00  0.00000000000E+00  0.15904836592E+04  0.15904836592E+04  0.00000000000E+00 0.  1.
          1   -1    0    0  501    0  0.00000000000E+00 -0.00000000000E+00 -0.17090570743E+04  0.17090570743E+04  0.00000000000E+00 0. -1.
         23    2    1    2    0    0  0.98682395563E+03 -0.12723606229E+04 -0.40777911624E+03  0.16635813784E+04  0.92174403793E+02 0.  0.
         13    1    3    3    0    0  0.14549963031E+03 -0.23235722439E+03 -0.91306507273E+02  0.28895830221E+03  0.00000000000E+00 0.  1.
        -13    1    3    3    0    0  0.84132432532E+03 -0.10400033985E+04 -0.31647260896E+03  0.13746230762E+04  0.00000000000E+00 0. -1.
         22    1    1    2    0    0 -0.98682395563E+03  0.12723606229E+04  0.28920570120E+03  0.16359593552E+04  0.00000000000E+00 0.  1.
<mgrwt>
<rscale>  0 0.32974095E+04</rscale>
<asrwt>0</asrwt>
<pdfrwt beam="1">  1        1 0.26293186E+00 0.32974095E+04</pdfrwt>
<pdfrwt beam="2">  1       -1 0.24468980E+00 0.32974095E+04</pdfrwt>
<totfact> 0.29448552E-01</totfact>
</mgrwt>
</event>
<event>
 6    1  0.9562506E-007  0.2612458E+04  0.7818608E-02  0.8363982E-01
          2   -1    0    0  501    0  0.00000000000E+00  0.00000000000E+00  0.10688501685E+04  0.10688501685E+04  0.00000000000E+00 0. -1.
         -2   -1    0    0    0  501 -0.00000000000E+00 -0.00000000000E+00 -0.15963267322E+04  0.15963267322E+04  0.00000000000E+00 0.  1.
         23    2    1    2    0    0  0.66851719425E+03 -0.10285446862E+04 -0.71759658837E+03  0.14238207736E+04  0.86610167885E+02 0.  0.
         13    1    3    3    0    0  0.16796610466E+03 -0.19443455039E+03 -0.15522621413E+03  0.30018758178E+03  0.00000000000E+00 0. -1.
        -13    1    3    3    0    0  0.50055108959E+03 -0.83411013576E+03 -0.56237037424E+03  0.11236331918E+04  0.00000000000E+00 0.  1.
         22    1    1    2    0    0 -0.66851719425E+03  0.10285446862E+04  0.19012002471E+03  0.12413561271E+04  0.00000000000E+00 0. -1.
<mgrwt>
<rscale>  0 0.26124579E+04</rscale>
<asrwt>0</asrwt>
<pdfrwt beam="1">  1        2 0.16443849E+00 0.26124579E+04</pdfrwt>
<pdfrwt beam="2">  1       -2 0.24558873E+00 0.26124579E+04</pdfrwt>
<totfact> 0.13769650E+00</totfact>
</mgrwt>
</event>
<event>
 6    1  0.9562506E-007  0.1917705E+04  0.7818608E-02  0.8646093E-01
         -3   -1    0    0    0  501 -0.00000000000E+00  0.00000000000E+00  0.44061483844E+03  0.44061483844E+03  0.00000000000E+00 0.  1.
          3   -1    0    0  501    0  0.00000000000E+00 -0.00000000000E+00 -0.20866257591E+04  0.20866257591E+04  0.00000000000E+00 0. -1.
         23    2    1    2    0    0  0.14561848783E+03 -0.40784938054E+03  0.29920772694E+03  0.53439804275E+03  0.92250436468E+02 0.  0.
         13    1    3    3    0    0  0.54038537499E+02 -0.19685758142E+03  0.88618351018E+02  0.22254501350E+03  0.00000000000E+00 0.  1.
        -13    1    3    3    0    0  0.91579950331E+02 -0.21099179912E+03  0.21058937592E+03  0.31185302924E+03  0.00000000000E+00 0. -1.
         22    1    1    2    0    0 -0.14561848783E+03  0.40784938054E+03 -0.19452186476E+04  0.19928425547E+04  0.00000000000E+00 0. -1.
<mgrwt>
<rscale>  0 0.19177052E+04</rscale>
<asrwt>0</asrwt>
<pdfrwt beam="1">  1        3 0.32101934E+00 0.19177052E+04</pdfrwt>
<pdfrwt beam="2">  1       -3 0.67786899E-01 0.19177052E+04</pdfrwt>
<totfact> 0.15199799E-01</totfact>
</mgrwt>
</event>
<event>
 6    1  0.9562506E-007  0.2154854E+04  0.7818608E-02  0.8537457E-01
          1   -1    0    0  501    0  0.00000000000E+00  0.00000000000E+00  0.12351960135E+04  0.12351960135E+04  0.00000000000E+00 0. -1.
         -1   -1    0    0    0  501 -0.00000000000E+00 -0.00000000000E+00 -0.93980978766E+03  0.93980978766E+03  0.00000000000E+00 0.  1.
         23    2    1    2    0    0  0.33860662671E+03 -0.10201148891E+04  0.18368135985E+03  0.10943732033E+04  0.92871047542E+02 0.  0.
         11    1    3    3    0    0  0.27205645331E+03 -0.81819360404E+03  0.10933377427E+03  0.86914288910E+03  0.00000000000E+00 0. -1.
        -11    1    3    3    0    0  0.66550173407E+02 -0.20192128505E+03  0.74347585586E+02  0.22523031416E+03  0.00000000000E+00 0.  1.
         22    1    1    2    0    0 -0.33860662671E+03  0.10201148891E+04  0.11170486600E+03  0.10806325979E+04  0.00000000000E+00 0.  1.
<mgrwt>
<rscale>  0 0.21548543E+04</rscale>
<asrwt>0</asrwt>
<pdfrwt beam="1">  1        1 0.19003016E+00 0.21548543E+04</pdfrwt>
<pdfrwt beam="2">  1       -1 0.14458612E+00 0.21548543E+04</pdfrwt>
<totfact> 0.35497728E+00</totfact>
</mgrwt>
</event>
<event>
 6    1  0.9562506E-007  0.3089790E+04  0.7818608E-02  0.8218546E-01
          1   -1    0    0  501    0  0.00000000000E+00  0.00000000000E+00  0.13139717659E+04  0.13139717659E+04  0.00000000000E+00 0. -1.
         -1   -1    0    0    0  501 -0.00000000000E+00 -0.00000000000E+00 -0.18164015062E+04  0.18164015062E+04  0.00000000000E+00 0.  1.
         23    2    1    2    0    0  0.37339582886E+03  0.14956345797E+04 -0.17092932286E+03  0.15535918136E+04  0.89908001593E+02 0.  0.
         11    1    3    3    0    0  0.15762499423E+03  0.46100437359E+03 -0.60460799751E+02  0.49094417155E+03  0.00000000000E+00 0. -1.
        -11    1    3    3    0    0  0.21577083463E+03  0.10346302061E+04 -0.11046852311E+03  0.10626476420E+04  0.00000000000E+00 0.  1.
         22    1    1    2    0    0 -0.37339582886E+03 -0.14956345797E+04 -0.33150041744E+03  0.15767814585E+04  0.00000000000E+00 0. -1.
<mgrwt>
<rscale>  0 0.30897898E+04</rscale>
<asrwt>0</asrwt>
<pdfrwt beam="1">  1        1 0.20214950E+00 0.30897898E+04</pdfrwt>
<pdfrwt beam="2">  1       -1 0.27944638E+00 0.30897898E+04</pdfrwt>
<totfact> 0.33501150E-01</totfact>
</mgrwt>
</event>
<event>
 6    1  0.9562506E-007  0.2469412E+04  0.7818608E-02  0.8413964E-01
         -2   -1    0    0    0  501 -0.00000000000E+00  0.00000000000E+00  0.72955265207E+03  0.72955265207E+03  0.00000000000E+00 0.  1.
          2   -1    0    0  501    0  0.00000000000E+00 -0.00000000000E+00 -0.20896351126E+04  0.20896351126E+04  0.00000000000E+00 0. -1.
         23    2    1    2    0    0 -0.55846339472E+03  0.61352817047E+03 -0.17223099148E+04  0.19139215565E+04  0.91902679798E+02 0.  0.
         13    1    3    3    0    0 -0.26832367265E+03  0.34007382193E+03 -0.97532278445E+03  0.10671936711E+04  0.00000000000E+00 0.  1.
        -13    1    3    3    0    0 -0.29013972207E+03  0.27345434855E+03 -0.74698713032E+03  0.84672788540E+03  0.00000000000E+00 0. -1.
         22    1    1    2    0    0  0.55846339472E+03 -0.61352817047E+03  0.36222745421E+03  0.90526620825E+03  0.00000000000E+00 0.  1.
<mgrwt>
<rscale>  0 0.24694119E+04</rscale>
<asrwt>0</asrwt>
<pdfrwt beam="1">  1        2 0.32148232E+00 0.24694119E+04</pdfrwt>
<pdfrwt beam="2">  1       -2 0.11223887E+00 0.24694119E+04</pdfrwt>
<totfact> 0.33309211E+00</totfact>
</mgrwt>
</event>
<event>
 6    1  0.9562506E-007  0.1540216E+04  0.7818608E-02  0.8858142E-01
          2   -1    0    0  501    0  0.00000000000E+00  0.00000000000E+00  0.19146991441E+04  0.19146991441E+04  0.00000000000E+00 0. -1.
         -2   -1    0    0    0  501 -0.00000000000E+00 -0.00000000000E+00 -0.30974381997E+03  0.30974381997E+03  0.00000000000E+00 0.  1.
         23    2    1    2    0    0  0.30479569154E+03  0.61571123111E+03  0.12991028685E+04  0.14724147343E+04  0.91302536818E+02 0.  0.
         11    1    3    3    0    0  0.25287900831E+03  0.52615748280E+03  0.10275122939E+04  0.11817660528E+04  0.00000000000E+00 0.  1.
        -11    1    3    3    0    0  0.51916683233E+02  0.89553748310E+02  0.27159057462E+03  0.29064868150E+03  0.00000000000E+00 0. -1.
         22    1    1    2    0    0 -0.30479569154E+03 -0.61571123111E+03  0.30585245562E+03  0.75202822973E+03  0.00000000000E+00 0. -1.
<mgrwt>
<rscale>  0 0.15402159E+04</rscale>
<asrwt>0</asrwt>
<pdfrwt beam="1">  1        2 0.29456909E+00 0.15402159E+04</pdfrwt>
<pdfrwt beam="2">  1       -2 0.47652897E-01 0.15402159E+04</pdfrwt>
<totfact> 0.29959250E+01</totfact>
</mgrwt>
</event>
<event>
 6    1  0.9562506E-007  0.8670392E+03  0.7818608E-02  0.9467749E-01
          1   -1    0    0  501    0  0.00000000000E+00  0.00000000000E+00  0.37988360945E+04  0.37988360945E+04  0.00000000000E+00 0. -1.
         -1   -1    0    0    0  501 -0.00000000000E+00 -0.00000000000E+00 -0.49472848203E+02  0.49472848203E+02  0.00000000000E+00 0.  1.
         23    2    1    2    0    0 -0.12129465738E+03  0.10675590998E+03  0.36578099519E+04  0.36625908123E+04  0.94279353451E+02 0.  0.
         11    1    3    3    0    0 -0.10561290725E+03  0.58465134210E+02  0.31344768465E+04  0.31368004973E+04  0.00000000000E+00 0. -1.
        -11    1    3    3    0    0 -0.15681750131E+02  0.48290775766E+02  0.52333310533E+03  0.52579031509E+03  0.00000000000E+00 0.  1.
         22    1    1    2    0    0  0.12129465738E+03 -0.10675590998E+03  0.91553294437E+02  0.18571813036E+03  0.00000000000E+00 0.  1.
<mgrwt>
<rscale>  0 0.86703920E+03</rscale>
<asrwt>0</asrwt>
<pdfrwt beam="1">  1        1 0.58443609E+00 0.86703920E+03</pdfrwt>
<pdfrwt beam="2">  1       -1 0.76112104E-02 0.86703920E+03</pdfrwt>
<totfact> 0.14792959E+01</totfact>
</mgrwt>
</event>
<event>
 6    1  0.9562506E-007  0.1587473E+04  0.7818608E-02  0.8828281E-01
          2   -1    0    0  501    0  0.00000000000E+00  0.00000000000E+00  0.59704698736E+03  0.59704698736E+03  0.00000000000E+00 0. -1.
         -2   -1    0    0    0  501 -0.00000000000E+00 -0.00000000000E+00 -0.10552222861E+04  0.10552222861E+04  0.00000000000E+00 0.  1.
         23    2    1    2    0    0  0.56565030909E+03  0.50124952758E+03 -0.47296824886E+03  0.89633925527E+03  0.92269903167E+02 0.  0.
         11    1    3    3    0    0  0.26954265140E+03  0.26763667986E+03 -0.18928417002E+03  0.42439501687E+03  0.00000000000E+00 0.  1.
        -11    1    3    3    0    0  0.29610765770E+03  0.23361284773E+03 -0.28368407884E+03  0.47194423840E+03  0.00000000000E+00 0. -1.
         22    1    1    2    0    0 -0.56565030909E+03 -0.50124952758E+03  0.14792950090E+02  0.75593001822E+03  0.00000000000E+00 0. -1.
<mgrwt>
<rscale>  0 0.15874726E+04</rscale>
<asrwt>0</asrwt>
<pdfrwt beam="1">  1        2 0.91853384E-01 0.15874726E+04</pdfrwt>
<pdfrwt beam="2">  1       -2 0.16234189E+00 0.15874726E+04</pdfrwt>
<totfact> 0.11583636E+01</totfact>
</mgrwt>
</event>
<event>
 6    1  0.9562506E-007  0.2029478E+04  0.7818608E-02  0.8592962E-01
          2   -1    0    0  501    0  0.00000000000E+00  0.00000000000E+00  0.76680674728E+03  0.76680674728E+03  0.00000000000E+00 0. -1.
         -2   -1    0    0    0  501 -0.00000000000E+00 -0.00000000000E+00 -0.13428351020E+04  0.13428351020E+04  0.00000000000E+00 0.  1.
         23    2    1    2    0    0  0.89315597438E+03 -0.30076327313E+02 -0.78369820445E+03  0.11921676281E+04  0.91916253819E+02 0.  0.
         11    1    3    3    0    0  0.29002547183E+03 -0.52687026213E+02 -0.25125117469E+03  0.38732137796E+03  0.00000000000E+00 0. -1.
        -11    1    3    3    0    0  0.60313050255E+03  0.22610698900E+02 -0.53244702976E+03  0.80484625011E+03  0.00000000000E+00 0.  1.
         22    1    1    2    0    0 -0.89315597438E+03  0.30076327313E+02  0.20766984976E+03  0.91747422119E+03  0.00000000000E+00 0. -1.
<mgrwt>
<rscale>  0 0.20294778E+04</rscale>
<asrwt>0</asrwt>
<pdfrwt beam="1">  1        2 0.11797027E+00 0.20294778E+04</pdfrwt>
<pdfrwt beam="2">  1       -2 0.20659001E+00 0.20294778E+04</pdfrwt>
<totfact> 0.40653949E+00</totfact>
</mgrwt>
</event>
<event>
 6    1  0.9562506E-007  0.2105106E+04  0.7818608E-02  0.8558998E-01
          2   -1    0    0  501    0  0.00000000000E+00  0.00000000000E+00  0.17354883129E+04  0.17354883129E+04  0.00000000000E+00 0. -1.
         -2   -1    0    0    0  501 -0.00000000000E+00 -0.00000000000E+00 -0.63836075085E+03  0.63836075085E+03  0.00000000000E+00 0.  1.
         23    2    1    2    0    0 -0.26417317539E+03 -0.96722768320E+03  0.19590925767E+03  0.10256980003E+04  0.91428074601E+02 0.  0.
         11    1    3    3    0    0 -0.55463673930E+02 -0.24849275798E+03  0.88796177146E+02  0.26964723431E+03  0.00000000000E+00 0.  1.
        -11    1    3    3    0    0 -0.20870950146E+03 -0.71873492522E+03  0.10711308052E+03  0.75605076599E+03  0.00000000000E+00 0. -1.
         22    1    1    2    0    0  0.26417317539E+03  0.96722768320E+03  0.90121830439E+03  0.13481510635E+04  0.00000000000E+00 0.  1.
<mgrwt>
<rscale>  0 0.21051058E+04</rscale>
<asrwt>0</asrwt>
<pdfrwt beam="1">  1        2 0.26699820E+00 0.21051058E+04</pdfrwt>
<pdfrwt beam="2">  1       -2 0.98209347E-01 0.21051058E+04</pdfrwt>
<totfact> 0.74416510E+00</totfact>
</mgrwt>
</event>
<event>
 6    1  0.9562506E-007  0.5913198E+04  0.7818608E-02  0.7701258E-01
          2   -1    0    0  501    0  0.00000000000E+00  0.00000000000E+00  0.33763997863E+04  0.33763997863E+04  0.00000000000E+00 0. -1.
         -2   -1    0    0    0  501 -0.00000000000E+00 -0.00000000000E+00 -0.25889936656E+04  0.25889936656E+04  0.00000000000E+00 0.  1.
         23    2    1    2    0    0  0.11742973905E+02 -0.16625760155E+04  0.28593631837E+04  0.33088349684E+04  0.90189395279E+02 0.  0.
         13    1    3    3    0    0  0.31859547529E+02 -0.11831342715E+04  0.19668761254E+04  0.22955224738E+04  0.00000000000E+00 0. -1.
        -13    1    3    3    0    0 -0.20116573624E+02 -0.47944174407E+03  0.89248705829E+03  0.10133124946E+04  0.00000000000E+00 0.  1.
         22    1    1    2    0    0 -0.11742973905E+02  0.16625760155E+04 -0.20719570631E+04  0.26565584835E+04  0.00000000000E+00 0.  1.
<mgrwt>
<rscale>  0 0.59131980E+04</rscale>
<asrwt>0</asrwt>
<pdfrwt beam="1">  1        2 0.51944612E+00 0.59131980E+04</pdfrwt>
<pdfrwt beam="2">  1       -2 0.39830672E+00 0.59131980E+04</pdfrwt>
<totfact> 0.51026793E-03</totfact>
</mgrwt>
</event>
<event>
 6    1  0.9562506E-007  0.7071358E+04  0.7818608E-02  0.7570121E-01
          1   -1    0    0  501    0  0.00000000000E+00  0.00000000000E+00  0.35086607987E+04  0.35086607987E+04  0.00000000000E+00 0. -1.
         -1   -1    0    0    0  501 -0.00000000000E+00 -0.00000000000E+00 -0.35629053978E+04  0.35629053978E+04  0.00000000000E+00 0.  1.
         23    2    1    2    0    0  0.10737042234E+04 -0.26903463871E+04 -0.20535031673E+04  0.35519299561E+04  0.92340204001E+02 0.  0.
         13    1    3    3    0    0  0.19561500764E+03 -0.53325340830E+03 -0.36268972993E+03  0.67392007602E+03  0.00000000000E+00 0.  1.
        -13    1    3    3    0    0  0.87808921573E+03 -0.21570929788E+04 -0.16908134373E+04  0.28780098801E+04  0.00000000000E+00 0. -1.
         22    1    1    2    0    0 -0.10737042234E+04  0.26903463871E+04  0.19992585682E+04  0.35196362404E+04  0.00000000000E+00 0. -1.
<mgrwt>
<rscale>  0 0.70713581E+04</rscale>
<asrwt>0</asrwt>
<pdfrwt beam="1">  1        1 0.53979397E+00 0.70713581E+04</pdfrwt>
<pdfrwt beam="2">  1       -1 0.54813929E+00 0.70713581E+04</pdfrwt>
<totfact> 0.11914201E-04</totfact>
</mgrwt>
</event>
<event>
 6    1  0.9562506E-007  0.1301750E+04  0.7818608E-02  0.9028179E-01
         -1   -1    0    0    0  501 -0.00000000000E+00  0.00000000000E+00  0.37336602832E+03  0.37336602832E+03  0.00000000000E+00 0.  1.
          1   -1    0    0  501    0  0.00000000000E+00 -0.00000000000E+00 -0.11346453450E+04  0.11346453450E+04  0.00000000000E+00 0. -1.
         23    2    1    2    0    0 -0.85740549350E+02  0.51361906023E+03 -0.82771759209E+03  0.98306373286E+03  0.10070704930E+03 0.  0.
         11    1    3    3    0    0 -0.53057635248E+02  0.14025294787E+03 -0.30495625372E+03  0.33982983790E+03  0.00000000000E+00 0. -1.
        -11    1    3    3    0    0 -0.32682914102E+02  0.37336611236E+03 -0.52276133837E+03  0.64323389496E+03  0.00000000000E+00 0.  1.
         22    1    1    2    0    0  0.85740549350E+02 -0.51361906023E+03  0.66438275373E+02  0.52494764050E+03  0.00000000000E+00 0. -1.
<mgrwt>
<rscale>  0 0.13017496E+04</rscale>
<asrwt>0</asrwt>
<pdfrwt beam="1">  1        1 0.17456082E+00 0.13017496E+04</pdfrwt>
<pdfrwt beam="2">  1       -1 0.57440928E-01 0.13017496E+04</pdfrwt>
<totfact> 0.36008795E+01</totfact>
</mgrwt>
</event>
<event>
 6    1  0.9562506E-007  0.3796443E+04  0.7818608E-02  0.8046919E-01
         -1   -1    0    0    0  501 -0.00000000000E+00  0.00000000000E+00  0.10896323691E+04  0.10896323691E+04  0.00000000000E+00 0.  1.
          1   -1    0    0  501    0  0.00000000000E+00 -0.00000000000E+00 -0.33068453187E+04  0.33068453187E+04  0.00000000000E+00 0. -1.
         23    2    1    2    0    0  0.42540199441E+03  0.18172311933E+04 -0.71498405308E+03  0.20006505396E+04  0.90023990013E+02 0.  0.
         13    1    3    3    0    0  0.23604148807E+03  0.81199789709E+03 -0.32108591680E+03  0.90451773611E+03  0.00000000000E+00 0. -1.
        -13    1    3    3    0    0  0.18936050634E+03  0.10052332962E+04 -0.39389813628E+03  0.10961328035E+04  0.00000000000E+00 0.  1.
         22    1    1    2    0    0 -0.42540199441E+03 -0.18172311933E+04 -0.15022288965E+04  0.23958271482E+04  0.00000000000E+00 0.  1.
<mgrwt>
<rscale>  0 0.37964434E+04</rscale>
<asrwt>0</asrwt>
<pdfrwt beam="1">  1        1 0.50874543E+00 0.37964434E+04</pdfrwt>
<pdfrwt beam="2">  1       -1 0.16763575E+00 0.37964434E+04</pdfrwt>
<totfact> 0.71854375E-02</totfact>
</mgrwt>
</event>
<event>
 6    1  0.9562506E-007  0.1428371E+04  0.7818608E-02  0.8933535E-01
          2   -1    0    0  501    0  0.00000000000E+00  0.00000000000E+00  0.11138525536E+04  0.11138525536E+04  0.00000000000E+00 0. -1.
         -2   -1    0    0    0  501 -0.00000000000E+00 -0.00000000000E+00 -0.45792469820E+03  0.45792469820E+03  0.00000000000E+00 0.  1.
         23    2    1    2    0    0 -0.56158080620E+02  0.58570055179E+03  0.76901403955E+03  0.97262171989E+03  0.91714505915E+02 0.  0.
         13    1    3    3    0    0  0.22429376309E+02  0.22690660734E+03  0.30620712310E+03  0.38177544135E+03  0.00000000000E+00 0.  1.
        -13    1    3    3    0    0 -0.78587456929E+02  0.35879394445E+03  0.46280691645E+03  0.59084627855E+03  0.00000000000E+00 0. -1.
         22    1    1    2    0    0  0.56158080620E+02 -0.58570055179E+03 -0.11308618414E+03  0.59915553192E+03  0.00000000000E+00 0. -1.
<mgrwt>
<rscale>  0 0.14283705E+04</rscale>
<asrwt>0</asrwt>
<pdfrwt beam="1">  1        2 0.17136193E+00 0.14283705E+04</pdfrwt>
<pdfrwt beam="2">  1       -2 0.70449954E-01 0.14283705E+04</pdfrwt>
<totfact> 0.38039655E+01</totfact>
</mgrwt>
</event>
<event>
 6    1  0.9562506E-007  0.5004274E+03  0.7818608E-02  0.1013667E+00
         -1   -1    0    0    0  501 -0.00000000000E+00  0.00000000000E+00  0.41100677204E+02  0.41100677204E+02  0.00000000000E+00 0.  1.
          1   -1    0    0  501    0  0.00000000000E+00 -0.00000000000E+00 -0.15232571572E+04  0.15232571572E+04  0.00000000000E+00 0. -1.
         23    2    1    2    0    0  0.10624612154E+03 -0.55806092661E+02 -0.14223061885E+04  0.14302511018E+04  0.90888735058E+02 0.  0.
         13    1    3    3    0    0  0.74826345847E+02  0.29412224460E+00 -0.48460208146E+03  0.49034502740E+03  0.00000000000E+00 0.  1.
        -13    1    3    3    0    0  0.31419775694E+02 -0.56100214905E+02 -0.93770410703E+03  0.93990607443E+03  0.00000000000E+00 0. -1.
         22    1    1    2    0    0 -0.10624612154E+03  0.55806092661E+02 -0.59850291460E+02  0.13410673252E+03  0.00000000000E+00 0.  1.
<mgrwt>
<rscale>  0 0.50042742E+03</rscale>
<asrwt>0</asrwt>
<pdfrwt beam="1">  1        1 0.23434722E+00 0.50042742E+03</pdfrwt>
<pdfrwt beam="2">  1       -1 0.63231820E-02 0.50042742E+03</pdfrwt>
<totfact> 0.83977750E+02</totfact>
</mgrwt>
</event>
<event>
 6    1  0.9562506E-007  0.2563249E+04  0.7818608E-02  0.8380793E-01
         -2   -1    0    0    0  501 -0.00000000000E+00  0.00000000000E+00  0.61568761508E+03  0.61568761508E+03  0.00000000000E+00 0.  1.
          2   -1    0    0  501    0  0.00000000000E+00 -0.00000000000E+00 -0.26678493728E+04  0.26678493728E+04  0.00000000000E+00 0. -1.
         23    2    1    2    0    0  0.64226334537E+03 -0.54962444442E+03 -0.22586330808E+04  0.24133533050E+04  0.90893048988E+02 0.  0.
         11    1    3    3    0    0  0.44986651700E+03 -0.41269986061E+03 -0.15253169459E+04  0.16429524776E+04  0.00000000000E+00 0.  1.
        -11    1    3    3    0    0  0.19239682837E+03 -0.13692458382E+03 -0.73331613487E+03  0.77040082742E+03  0.00000000000E+00 0. -1.
         22    1    1    2    0    0 -0.64226334537E+03  0.54962444442E+03  0.20647132307E+03  0.87018368289E+03  0.00000000000E+00 0.  1.
<mgrwt>
<rscale>  0 0.25632494E+04</rscale>
<asrwt>0</asrwt>
<pdfrwt beam="1">  1        2 0.41043836E+00 0.25632494E+04</pdfrwt>
<pdfrwt beam="2">  1       -2 0.94721174E-01 0.25632494E+04</pdfrwt>
<totfact> 0.23101209E+00</totfact>
</mgrwt>
</event>
<event>
 6    1  0.9562506E-007  0.8156651E+03  0.7818608E-02  0.9537615E-01
         -2   -1    0    0    0  501 -0.00000000000E+00  0.00000000000E+00  0.37976763385E+03  0.37976763385E+03  0.00000000000E+00 0.  1.
          2   -1    0    0  501    0  0.00000000000E+00 -0.00000000000E+00 -0.43797149612E+03  0.43797149612E+03  0.00000000000E+00 0. -1.
         23    2    1    2    0    0  0.19077013413E+03 -0.81911881468E+02  0.31601771696E+03  0.38978517127E+03  0.94670385607E+02 0.  0.
         13    1    3    3    0    0  0.31670736822E+02 -0.12781527688E+02  0.62017599732E+01  0.34711163156E+02  0.00000000000E+00 0.  1.
        -13    1    3    3    0    0  0.15909939731E+03 -0.69130353781E+02  0.30981595698E+03  0.35507400812E+03  0.00000000000E+00 0. -1.
         22    1    1    2    0    0 -0.19077013413E+03  0.81911881468E+02 -0.37422157923E+03  0.42795395870E+03  0.00000000000E+00 0. -1.
<mgrwt>
<rscale>  0 0.81566512E+03</rscale>
<asrwt>0</asrwt>
<pdfrwt beam="1">  1        2 0.67380230E-01 0.81566512E+03</pdfrwt>
<pdfrwt beam="2">  1       -2 0.58425790E-01 0.81566512E+03</pdfrwt>
<totfact> 0.19791561E+02</totfact>
</mgrwt>
</event>
<event>
 6    1  0.9562506E-007  0.1622794E+04  0.7818608E-02  0.8806666E-01
          2   -1    0    0  501    0  0.00000000000E+00  0.00000000000E+00  0.12669624899E+04  0.12669624899E+04  0.00000000000E+00 0. -1.
         -2   -1    0    0    0  501 -0.00000000000E+00 -0.00000000000E+00 -0.51964029508E+03  0.51964029508E+03  0.00000000000E+00 0.  1.
         23    2    1    2    0    0 -0.43344138556E+03  0.57364911038E+03  0.78258225360E+03  0.10667500165E+04  0.92606033453E+02 0.  0.
         13    1    3    3    0    0 -0.16994040121E+03  0.16625210442E+03  0.22084420559E+03  0.32448677220E+03  0.00000000000E+00 0. -1.
        -13    1    3    3    0    0 -0.26350098436E+03  0.40739700596E+03  0.56173804801E+03  0.74226324428E+03  0.00000000000E+00 0.  1.
         22    1    1    2    0    0  0.43344138556E+03 -0.57364911038E+03 -0.35260058789E+02  0.71985276849E+03  0.00000000000E+00 0. -1.
<mgrwt>
<rscale>  0 0.16227936E+04</rscale>
<asrwt>0</asrwt>
<pdfrwt beam="1">  1        2 0.19491731E+00 0.16227936E+04</pdfrwt>
<pdfrwt beam="2">  1       -2 0.79944661E-01 0.16227936E+04</pdfrwt>
<totfact> 0.22909815E+01</totfact>
</mgrwt>
</event>
<event>
 6    1  0.9562506E-007  0.1720332E+04  0.7818608E-02  0.8749852E-01
          1   -1    0    0  501    0  0.00000000000E+00  0.00000000000E+00  0.13341299746E+04  0.13341299746E+04  0.00000000000E+00 0. -1.
         -1   -1    0    0    0  501 -0.00000000000E+00 -0.00000000000E+00 -0.55458299456E+03  0.55458299456E+03  0.00000000000E+00 0.  1.
         23    2    1    2    0    0  0.66867662356E+02 -0.55504207095E+03  0.11049705749E+04  0.12418408790E+04  0.93090346415E+02 0.  0.
         11    1    3    3    0    0  0.55445974085E+02 -0.41543427234E+03  0.73289314629E+03  0.84427024972E+03  0.00000000000E+00 0. -1.
        -11    1    3    3    0    0  0.11421688270E+02 -0.13960779860E+03  0.37207742864E+03  0.39757062931E+03  0.00000000000E+00 0.  1.
         22    1    1    2    0    0 -0.66867662356E+02  0.55504207095E+03 -0.32542359494E+03  0.64687209008E+03  0.00000000000E+00 0.  1.
<mgrwt>
<rscale>  0 0.17203323E+04</rscale>
<asrwt>0</asrwt>
<pdfrwt beam="1">  1        1 0.20525076E+00 0.17203323E+04</pdfrwt>
<pdfrwt beam="2">  1       -1 0.85320461E-01 0.17203323E+04</pdfrwt>
<totfact> 0.11033293E+01</totfact>
</mgrwt>
</event>
<event>
 6    1  0.9562506E-007  0.2166691E+04  0.7818608E-02  0.8532421E-01
          1   -1    0    0  501    0  0.00000000000E+00  0.00000000000E+00  0.23104719839E+04  0.23104719839E+04  0.00000000000E+00 0. -1.
         -1   -1    0    0    0  501 -0.00000000000E+00 -0.00000000000E+00 -0.50796423982E+03  0.50796423982E+03  0.00000000000E+00 0.  1.
         23    2    1    2    0    0  0.10032661843E+04  0.97904138278E+02  0.39335848281E+03  0.10858572508E+04  0.90701797671E+02 0.  0.
         11    1    3    3    0    0  0.52310831335E+03  0.89814718503E+02  0.23194220071E+03  0.57922894923E+03  0.00000000000E+00 0.  1.
        -11    1    3    3    0    0  0.48015787100E+03  0.80894197746E+01  0.16141628210E+03  0.50662830154E+03  0.00000000000E+00 0. -1.
         22    1    1    2    0    0 -0.10032661843E+04 -0.97904138278E+02  0.14091492612E+04  0.17325789729E+04  0.00000000000E+00 0.  1.
<mgrwt>
<rscale>  0 0.21666907E+04</rscale>
<asrwt>0</asrwt>
<pdfrwt beam="1">  1        1 0.35545722E+00 0.21666907E+04</pdfrwt>
<pdfrwt beam="2">  1       -1 0.78148346E-01 0.21666907E+04</pdfrwt>
<totfact> 0.27441821E+00</totfact>
</mgrwt>
</event>
<event>
 6    1  0.9562506E-007  0.5749885E+03  0.7818608E-02  0.9958700E-01
         -2   -1    0    0    0  501 -0.00000000000E+00  0.00000000000E+00  0.35470336613E+02  0.35470336613E+02  0.00000000000E+00 0.  1.
          2   -1    0    0  501    0  0.00000000000E+00 -0.00000000000E+00 -0.23301988244E+04  0.23301988244E+04  0.00000000000E+00 0. -1.
         23    2    1    2    0    0  0.18444486908E+03  0.24784449506E+02 -0.20405240951E+04  0.20506230502E+04  0.81744312949E+02 0.  0.
         11    1    3    3    0    0  0.84081188541E+02  0.48572605409E+02 -0.11663116027E+04  0.11703468284E+04  0.00000000000E+00 0. -1.
        -11    1    3    3    0    0  0.10036368054E+03 -0.23788155903E+02 -0.87421249242E+03  0.88027622179E+03  0.00000000000E+00 0.  1.
         22    1    1    2    0    0 -0.18444486908E+03 -0.24784449506E+02 -0.25420439267E+03  0.31504611078E+03  0.00000000000E+00 0.  1.
<mgrwt>
<rscale>  0 0.57498848E+03</rscale>
<asrwt>0</asrwt>
<pdfrwt beam="1">  1        2 0.35849228E+00 0.57498848E+03</pdfrwt>
<pdfrwt beam="2">  1       -2 0.54569725E-02 0.57498848E+03</pdfrwt>
<totfact> 0.82140865E+02</totfact>
</mgrwt>
</event>
<event>
 6    1  0.1139405E-006  0.2453035E+04  0.7818608E-02  0.8419911E-01
         -1   -1    0    0    0  501 -0.00000000000E+00  0.00000000000E+00  0.12839247840E+04  0.12839247840E+04  0.00000000000E+00 0.  1.
          1   -1    0    0  501    0  0.00000000000E+00 -0.00000000000E+00 -0.11716765973E+04  0.11716765973E+04  0.00000000000E+00 0. -1.
         23    2    1    2    0    0 -0.10246988874E+04 -0.43845274972E+01 -0.61534037367E+03  0.11988547294E+04  0.92638290557E+02 0.  0.
         13    1    3    3    0    0 -0.27260352640E+03  0.98815717375E+01 -0.11885865935E+03  0.29755286752E+03  0.00000000000E+00 0.  1.
        -13    1    3    3    0    0 -0.75209536101E+03 -0.14266099235E+02 -0.49648171431E+03  0.90130186191E+03  0.00000000000E+00 0. -1.
         22    1    1    2    0    0  0.10246988874E+04  0.43845274972E+01  0.72758856037E+03  0.12567466519E+04  0.00000000000E+00 0. -1.
<mgrwt>
<rscale>  0 0.24530345E+04</rscale>
<asrwt>0</asrwt>
<pdfrwt beam="1">  1        1 0.18025794E+00 0.24530345E+04</pdfrwt>
<pdfrwt beam="2">  1       -1 0.19752689E+00 0.24530345E+04</pdfrwt>
<totfact> 0.15655618E+00</totfact>
</mgrwt>
</event>
<event>
 6    1  0.9562506E-007  0.5177873E+04  0.7818608E-02  0.7801639E-01
         -1   -1    0    0    0  501 -0.00000000000E+00  0.00000000000E+00  0.53391993897E+04  0.53391993897E+04  0.00000000000E+00 0.  1.
          1   -1    0    0  501    0  0.00000000000E+00 -0.00000000000E+00 -0.12553555045E+04  0.12553555045E+04  0.00000000000E+00 0. -1.
         23    2    1    2    0    0  0.47757630113E+03 -0.79887707479E+03  0.51183136710E+04  0.52030048800E+04  0.88550791384E+02 0.  0.
         11    1    3    3    0    0  0.36468942514E+03 -0.59649604412E+03  0.36231558815E+04  0.36899951828E+04  0.00000000000E+00 0.  1.
        -11    1    3    3    0    0  0.11288687599E+03 -0.20238103067E+03  0.14951577895E+04  0.15130096972E+04  0.00000000000E+00 0. -1.
         22    1    1    2    0    0 -0.47757630113E+03  0.79887707479E+03 -0.10344697858E+04  0.13915500141E+04  0.00000000000E+00 0. -1.
<mgrwt>
<rscale>  0 0.51778734E+04</rscale>
<asrwt>0</asrwt>
<pdfrwt beam="1">  1        1 0.19313162E+00 0.51778734E+04</pdfrwt>
<pdfrwt beam="2">  1       -1 0.82141528E+00 0.51778734E+04</pdfrwt>
<totfact> 0.34793228E-04</totfact>
</mgrwt>
</event>
<event>
 6    1  0.9562506E-007  0.1613466E+04  0.7818608E-02  0.8812318E-01
         -1   -1    0    0    0  501 -0.00000000000E+00  0.00000000000E+00  0.54529830692E+03  0.54529830692E+03  0.00000000000E+00 0.  1.
          1   -1    0    0  501    0  0.00000000000E+00 -0.00000000000E+00 -0.11935082492E+04  0.11935082492E+04  0.00000000000E+00 0. -1.
         23    2    1    2    0    0  0.78836134803E+03  0.13669448495E+03 -0.41137780649E+03  0.90436754827E+03  0.91923693366E+02 0.  0.
         11    1    3    3    0    0  0.18236610553E+03 -0.57157766952E+00 -0.69384334404E+02  0.19512024244E+03  0.00000000000E+00 0. -1.
        -11    1    3    3    0    0  0.60599524250E+03  0.13726606262E+03 -0.34199347209E+03  0.70924730583E+03  0.00000000000E+00 0.  1.
         22    1    1    2    0    0 -0.78836134803E+03 -0.13669448495E+03 -0.23683213580E+03  0.83443900785E+03  0.00000000000E+00 0.  1.
<mgrwt>
<rscale>  0 0.16134659E+04</rscale>
<asrwt>0</asrwt>
<pdfrwt beam="1">  1        1 0.18361665E+00 0.16134659E+04</pdfrwt>
<pdfrwt beam="2">  1       -1 0.83892047E-01 0.16134659E+04</pdfrwt>
<totfact> 0.14587026E+01</totfact>
</mgrwt>
</event>
<event>
 6    1  0.9562506E-007  0.2856484E+04  0.7818608E-02  0.8285944E-01
         -2   -1    0    0    0  501 -0.00000000000E+00  0.00000000000E+00  0.59275204313E+03  0.59275204313E+03  0.00000000000E+00 0.  1.
          2   -1    0    0  501    0  0.00000000000E+00 -0.00000000000E+00 -0.34413637685E+04  0.34413637685E+04  0.00000000000E+00 0. -1.
         23    2    1    2    0    0 -0.30406417776E+03 -0.11095033986E+04 -0.23383187222E+03  0.11774522864E+04  0.90905042072E+02 0.  0.
         13    1    3    3    0    0 -0.67122561544E+01 -0.12336784282E+03 -0.35392108995E+02  0.12851957206E+03  0.00000000000E+00 0. -1.
        -13    1    3    3    0    0 -0.29735192160E+03 -0.98613555578E+03 -0.19843976323E+03  0.10489327144E+04  0.00000000000E+00 0.  1.
         22    1    1    2    0    0  0.30406417776E+03  0.11095033986E+04 -0.26147798531E+04  0.28566635252E+04  0.00000000000E+00 0. -1.
<mgrwt>
<rscale>  0 0.28564841E+04</rscale>
<asrwt>0</asrwt>
<pdfrwt beam="1">  1        2 0.52944057E+00 0.28564841E+04</pdfrwt>
<pdfrwt beam="2">  1       -2 0.91192624E-01 0.28564841E+04</pdfrwt>
<totfact> 0.79259037E-01</totfact>
</mgrwt>
</event>
<event>
 6    1  0.9562506E-007  0.1101658E+04  0.7818608E-02  0.9203577E-01
         -1   -1    0    0    0  501 -0.00000000000E+00  0.00000000000E+00  0.16201042529E+03  0.16201042529E+03  0.00000000000E+00 0.  1.
          1   -1    0    0  501    0  0.00000000000E+00 -0.00000000000E+00 -0.18727975526E+04  0.18727975526E+04  0.00000000000E+00 0. -1.
         23    2    1    2    0    0 -0.26379458116E+03  0.45793530988E+03 -0.11210596886E+04  0.12429299690E+04  0.93849630804E+02 0.  0.
         13    1    3    3    0    0 -0.19499702960E+03  0.27154084294E+03 -0.77222238267E+03  0.84147827020E+03  0.00000000000E+00 0.  1.
        -13    1    3    3    0    0 -0.68797551561E+02  0.18639446694E+03 -0.34883730596E+03  0.40145169876E+03  0.00000000000E+00 0. -1.
         22    1    1    2    0    0  0.26379458116E+03 -0.45793530988E+03 -0.58972743867E+03  0.79187800891E+03  0.00000000000E+00 0.  1.
<mgrwt>
<rscale>  0 0.11016583E+04</rscale>
<asrwt>0</asrwt>
<pdfrwt beam="1">  1        1 0.28812271E+00 0.11016583E+04</pdfrwt>
<pdfrwt beam="2">  1       -1 0.24924680E-01 0.11016583E+04</pdfrwt>
<totfact> 0.51095005E+01</totfact>
</mgrwt>
</event>
<event>
 6    1  0.9562506E-007  0.3729317E+04  0.7818608E-02  0.8061496E-01
          2   -1    0    0  501    0  0.00000000000E+00  0.00000000000E+00  0.39153375659E+04  0.39153375659E+04  0.00000000000E+00 0. -1.
         -2   -1    0    0    0  501 -0.00000000000E+00 -0.00000000000E+00 -0.88803341403E+03  0.88803341403E+03  0.00000000000E+00 0.  1.
         23    2    1    2    0    0  0.10714826313E+04 -0.15235602837E+04  0.14376204704E+04  0.23546151378E+04  0.90271052769E+02 0.  0.
         11    1    3    3    0    0  0.60556463565E+03 -0.87518059389E+03  0.87663455723E+03  0.13788175176E+04  0.00000000000E+00 0. -1.
        -11    1    3    3    0    0  0.46591799561E+03 -0.64837968982E+03  0.56098591316E+03  0.97579762019E+03  0.00000000000E+00 0.  1.
         22    1    1    2    0    0 -0.10714826313E+04  0.15235602837E+04  0.15896836814E+04  0.24487558421E+04  0.00000000000E+00 0.  1.
<mgrwt>
<rscale>  0 0.37293166E+04</rscale>
<asrwt>0</asrwt>
<pdfrwt beam="1">  1        2 0.60235962E+00 0.37293166E+04</pdfrwt>
<pdfrwt beam="2">  1       -2 0.13662053E+00 0.37293166E+04</pdfrwt>
<totfact> 0.12301400E-01</totfact>
</mgrwt>
</event>
<event>
 6    1  0.9562506E-007  0.1403316E+04  0.7818608E-02  0.8951422E-01
         -1   -1    0    0    0  501 -0.00000000000E+00  0.00000000000E+00  0.39304287982E+03  0.39304287982E+03  0.00000000000E+00 0.  1.
          1   -1    0    0  501    0  0.00000000000E+00 -0.00000000000E+00 -0.12525962042E+04  0.12525962042E+04  0.00000000000E+00 0. -1.
         23    2    1    2    0    0  0.31299703538E+03 -0.57537153481E+03 -0.71737219510E+03  0.97538911517E+03  0.87985865113E+02 0.  0.
         13    1    3    3    0    0  0.23974999519E+03 -0.44772514478E+03 -0.60690704540E+03  0.79137477040E+03  0.00000000000E+00 0.  1.
        -13    1    3    3    0    0  0.73247040190E+02 -0.12764639003E+03 -0.11046514970E+03  0.18401434477E+03  0.00000000000E+00 0. -1.
         22    1    1    2    0    0 -0.31299703538E+03  0.57537153481E+03 -0.14218112929E+03  0.67024996886E+03  0.00000000000E+00 0.  1.
<mgrwt>
<rscale>  0 0.14033161E+04</rscale>
<asrwt>0</asrwt>
<pdfrwt beam="1">  1        1 0.19270711E+00 0.14033161E+04</pdfrwt>
<pdfrwt beam="2">  1       -1 0.60468136E-01 0.14033161E+04</pdfrwt>
<totfact> 0.26451558E+01</totfact>
</mgrwt>
</event>
<event>
 6    1  0.9562506E-007  0.1790526E+04  0.7818608E-02  0.8711354E-01
         -2   -1    0    0    0  501 -0.00000000000E+00  0.00000000000E+00  0.43314778778E+03  0.43314778778E+03  0.00000000000E+00 0.  1.
          2   -1    0    0  501    0  0.00000000000E+00 -0.00000000000E+00 -0.18503987197E+04  0.18503987197E+04  0.00000000000E+00 0. -1.
         23    2    1    2    0    0 -0.39977169686E+03 -0.71151462134E+03 -0.11723995086E+04  0.14314768592E+04  0.92384656642E+02 0.  0.
         13    1    3    3    0    0 -0.21279438783E+03 -0.45919597060E+03 -0.68559636562E+03  0.85216475370E+03  0.00000000000E+00 0.  1.
        -13    1    3    3    0    0 -0.18697730903E+03 -0.25231865074E+03 -0.48680314296E+03  0.57931210552E+03  0.00000000000E+00 0. -1.
         22    1    1    2    0    0  0.39977169686E+03  0.71151462134E+03 -0.24485142337E+03  0.85206964828E+03  0.00000000000E+00 0.  1.
<mgrwt>
<rscale>  0 0.17905263E+04</rscale>
<asrwt>0</asrwt>
<pdfrwt beam="1">  1        2 0.28467673E+00 0.17905263E+04</pdfrwt>
<pdfrwt beam="2">  1       -2 0.66638121E-01 0.17905263E+04</pdfrwt>
<totfact> 0.15813175E+01</totfact>
</mgrwt>
</event>
<event>
 6    1  0.9562506E-007  0.7857043E+03  0.7818608E-02  0.9580943E-01
          1   -1    0    0  501    0  0.00000000000E+00  0.00000000000E+00  0.21980171946E+04  0.21980171946E+04  0.00000000000E+00 0. -1.
         -1   -1    0    0    0  501 -0.00000000000E+00 -0.00000000000E+00 -0.70214560154E+02  0.70214560154E+02  0.00000000000E+00 0.  1.
         23    2    1    2    0    0 -0.34305251449E+03  0.42312166500E+02  0.15819303769E+04  0.16221266018E+04  0.96517603262E+02 0.  0.
         13    1    3    3    0    0 -0.19112687509E+03  0.89808307351E-01  0.10525077916E+04  0.10697205905E+04  0.00000000000E+00 0.  1.
        -13    1    3    3    0    0 -0.15192563940E+03  0.42222358193E+02  0.52942258535E+03  0.55240601129E+03  0.00000000000E+00 0. -1.
         22    1    1    2    0    0  0.34305251449E+03 -0.42312166500E+02  0.54587225754E+03  0.64610515296E+03  0.00000000000E+00 0.  1.
<mgrwt>
<rscale>  0 0.78570430E+03</rscale>
<asrwt>0</asrwt>
<pdfrwt beam="1">  1        1 0.33815644E+00 0.78570430E+03</pdfrwt>
<pdfrwt beam="2">  1       -1 0.10802242E-01 0.78570430E+03</pdfrwt>
<totfact> 0.12575946E+02</totfact>
</mgrwt>
</event>
<event>
 6    1  0.9562506E-007  0.3220270E+04  0.7818608E-02  0.8183484E-01
          1   -1    0    0  501    0  0.00000000000E+00  0.00000000000E+00  0.27430125015E+04  0.27430125015E+04  0.00000000000E+00 0. -1.
         -1   -1    0    0    0  501 -0.00000000000E+00 -0.00000000000E+00 -0.94514169116E+03  0.94514169116E+03  0.00000000000E+00 0.  1.
         23    2    1    2    0    0 -0.11949650898E+04  0.49834563718E+03 -0.19431536042E+03  0.13122131835E+04  0.88628662417E+02 0.  0.
         13    1    3    3    0    0 -0.65747221371E+03  0.27309067283E+03 -0.15137803512E+03  0.72784856729E+03  0.00000000000E+00 0. -1.
        -13    1    3    3    0    0 -0.53749287608E+03  0.22525496435E+03 -0.42937325291E+02  0.58436461623E+03  0.00000000000E+00 0.  1.
         22    1    1    2    0    0  0.11949650898E+04 -0.49834563718E+03  0.19921861708E+04  0.23759410091E+04  0.00000000000E+00 0.  1.
<mgrwt>
<rscale>  0 0.32202705E+04</rscale>
<asrwt>0</asrwt>
<pdfrwt beam="1">  1        1 0.42200192E+00 0.32202705E+04</pdfrwt>
<pdfrwt beam="2">  1       -1 0.14540642E+00 0.32202705E+04</pdfrwt>
<totfact> 0.28964080E-01</totfact>
</mgrwt>
</event>
<event>
 6    1  0.9562506E-007  0.3674958E+04  0.7818608E-02  0.8073534E-01
          1   -1    0    0  501    0  0.00000000000E+00  0.00000000000E+00  0.15734201727E+04  0.15734201727E+04  0.00000000000E+00 0. -1.
         -1   -1    0    0    0  501 -0.00000000000E+00 -0.00000000000E+00 -0.21458538190E+04  0.21458538190E+04  0.00000000000E+00 0.  1.
         23    2    1    2    0    0  0.10738602902E+04  0.14864196845E+04 -0.18776864349E+03  0.18456180560E+04  0.91812546614E+02 0.  0.
         11    1    3    3    0    0  0.80245660601E+03  0.10755295215E+04 -0.17254436639E+03  0.13529493392E+04  0.00000000000E+00 0.  1.
        -11    1    3    3    0    0  0.27140368415E+03  0.41089016304E+03 -0.15224277101E+02  0.49266871676E+03  0.00000000000E+00 0. -1.
         22    1    1    2    0    0 -0.10738602902E+04 -0.14864196845E+04 -0.38466500282E+03  0.18736559358E+04  0.00000000000E+00 0. -1.
<mgrwt>
<rscale>  0 0.36749583E+04</rscale>
<asrwt>0</asrwt>
<pdfrwt beam="1">  1        1 0.24206464E+00 0.36749583E+04</pdfrwt>
<pdfrwt beam="2">  1       -1 0.33013135E+00 0.36749583E+04</pdfrwt>
<totfact> 0.98284326E-02</totfact>
</mgrwt>
</event>
<event>
 6    1  0.9562506E-007  0.2953451E+04  0.7818608E-02  0.8257150E-01
          2   -1    0    0  501    0  0.00000000000E+00  0.00000000000E+00  0.37535424048E+04  0.37535424048E+04  0.00000000000E+00 0. -1.
         -2   -1    0    0    0  501 -0.00000000000E+00 -0.00000000000E+00 -0.58097590372E+03  0.58097590372E+03  0.00000000000E+00 0.  1.
         23    2    1    2    0    0  0.71261089588E+03  0.44620370615E+03  0.33670146007E+04  0.34715454817E+04  0.89043101384E+02 0.  0.
         13    1    3    3    0    0  0.38364484369E+02  0.72712136855E+01  0.11328908072E+03  0.11982954569E+03  0.00000000000E+00 0.  1.
        -13    1    3    3    0    0  0.67424641151E+03  0.43893249246E+03  0.32537255200E+04  0.33517159360E+04  0.00000000000E+00 0. -1.
         22    1    1    2    0    0 -0.71261089588E+03 -0.44620370615E+03 -0.19444809966E+03  0.86297282678E+03  0.00000000000E+00 0.  1.
<mgrwt>
<rscale>  0 0.29534507E+04</rscale>
<asrwt>0</asrwt>
<pdfrwt beam="1">  1        2 0.57746805E+00 0.29534507E+04</pdfrwt>
<pdfrwt beam="2">  1       -2 0.89380911E-01 0.29534507E+04</pdfrwt>
<totfact> 0.49104934E-01</totfact>
</mgrwt>
</event>
<event>
 6    1  0.9562506E-007  0.1135108E+04  0.7818608E-02  0.9171633E-01
          1   -1    0    0  501    0  0.00000000000E+00  0.00000000000E+00  0.68139826963E+03  0.68139826963E+03  0.00000000000E+00 0. -1.
         -1   -1    0    0    0  501 -0.00000000000E+00 -0.00000000000E+00 -0.47273020635E+03  0.47273020635E+03  0.00000000000E+00 0.  1.
         23    2    1    2    0    0  0.14205146559E+03  0.39538971688E+03 -0.27792773718E+03  0.51125436692E+03  0.87324415319E+02 0.  0.
         11    1    3    3    0    0  0.10048124514E+03  0.20562034265E+03 -0.10760428591E+03  0.25289303724E+03  0.00000000000E+00 0. -1.
        -11    1    3    3    0    0  0.41570220454E+02  0.18976937422E+03 -0.17032345127E+03  0.25836132968E+03  0.00000000000E+00 0.  1.
         22    1    1    2    0    0 -0.14205146559E+03 -0.39538971688E+03  0.48659580046E+03  0.64287410907E+03  0.00000000000E+00 0. -1.
<mgrwt>
<rscale>  0 0.11351080E+04</rscale>
<asrwt>0</asrwt>
<pdfrwt beam="1">  1        1 0.10483050E+00 0.11351080E+04</pdfrwt>
<pdfrwt beam="2">  1       -1 0.72727724E-01 0.11351080E+04</pdfrwt>
<totfact> 0.53811579E+01</totfact>
</mgrwt>
</event>
<event>
 6    1  0.9562506E-007  0.4448604E+04  0.7818608E-02  0.7919697E-01
          2   -1    0    0  501    0  0.00000000000E+00  0.00000000000E+00  0.25460729274E+04  0.25460729274E+04  0.00000000000E+00 0. -1.
         -2   -1    0    0    0  501 -0.00000000000E+00 -0.00000000000E+00 -0.19431965118E+04  0.19431965118E+04  0.00000000000E+00 0.  1.
         23    2    1    2    0    0 -0.19486280317E+04  0.10438538525E+04  0.54187251839E+03  0.22778211475E+04  0.89784645493E+02 0.  0.
         11    1    3    3    0    0 -0.65156574378E+03  0.39604512002E+03  0.17630212568E+03  0.78260596412E+03  0.00000000000E+00 0. -1.
        -11    1    3    3    0    0 -0.12970622879E+04  0.64780873251E+03  0.36557039271E+03  0.14952151834E+04  0.00000000000E+00 0.  1.
         22    1    1    2    0    0  0.19486280317E+04 -0.10438538525E+04  0.61003897220E+02  0.22114482917E+04  0.00000000000E+00 0. -1.
<mgrwt>
<rscale>  0 0.44486043E+04</rscale>
<asrwt>0</asrwt>
<pdfrwt beam="1">  1        2 0.39170353E+00 0.44486043E+04</pdfrwt>
<pdfrwt beam="2">  1       -2 0.29895331E+00 0.44486043E+04</pdfrwt>
<totfact> 0.80319902E-02</totfact>
</mgrwt>
</event>
<event>
 6    1  0.9562506E-007  0.3444064E+04  0.7818608E-02  0.8127176E-01
         -2   -1    0    0    0  501 -0.00000000000E+00  0.00000000000E+00  0.94113172682E+03  0.94113172682E+03  0.00000000000E+00 0.  1.
          2   -1    0    0  501    0  0.00000000000E+00 -0.00000000000E+00 -0.31508805431E+04  0.31508805431E+04  0.00000000000E+00 0. -1.
         23    2    1    2    0    0 -0.91538804434E+03 -0.10350046353E+03  0.62124461179E+03  0.11149043768E+04  0.91756656583E+02 0.  0.
         13    1    3    3    0    0 -0.30736033034E+03 -0.14847390295E+02  0.16174233360E+03  0.34763687973E+03  0.00000000000E+00 0. -1.
        -13    1    3    3    0    0 -0.60802771399E+03 -0.88653073236E+02  0.45950227819E+03  0.76726749706E+03  0.00000000000E+00 0.  1.
         22    1    1    2    0    0  0.91538804434E+03  0.10350046353E+03 -0.28309934281E+04  0.29771078932E+04  0.00000000000E+00 0. -1.
<mgrwt>
<rscale>  0 0.34440637E+04</rscale>
<asrwt>0</asrwt>
<pdfrwt beam="1">  1        2 0.48475086E+00 0.34440637E+04</pdfrwt>
<pdfrwt beam="2">  1       -2 0.14478950E+00 0.34440637E+04</pdfrwt>
<totfact> 0.37858601E-01</totfact>
</mgrwt>
</event>
<event>
 6    1  0.9562506E-007  0.2511995E+04  0.7818608E-02  0.8398725E-01
          1   -1    0    0  501    0  0.00000000000E+00  0.00000000000E+00  0.37726247321E+04  0.37726247321E+04  0.00000000000E+00 0. -1.
         -1   -1    0    0    0  501 -0.00000000000E+00 -0.00000000000E+00 -0.41815165985E+03  0.41815165985E+03  0.00000000000E+00 0.  1.
         23    2    1    2    0    0  0.12393700838E+04  0.11118079600E+03  0.19402541317E+04  0.23070527960E+04  0.97504532516E+02 0.  0.
         13    1    3    3    0    0  0.10000310209E+04  0.11956863816E+03  0.16109618292E+04  0.18998833430E+04  0.00000000000E+00 0. -1.
        -13    1    3    3    0    0  0.23933906298E+03 -0.83878421602E+01  0.32929230245E+03  0.40716945295E+03  0.00000000000E+00 0.  1.
         22    1    1    2    0    0 -0.12393700838E+04 -0.11118079600E+03  0.14142189405E+04  0.18837235959E+04  0.00000000000E+00 0. -1.
<mgrwt>
<rscale>  0 0.25119947E+04</rscale>
<asrwt>0</asrwt>
<pdfrwt beam="1">  1        1 0.58040378E+00 0.25119947E+04</pdfrwt>
<pdfrwt beam="2">  1       -1 0.64331027E-01 0.25119947E+04</pdfrwt>
<totfact> 0.32725658E-01</totfact>
</mgrwt>
</event>
<event>
 6    1  0.9562506E-007  0.4161418E+04  0.7818608E-02  0.7972752E-01
          1   -1    0    0  501    0  0.00000000000E+00  0.00000000000E+00  0.27278585366E+04  0.27278585366E+04  0.00000000000E+00 0. -1.
         -1   -1    0    0    0  501 -0.00000000000E+00 -0.00000000000E+00 -0.15870872565E+04  0.15870872565E+04  0.00000000000E+00 0.  1.
         23    2    1    2    0    0 -0.18376834435E+04 -0.31890684254E+03 -0.38323391891E+03  0.19063416622E+04  0.92131881409E+02 0.  0.
         13    1    3    3    0    0 -0.14794435544E+04 -0.27016697278E+03 -0.27405370604E+03  0.15286755239E+04  0.00000000000E+00 0. -1.
        -13    1    3    3    0    0 -0.35823988916E+03 -0.48739869765E+02 -0.10918021287E+03  0.37766613824E+03  0.00000000000E+00 0.  1.
         22    1    1    2    0    0  0.18376834435E+04  0.31890684254E+03  0.15240051990E+04  0.24086041309E+04  0.00000000000E+00 0. -1.
<mgrwt>
<rscale>  0 0.41614178E+04</rscale>
<asrwt>0</asrwt>
<pdfrwt beam="1">  1        1 0.41967054E+00 0.41614178E+04</pdfrwt>
<pdfrwt beam="2">  1       -1 0.24416727E+00 0.41614178E+04</pdfrwt>
<totfact> 0.55139882E-02</totfact>
</mgrwt>
</event>
<event>
 6    1  0.9562506E-007  0.5202926E+03  0.7818608E-02  0.1008614E+00
          2   -1    0    0  501    0  0.00000000000E+00  0.00000000000E+00  0.31478794819E+04  0.31478794819E+04  0.00000000000E+00 0. -1.
         -2   -1    0    0    0  501 -0.00000000000E+00 -0.00000000000E+00 -0.21498950013E+02  0.21498950013E+02  0.00000000000E+00 0.  1.
         23    2    1    2    0    0 -0.17363708427E+03 -0.92250508848E+02  0.25735942358E+04  0.25826649733E+04  0.90061535359E+02 0.  0.
         11    1    3    3    0    0 -0.71192624389E+02 -0.91287503933E+00  0.58036332238E+03  0.58471429696E+03  0.00000000000E+00 0.  1.
        -11    1    3    3    0    0 -0.10244445988E+03 -0.91337633809E+02  0.19932309135E+04  0.19979506763E+04  0.00000000000E+00 0. -1.
         22    1    1    2    0    0  0.17363708427E+03  0.92250508848E+02  0.55278629601E+03  0.58671345858E+03  0.00000000000E+00 0.  1.
<mgrwt>
<rscale>  0 0.52029262E+03</rscale>
<asrwt>0</asrwt>
<pdfrwt beam="1">  1        2 0.48428878E+00 0.52029262E+03</pdfrwt>
<pdfrwt beam="2">  1       -2 0.33075333E-02 0.52029262E+03</pdfrwt>
<totfact> 0.59565076E+02</totfact>
</mgrwt>
</event>
<event>
 6    1  0.9562506E-007  0.1290919E+04  0.7818608E-02  0.9036798E-01
         -2   -1    0    0    0  501 -0.00000000000E+00  0.00000000000E+00  0.47417418655E+03  0.47417418655E+03  0.00000000000E+00 0.  1.
          2   -1    0    0  501    0  0.00000000000E+00 -0.00000000000E+00 -0.87861777532E+03  0.87861777532E+03  0.00000000000E+00 0. -1.
         23    2    1    2    0    0 -0.37062124081E+03  0.21805549320E+03  0.29725281932E+03  0.52981799425E+03  0.86252919827E+02 0.  0.
         13    1    3    3    0    0 -0.17266283213E+03  0.14460671873E+03  0.12682000733E+03  0.25847025159E+03  0.00000000000E+00 0. -1.
        -13    1    3    3    0    0 -0.19795840869E+03  0.73448774473E+02  0.17043281199E+03  0.27134774266E+03  0.00000000000E+00 0.  1.
         22    1    1    2    0    0  0.37062124081E+03 -0.21805549320E+03 -0.70169640809E+03  0.82297396762E+03  0.00000000000E+00 0. -1.
<mgrwt>
<rscale>  0 0.12909188E+04</rscale>
<asrwt>0</asrwt>
<pdfrwt beam="1">  1        2 0.13517197E+00 0.12909188E+04</pdfrwt>
<pdfrwt beam="2">  1       -2 0.72949875E-01 0.12909188E+04</pdfrwt>
<totfact> 0.50511403E+01</totfact>
</mgrwt>
</event>
<event>
 6    1  0.9562506E-007  0.2868654E+04  0.7818608E-02  0.8282265E-01
         -1   -1    0    0    0  501 -0.00000000000E+00  0.00000000000E+00  0.96523922489E+03  0.96523922489E+03  0.00000000000E+00 0.  1.
          1   -1    0    0  501    0  0.00000000000E+00 -0.00000000000E+00 -0.21313818335E+04  0.21313818335E+04  0.00000000000E+00 0. -1.
         23    2    1    2    0    0  0.13729842704E+03 -0.14253397165E+04 -0.52924954575E+03  0.15294334694E+04  0.92830437025E+02 0.  0.
         13    1    3    3    0    0  0.32166027580E+01 -0.49289906894E+03 -0.18299457048E+03  0.52578213313E+03  0.00000000000E+00 0.  1.
        -13    1    3    3    0    0  0.13408182428E+03 -0.93244064758E+03 -0.34625497527E+03  0.10036513363E+04  0.00000000000E+00 0. -1.
         22    1    1    2    0    0 -0.13729842704E+03  0.14253397165E+04 -0.63689306283E+03  0.15671875890E+04  0.00000000000E+00 0. -1.
<mgrwt>
<rscale>  0 0.28686536E+04</rscale>
<asrwt>0</asrwt>
<pdfrwt beam="1">  1        1 0.32790489E+00 0.28686536E+04</pdfrwt>
<pdfrwt beam="2">  1       -1 0.14849834E+00 0.28686536E+04</pdfrwt>
<totfact> 0.74845084E-01</totfact>
</mgrwt>
</event>
<event>
 6    1  0.9562506E-007  0.3854438E+04  0.7818608E-02  0.8034573E-01
         -1   -1    0    0    0  501 -0.00000000000E+00  0.00000000000E+00  0.15362537700E+04  0.15362537700E+04  0.00000000000E+00 0.  1.
          1   -1    0    0  501    0  0.00000000000E+00 -0.00000000000E+00 -0.24176819798E+04  0.24176819798E+04  0.00000000000E+00 0. -1.
         23    2    1    2    0    0 -0.80026894561E+03 -0.12764869819E+04 -0.16718119714E+04  0.22525963096E+04  0.96878616260E+02 0.  0.
         11    1    3    3    0    0 -0.92661324926E+02 -0.21345587703E+03 -0.25517384352E+03  0.34534507814E+03  0.00000000000E+00 0. -1.
        -11    1    3    3    0    0 -0.70760762068E+03 -0.10630311049E+04 -0.14166381278E+04  0.19072512315E+04  0.00000000000E+00 0.  1.
         22    1    1    2    0    0  0.80026894561E+03  0.12764869819E+04  0.79038376156E+03  0.17013394402E+04  0.00000000000E+00 0.  1.
<mgrwt>
<rscale>  0 0.38544380E+04</rscale>
<asrwt>0</asrwt>
<pdfrwt beam="1">  1        1 0.37195108E+00 0.38544380E+04</pdfrwt>
<pdfrwt beam="2">  1       -1 0.23634673E+00 0.38544380E+04</pdfrwt>
<totfact> 0.10484760E-01</totfact>
</mgrwt>
</event>
<event>
 6    1  0.9562506E-007  0.1823888E+04  0.7818608E-02  0.8693698E-01
         -2   -1    0    0    0  501 -0.00000000000E+00  0.00000000000E+00  0.26570185098E+03  0.26570185098E+03  0.00000000000E+00 0.  1.
          2   -1    0    0  501    0  0.00000000000E+00 -0.00000000000E+00 -0.31299831326E+04  0.31299831326E+04  0.00000000000E+00 0. -1.
         23    2    1    2    0    0 -0.86896985184E+03 -0.17132663378E+03 -0.18220630967E+04  0.20279568805E+04  0.90740080623E+02 0.  0.
         11    1    3    3    0    0 -0.81163225213E+03 -0.13602737383E+03 -0.16785023129E+04  0.18693903749E+04  0.00000000000E+00 0. -1.
        -11    1    3    3    0    0 -0.57337599711E+02 -0.35299259951E+02 -0.14356078376E+03  0.15856650570E+03  0.00000000000E+00 0.  1.
         22    1    1    2    0    0  0.86896985184E+03  0.17132663378E+03 -0.10422181850E+04  0.13677281031E+04  0.00000000000E+00 0. -1.
<mgrwt>
<rscale>  0 0.18238885E+04</rscale>
<asrwt>0</asrwt>
<pdfrwt beam="1">  1        2 0.48153582E+00 0.18238885E+04</pdfrwt>
<pdfrwt beam="2">  1       -2 0.40877212E-01 0.18238885E+04</pdfrwt>
<totfact> 0.77234334E+00</totfact>
</mgrwt>
</event>
<event>
 6    1  0.9562506E-007  0.2129325E+04  0.7818608E-02  0.8548434E-01
         -2   -1    0    0    0  501 -0.00000000000E+00  0.00000000000E+00  0.10734815836E+04  0.10734815836E+04  0.00000000000E+00 0.  1.
          2   -1    0    0  501    0  0.00000000000E+00 -0.00000000000E+00 -0.10559158600E+04  0.10559158600E+04  0.00000000000E+00 0. -1.
         23    2    1    2    0    0  0.94771463693E+03 -0.40697536705E+03 -0.24736560219E+03  0.10645121964E+04  0.90578654344E+02 0.  0.
         11    1    3    3    0    0  0.28294776470E+03 -0.15482283509E+03 -0.10687695392E+03  0.33978262330E+03  0.00000000000E+00 0. -1.
        -11    1    3    3    0    0  0.66476687223E+03 -0.25215253196E+03 -0.14048864827E+03  0.72472957307E+03  0.00000000000E+00 0.  1.
         22    1    1    2    0    0 -0.94771463693E+03  0.40697536705E+03  0.26493132584E+03  0.10648852473E+04  0.00000000000E+00 0. -1.
<mgrwt>
<rscale>  0 0.21293250E+04</rscale>
<asrwt>0</asrwt>
<pdfrwt beam="1">  1        2 0.16244859E+00 0.21293250E+04</pdfrwt>
<pdfrwt beam="2">  1       -2 0.16515101E+00 0.21293250E+04</pdfrwt>
<totfact> 0.49269127E+00</totfact>
</mgrwt>
</event>
<event>
 6    1  0.9562506E-007  0.2575733E+04  0.7818608E-02  0.8376491E-01
          1   -1    0    0  501    0  0.00000000000E+00  0.00000000000E+00  0.11177866044E+04  0.11177866044E+04  0.00000000000E+00 0. -1.
         -1   -1    0    0    0  501 -0.00000000000E+00 -0.00000000000E+00 -0.14838257688E+04  0.14838257688E+04  0.00000000000E+00 0.  1.
         23    2    1    2    0    0  0.52796839619E+02 -0.10371690575E+04  0.58305179589E+03  0.11947432211E+04  0.94629844246E+02 0.  0.
         13    1    3    3    0    0  0.79257403518E+02 -0.68579667846E+03  0.37875825759E+03  0.78743675168E+03  0.00000000000E+00 0.  1.
        -13    1    3    3    0    0 -0.26460563899E+02 -0.35137237906E+03  0.20429353830E+03  0.40730646938E+03  0.00000000000E+00 0. -1.
         22    1    1    2    0    0 -0.52796839619E+02  0.10371690575E+04 -0.94909096030E+03  0.14068691521E+04  0.00000000000E+00 0.  1.
<mgrwt>
<rscale>  0 0.25757333E+04</rscale>
<asrwt>0</asrwt>
<pdfrwt beam="1">  1        1 0.17196717E+00 0.25757333E+04</pdfrwt>
<pdfrwt beam="2">  1       -1 0.22828089E+00 0.25757333E+04</pdfrwt>
<totfact> 0.10514943E+00</totfact>
</mgrwt>
</event>
<event>
 6    1  0.9562506E-007  0.4357374E+03  0.7818608E-02  0.1032063E+00
         -2   -1    0    0    0  501 -0.00000000000E+00  0.00000000000E+00  0.93263032542E+02  0.93263032542E+02  0.00000000000E+00 0.  1.
          2   -1    0    0  501    0  0.00000000000E+00 -0.00000000000E+00 -0.50895588345E+03  0.50895588345E+03  0.00000000000E+00 0. -1.
         23    2    1    2    0    0  0.18190972980E+03 -0.62870893685E+02 -0.32363507101E+03  0.38886818619E+03  0.97133454446E+02 0.  0.
         11    1    3    3    0    0  0.86599332963E+02 -0.57846330456E+02 -0.94407076098E+02  0.14056435691E+03  0.00000000000E+00 0. -1.
        -11    1    3    3    0    0  0.95310396833E+02 -0.50245632290E+01 -0.22922799492E+03  0.24830382928E+03  0.00000000000E+00 0.  1.
         22    1    1    2    0    0 -0.18190972980E+03  0.62870893685E+02 -0.92057779889E+02  0.21335072980E+03  0.00000000000E+00 0.  1.
<mgrwt>
<rscale>  0 0.43573739E+03</rscale>
<asrwt>0</asrwt>
<pdfrwt beam="1">  1        2 0.78300906E-01 0.43573739E+03</pdfrwt>
<pdfrwt beam="2">  1       -2 0.14348159E-01 0.43573739E+03</pdfrwt>
<totfact> 0.22625021E+03</totfact>
</mgrwt>
</event>
<event>
 6    1  0.9562506E-007  0.7135410E+03  0.7818608E-02  0.9694352E-01
          1   -1    0    0  501    0  0.00000000000E+00  0.00000000000E+00  0.53120844273E+03  0.53120844273E+03  0.00000000000E+00 0. -1.
         -1   -1    0    0    0  501 -0.00000000000E+00 -0.00000000000E+00 -0.23961436473E+03  0.23961436473E+03  0.00000000000E+00 0.  1.
         23    2    1    2    0    0  0.59843075937E+02  0.17533518739E+03 -0.17359181025E+03  0.27010179503E+03  0.92180482834E+02 0.  0.
         13    1    3    3    0    0  0.58414035053E+02  0.60006731338E+02 -0.11046206089E+03  0.13861772684E+03  0.00000000000E+00 0.  1.
        -13    1    3    3    0    0  0.14290408832E+01  0.11532845605E+03 -0.63129749359E+02  0.13148406819E+03  0.00000000000E+00 0. -1.
         22    1    1    2    0    0 -0.59843075937E+02 -0.17533518739E+03  0.46518588824E+03  0.50072101244E+03  0.00000000000E+00 0. -1.
<mgrwt>
<rscale>  0 0.71354095E+03</rscale>
<asrwt>0</asrwt>
<pdfrwt beam="1">  1        1 0.81724376E-01 0.71354095E+03</pdfrwt>
<pdfrwt beam="2">  1       -1 0.36863748E-01 0.71354095E+03</pdfrwt>
<totfact> 0.29139284E+02</totfact>
</mgrwt>
</event>
<event>
 6    1  0.9562506E-007  0.8938665E+03  0.7818608E-02  0.9433281E-01
         -1   -1    0    0    0  501 -0.00000000000E+00  0.00000000000E+00  0.18882329637E+03  0.18882329637E+03  0.00000000000E+00 0.  1.
          1   -1    0    0  501    0  0.00000000000E+00 -0.00000000000E+00 -0.10578638017E+04  0.10578638017E+04  0.00000000000E+00 0. -1.
         23    2    1    2    0    0  0.26857133370E+03 -0.34068783439E+03 -0.31713003304E+03  0.54468714706E+03  0.88959926580E+02 0.  0.
         13    1    3    3    0    0  0.61761626856E+02 -0.28716110999E+02 -0.40271238664E+02  0.79125762216E+02  0.00000000000E+00 0. -1.
        -13    1    3    3    0    0  0.20680970684E+03 -0.31197172339E+03 -0.27685879437E+03  0.46556138485E+03  0.00000000000E+00 0.  1.
         22    1    1    2    0    0 -0.26857133370E+03  0.34068783439E+03 -0.55191047224E+03  0.70199995096E+03  0.00000000000E+00 0. -1.
<mgrwt>
<rscale>  0 0.89386650E+03</rscale>
<asrwt>0</asrwt>
<pdfrwt beam="1">  1        1 0.16274828E+00 0.89386650E+03</pdfrwt>
<pdfrwt beam="2">  1       -1 0.29049738E-01 0.89386650E+03</pdfrwt>
<totfact> 0.14831668E+02</totfact>
</mgrwt>
</event>
<event>
 6    1  0.9562506E-007  0.3862047E+04  0.7818608E-02  0.8032969E-01
          2   -1    0    0  501    0  0.00000000000E+00  0.00000000000E+00  0.12136438938E+04  0.12136438938E+04  0.00000000000E+00 0. -1.
         -2   -1    0    0    0  501 -0.00000000000E+00 -0.00000000000E+00 -0.30724429430E+04  0.30724429430E+04  0.00000000000E+00 0.  1.
         23    2    1    2    0    0  0.18326655537E+04 -0.32771085418E+03 -0.36414110452E+03  0.18986070343E+04  0.77797757867E+02 0.  0.
         11    1    3    3    0    0  0.11047417351E+04 -0.21691262289E+03 -0.18656714949E+03  0.11411891554E+04  0.00000000000E+00 0.  1.
        -11    1    3    3    0    0  0.72792381862E+03 -0.11079823129E+03 -0.17757395503E+03  0.75741787890E+03  0.00000000000E+00 0. -1.
         22    1    1    2    0    0 -0.18326655537E+04  0.32771085418E+03 -0.14946579447E+04  0.23874798025E+04  0.00000000000E+00 0.  1.
<mgrwt>
<rscale>  0 0.38620469E+04</rscale>
<asrwt>0</asrwt>
<pdfrwt beam="1">  1        2 0.18671445E+00 0.38620469E+04</pdfrwt>
<pdfrwt beam="2">  1       -2 0.47268353E+00 0.38620469E+04</pdfrwt>
<totfact> 0.36521706E-02</totfact>
</mgrwt>
</event>
<event>
 6    1  0.9562506E-007  0.2089517E+04  0.7818608E-02  0.8565876E-01
         -1   -1    0    0    0  501 -0.00000000000E+00  0.00000000000E+00  0.12006730579E+04  0.12006730579E+04  0.00000000000E+00 0.  1.
          1   -1    0    0  501    0  0.00000000000E+00 -0.00000000000E+00 -0.90909000822E+03  0.90909000822E+03  0.00000000000E+00 0. -1.
         23    2    1    2    0    0  0.59190947617E+03 -0.47530336375E+03 -0.57579261802E+03  0.95710931737E+03  0.90834964990E+02 0.  0.
         11    1    3    3    0    0  0.38883292533E+03 -0.29124473557E+03 -0.41778493475E+03  0.64074861804E+03  0.00000000000E+00 0. -1.
        -11    1    3    3    0    0  0.20307655084E+03 -0.18405862818E+03 -0.15800768326E+03  0.31636069933E+03  0.00000000000E+00 0.  1.
         22    1    1    2    0    0 -0.59190947617E+03  0.47530336375E+03  0.86737566771E+03  0.11526537488E+04  0.00000000000E+00 0.  1.
<mgrwt>
<rscale>  0 0.20895166E+04</rscale>
<asrwt>0</asrwt>
<pdfrwt beam="1">  1        1 0.13986000E+00 0.20895166E+04</pdfrwt>
<pdfrwt beam="2">  1       -1 0.18471893E+00 0.20895166E+04</pdfrwt>
<totfact> 0.31704023E+00</totfact>
</mgrwt>
</event>
<event>
 6    1  0.9562506E-007  0.6939421E+03  0.7818608E-02  0.9727648E-01
          2   -1    0    0  501    0  0.00000000000E+00  0.00000000000E+00  0.91073365675E+03  0.91073365675E+03  0.00000000000E+00 0. -1.
         -2   -1    0    0    0  501 -0.00000000000E+00 -0.00000000000E+00 -0.13218894990E+03  0.13218894990E+03  0.00000000000E+00 0.  1.
         23    2    1    2    0    0 -0.19953043911E+03 -0.27470993392E+03  0.44461881110E+03  0.56670369923E+03  0.90494483870E+02 0.  0.
         13    1    3    3    0    0 -0.93528564008E+02 -0.12228363301E+03  0.13050228339E+03  0.20182102259E+03  0.00000000000E+00 0.  1.
        -13    1    3    3    0    0 -0.10600187510E+03 -0.15242630091E+03  0.31411652771E+03  0.36488267664E+03  0.00000000000E+00 0. -1.
         22    1    1    2    0    0  0.19953043911E+03  0.27470993392E+03  0.33392589576E+03  0.47621890742E+03  0.00000000000E+00 0.  1.
<mgrwt>
<rscale>  0 0.69394215E+03</rscale>
<asrwt>0</asrwt>
<pdfrwt beam="1">  1        2 0.14011287E+00 0.69394215E+03</pdfrwt>
<pdfrwt beam="2">  1       -2 0.20336762E-01 0.69394215E+03</pdfrwt>
<totfact> 0.60137450E+02</totfact>
</mgrwt>
</event>
<event>
 6    1  0.9562506E-007  0.1513106E+04  0.7818608E-02  0.8875784E-01
         -1   -1    0    0    0  501 -0.00000000000E+00  0.00000000000E+00  0.97052440009E+03  0.97052440009E+03  0.00000000000E+00 0.  1.
          1   -1    0    0  501    0  0.00000000000E+00 -0.00000000000E+00 -0.58975580836E+03  0.58975580836E+03  0.00000000000E+00 0. -1.
         23    2    1    2    0    0 -0.23179514532E+03  0.66243626383E+03  0.47466279873E+03  0.85220753201E+03  0.91663035501E+02 0.  0.
         13    1    3    3    0    0 -0.11720486947E+03  0.31781842136E+03  0.28393614749E+03  0.44200143239E+03  0.00000000000E+00 0.  1.
        -13    1    3    3    0    0 -0.11459027585E+03  0.34461784247E+03  0.19072665124E+03  0.41020609961E+03  0.00000000000E+00 0. -1.
         22    1    1    2    0    0  0.23179514532E+03 -0.66243626383E+03 -0.93894207002E+02  0.70807267645E+03  0.00000000000E+00 0. -1.
<mgrwt>
<rscale>  0 0.15131059E+04</rscale>
<asrwt>0</asrwt>
<pdfrwt beam="1">  1        1 0.90731663E-01 0.15131059E+04</pdfrwt>
<pdfrwt beam="2">  1       -1 0.14931145E+00 0.15131059E+04</pdfrwt>
<totfact> 0.11986611E+01</totfact>
</mgrwt>
</event>
<event>
 6    1  0.9562506E-007  0.4200623E+04  0.7818608E-02  0.7965254E-01
         -1   -1    0    0    0  501 -0.00000000000E+00  0.00000000000E+00  0.15487187017E+04  0.15487187017E+04  0.00000000000E+00 0.  1.
          1   -1    0    0  501    0  0.00000000000E+00 -0.00000000000E+00 -0.28483604907E+04  0.28483604907E+04  0.00000000000E+00 0. -1.
         23    2    1    2    0    0 -0.33232607539E+03  0.20488414113E+04 -0.97955370150E+03  0.22969248807E+04  0.90259095309E+02 0.  0.
         13    1    3    3    0    0 -0.36486954237E+02  0.45816487731E+03 -0.21985051608E+03  0.50949053186E+03  0.00000000000E+00 0. -1.
        -13    1    3    3    0    0 -0.29583912115E+03  0.15906765340E+04 -0.75970318542E+03  0.17874343488E+04  0.00000000000E+00 0.  1.
         22    1    1    2    0    0  0.33232607539E+03 -0.20488414113E+04 -0.32008808755E+03  0.21001543117E+04  0.00000000000E+00 0.  1.
<mgrwt>
<rscale>  0 0.42006234E+04</rscale>
<asrwt>0</asrwt>
<pdfrwt beam="1">  1        1 0.43820930E+00 0.42006234E+04</pdfrwt>
<pdfrwt beam="2">  1       -1 0.23826442E+00 0.42006234E+04</pdfrwt>
<totfact> 0.49308976E-02</totfact>
</mgrwt>
</event>
<event>
 6    1  0.9562506E-007  0.1089052E+04  0.7818608E-02  0.9215929E-01
          2   -1    0    0  501    0  0.00000000000E+00  0.00000000000E+00  0.47751249062E+03  0.47751249062E+03  0.00000000000E+00 0. -1.
         -2   -1    0    0    0  501 -0.00000000000E+00 -0.00000000000E+00 -0.62094417541E+03  0.62094417541E+03  0.00000000000E+00 0.  1.
         23    2    1    2    0    0 -0.36386460051E+03 -0.11793090287E+03 -0.45841562967E+03  0.60295688713E+03  0.84302863917E+02 0.  0.
         11    1    3    3    0    0 -0.80399581029E+02 -0.51782818982E+02 -0.15775186350E+03  0.18447548187E+03  0.00000000000E+00 0.  1.
        -11    1    3    3    0    0 -0.28346501948E+03 -0.66148083888E+02 -0.30066376616E+03  0.41848140527E+03  0.00000000000E+00 0. -1.
         22    1    1    2    0    0  0.36386460051E+03  0.11793090287E+03  0.31498394488E+03  0.49549977890E+03  0.00000000000E+00 0. -1.
<mgrwt>
<rscale>  0 0.10890521E+04</rscale>
<asrwt>0</asrwt>
<pdfrwt beam="1">  1        2 0.73463460E-01 0.10890521E+04</pdfrwt>
<pdfrwt beam="2">  1       -2 0.95529873E-01 0.10890521E+04</pdfrwt>
<totfact> 0.59391367E+01</totfact>
</mgrwt>
</event>
<event>
 6    1  0.9562506E-007  0.1173760E+04  0.7818608E-02  0.9136140E-01
         -2   -1    0    0    0  501 -0.00000000000E+00  0.00000000000E+00  0.19251825775E+03  0.19251825775E+03  0.00000000000E+00 0.  1.
          2   -1    0    0  501    0  0.00000000000E+00 -0.00000000000E+00 -0.17890660073E+04  0.17890660073E+04  0.00000000000E+00 0. -1.
         23    2    1    2    0    0 -0.45159002221E+02 -0.54651558724E+03 -0.11341398367E+04  0.12642700379E+04  0.10670959205E+03 0.  0.
         13    1    3    3    0    0 -0.95797488202E+01 -0.47387440890E+03 -0.91100537571E+03  0.10269272231E+04  0.00000000000E+00 0. -1.
        -13    1    3    3    0    0 -0.35579253401E+02 -0.72641178335E+02 -0.22313446099E+03  0.23734281481E+03  0.00000000000E+00 0.  1.
         22    1    1    2    0    0  0.45159002221E+02  0.54651558724E+03 -0.46240791289E+03  0.71731422715E+03  0.00000000000E+00 0.  1.
<mgrwt>
<rscale>  0 0.11737596E+04</rscale>
<asrwt>0</asrwt>
<pdfrwt beam="1">  1        2 0.27524092E+00 0.11737596E+04</pdfrwt>
<pdfrwt beam="2">  1       -2 0.29618194E-01 0.11737596E+04</pdfrwt>
<totfact> 0.90856055E+01</totfact>
</mgrwt>
</event>
<event>
 6    1  0.9562506E-007  0.1555971E+04  0.7818608E-02  0.8848063E-01
          1   -1    0    0  501    0  0.00000000000E+00  0.00000000000E+00  0.19666446507E+04  0.19666446507E+04  0.00000000000E+00 0. -1.
         -1   -1    0    0    0  501 -0.00000000000E+00 -0.00000000000E+00 -0.30776334858E+03  0.30776334858E+03  0.00000000000E+00 0.  1.
         23    2    1    2    0    0 -0.72505510413E+03 -0.20224765003E+03  0.11032266724E+04  0.13388006652E+04  0.93108080137E+02 0.  0.
         11    1    3    3    0    0 -0.63479475417E+03 -0.20241987587E+03  0.93848274125E+03  0.11509509293E+04  0.00000000000E+00 0. -1.
        -11    1    3    3    0    0 -0.90260349964E+02  0.17222584023E+00  0.16474393114E+03  0.18784973592E+03  0.00000000000E+00 0.  1.
         22    1    1    2    0    0  0.72505510413E+03  0.20224765003E+03  0.55565462970E+03  0.93560733403E+03  0.00000000000E+00 0.  1.
<mgrwt>
<rscale>  0 0.15559706E+04</rscale>
<asrwt>0</asrwt>
<pdfrwt beam="1">  1        1 0.30256071E+00 0.15559706E+04</pdfrwt>
<pdfrwt beam="2">  1       -1 0.47348209E-01 0.15559706E+04</pdfrwt>
<totfact> 0.13462479E+01</totfact>
</mgrwt>
</event>
<event>
 6    1  0.9562506E-007  0.1155122E+04  0.7818608E-02  0.9153071E-01
          2   -1    0    0  501    0  0.00000000000E+00  0.00000000000E+00  0.21651400526E+03  0.21651400526E+03  0.00000000000E+00 0. -1.
         -2   -1    0    0    0  501 -0.00000000000E+00 -0.00000000000E+00 -0.15406708647E+04  0.15406708647E+04  0.00000000000E+00 0.  1.
         23    2    1    2    0    0 -0.28849910085E+03  0.34701803862E+03 -0.12592716919E+03  0.47679132073E+03  0.88425455997E+02 0.  0.
         11    1    3    3    0    0 -0.90903393581E+02  0.70987231011E+02 -0.18233084172E+01  0.11535136924E+03  0.00000000000E+00 0. -1.
        -11    1    3    3    0    0 -0.19759570727E+03  0.27603080760E+03 -0.12410386077E+03  0.36143995149E+03  0.00000000000E+00 0.  1.
         22    1    1    2    0    0  0.28849910085E+03 -0.34701803862E+03 -0.11982296903E+04  0.12803935493E+04  0.00000000000E+00 0.  1.
<mgrwt>
<rscale>  0 0.11551222E+04</rscale>
<asrwt>0</asrwt>
<pdfrwt beam="1">  1        2 0.33309846E-01 0.11551222E+04</pdfrwt>
<pdfrwt beam="2">  1       -2 0.23702629E+00 0.11551222E+04</pdfrwt>
<totfact> 0.12126315E+01</totfact>
</mgrwt>
</event>
<event>
 6    1  0.9562506E-007  0.7805301E+03  0.7818608E-02  0.9588635E-01
          2   -1    0    0  501    0  0.00000000000E+00  0.00000000000E+00  0.21417873914E+04  0.21417873914E+04  0.00000000000E+00 0. -1.
         -2   -1    0    0    0  501 -0.00000000000E+00 -0.00000000000E+00 -0.71112014293E+02  0.71112014293E+02  0.00000000000E+00 0.  1.
         23    2    1    2    0    0 -0.16818292926E+03  0.18019631572E+03  0.18877093086E+04  0.19059258040E+04  0.91381217038E+02 0.  0.
         11    1    3    3    0    0 -0.64388908332E+02  0.30622941075E+02  0.79109915098E+03  0.79430571112E+03  0.00000000000E+00 0. -1.
        -11    1    3    3    0    0 -0.10379402093E+03  0.14957337464E+03  0.10966101576E+04  0.11116200929E+04  0.00000000000E+00 0.  1.
         22    1    1    2    0    0  0.16818292926E+03 -0.18019631572E+03  0.18296606853E+03  0.30697360167E+03  0.00000000000E+00 0.  1.
<mgrwt>
<rscale>  0 0.78053012E+03</rscale>
<asrwt>0</asrwt>
<pdfrwt beam="1">  1        2 0.32950570E+00 0.78053012E+03</pdfrwt>
<pdfrwt beam="2">  1       -2 0.10940312E-01 0.78053012E+03</pdfrwt>
<totfact> 0.33816350E+02</totfact>
</mgrwt>
</event>
<event>
 6    1  0.9562506E-007  0.2071751E+04  0.7818608E-02  0.8573791E-01
          2   -1    0    0  501    0  0.00000000000E+00  0.00000000000E+00  0.26351279346E+04  0.26351279346E+04  0.00000000000E+00 0. -1.
         -2   -1    0    0    0  501 -0.00000000000E+00 -0.00000000000E+00 -0.40720516570E+03  0.40720516570E+03  0.00000000000E+00 0.  1.
         23    2    1    2    0    0  0.77156561220E+03  0.58503505300E+02  0.21230595988E+04  0.22614794402E+04  0.90393827820E+02 0.  0.
         13    1    3    3    0    0  0.72630406907E+03  0.76504307276E+02  0.19931415399E+04  0.21227302485E+04  0.00000000000E+00 0. -1.
        -13    1    3    3    0    0  0.45261543134E+02 -0.18000801976E+02  0.12991805886E+03  0.13874919162E+03  0.00000000000E+00 0.  1.
         22    1    1    2    0    0 -0.77156561220E+03 -0.58503505300E+02  0.10486317007E+03  0.78085366011E+03  0.00000000000E+00 0.  1.
<mgrwt>
<rscale>  0 0.20717507E+04</rscale>
<asrwt>0</asrwt>
<pdfrwt beam="1">  1        2 0.40540429E+00 0.20717507E+04</pdfrwt>
<pdfrwt beam="2">  1       -2 0.62646950E-01 0.20717507E+04</pdfrwt>
<totfact> 0.63368687E+00</totfact>
</mgrwt>
</event>
<event>
 6    1  0.9562506E-007  0.3835227E+04  0.7818608E-02  0.8038637E-01
         -2   -1    0    0    0  501 -0.00000000000E+00  0.00000000000E+00  0.11776951329E+04  0.11776951329E+04  0.00000000000E+00 0.  1.
          2   -1    0    0  501    0  0.00000000000E+00 -0.00000000000E+00 -0.31224050906E+04  0.31224050906E+04  0.00000000000E+00 0. -1.
         23    2    1    2    0    0  0.11823050351E+04  0.49429570714E+03 -0.25707509602E+04  0.28738811733E+04  0.90879354746E+02 0.  0.
         11    1    3    3    0    0  0.71189767046E+03  0.33120128357E+03 -0.15016472564E+04  0.16945315182E+04  0.00000000000E+00 0. -1.
        -11    1    3    3    0    0  0.47040736469E+03  0.16309442357E+03 -0.10691037038E+04  0.11793496552E+04  0.00000000000E+00 0.  1.
         22    1    1    2    0    0 -0.11823050351E+04 -0.49429570714E+03  0.62604100250E+03  0.14262190502E+04  0.00000000000E+00 0.  1.
<mgrwt>
<rscale>  0 0.38352269E+04</rscale>
<asrwt>0</asrwt>
<pdfrwt beam="1">  1        2 0.48037001E+00 0.38352269E+04</pdfrwt>
<pdfrwt beam="2">  1       -2 0.18118387E+00 0.38352269E+04</pdfrwt>
<totfact> 0.20694870E-01</totfact>
</mgrwt>
</event>
<event>
 6    1  0.9562506E-007  0.2724541E+04  0.7818608E-02  0.8327086E-01
         -1   -1    0    0    0  501 -0.00000000000E+00  0.00000000000E+00  0.12764345766E+04  0.12764345766E+04  0.00000000000E+00 0.  1.
          1   -1    0    0  501    0  0.00000000000E+00 -0.00000000000E+00 -0.14538781634E+04  0.14538781634E+04  0.00000000000E+00 0. -1.
         23    2    1    2    0    0  0.11675392483E+04  0.36628567368E+02  0.61072048630E+03  0.13211668447E+04  0.89514081055E+02 0.  0.
         13    1    3    3    0    0  0.33766568916E+03 -0.17397439864E+02  0.14377454624E+03  0.36741245038E+03  0.00000000000E+00 0. -1.
        -13    1    3    3    0    0  0.82987355916E+03  0.54026007233E+02  0.46694594006E+03  0.95375439427E+03  0.00000000000E+00 0.  1.
         22    1    1    2    0    0 -0.11675392483E+04 -0.36628567368E+02 -0.78816407315E+03  0.14091458954E+04  0.00000000000E+00 0. -1.
<mgrwt>
<rscale>  0 0.27245406E+04</rscale>
<asrwt>0</asrwt>
<pdfrwt beam="1">  1        1 0.22367356E+00 0.27245406E+04</pdfrwt>
<pdfrwt beam="2">  1       -1 0.19637455E+00 0.27245406E+04</pdfrwt>
<totfact> 0.97870563E-01</totfact>
</mgrwt>
</event>
<event>
 6    1  0.9562506E-007  0.3605864E+04  0.7818608E-02  0.8089150E-01
          2   -1    0    0  501    0  0.00000000000E+00  0.00000000000E+00  0.24506334750E+04  0.24506334750E+04  0.00000000000E+00 0. -1.
         -2   -1    0    0    0  501 -0.00000000000E+00 -0.00000000000E+00 -0.13264178164E+04  0.13264178164E+04  0.00000000000E+00 0.  1.
         23    2    1    2    0    0 -0.12527018503E+04 -0.67115202717E+02  0.19171223571E+04  0.22929800637E+04  0.92914284367E+02 0.  0.
         11    1    3    3    0    0 -0.46342311679E+03 -0.45630501107E+01  0.63598216022E+03  0.78692764262E+03  0.00000000000E+00 0. -1.
        -11    1    3    3    0    0 -0.78927873350E+03 -0.62552152606E+02  0.12811401969E+04  0.15060524211E+04  0.00000000000E+00 0.  1.
         22    1    1    2    0    0  0.12527018503E+04  0.67115202717E+02 -0.79290669854E+03  0.14840712277E+04  0.00000000000E+00 0.  1.
<mgrwt>
<rscale>  0 0.36058641E+04</rscale>
<asrwt>0</asrwt>
<pdfrwt beam="1">  1        2 0.37702053E+00 0.36058641E+04</pdfrwt>
<pdfrwt beam="2">  1       -2 0.20406428E+00 0.36058641E+04</pdfrwt>
<totfact> 0.37885881E-01</totfact>
</mgrwt>
</event>
<event>
 6    1  0.9562506E-007  0.4306257E+04  0.7818608E-02  0.7945462E-01
          1   -1    0    0  501    0  0.00000000000E+00  0.00000000000E+00  0.19566702782E+04  0.19566702782E+04  0.00000000000E+00 0. -1.
         -1   -1    0    0    0  501 -0.00000000000E+00 -0.00000000000E+00 -0.23693122011E+04  0.23693122011E+04  0.00000000000E+00 0.  1.
         23    2    1    2    0    0  0.19782834410E+04  0.74253787256E+03  0.20398669712E+03  0.21248012691E+04  0.90564867052E+02 0.  0.
         13    1    3    3    0    0  0.15471470974E+04  0.58294480658E+03  0.12200413661E+03  0.16578220043E+04  0.00000000000E+00 0. -1.
        -13    1    3    3    0    0  0.43113634363E+03  0.15959306598E+03  0.81982560509E+02  0.46697926478E+03  0.00000000000E+00 0.  1.
         22    1    1    2    0    0 -0.19782834410E+04 -0.74253787256E+03 -0.61662862008E+03  0.22011812102E+04  0.00000000000E+00 0.  1.
<mgrwt>
<rscale>  0 0.43062572E+04</rscale>
<asrwt>0</asrwt>
<pdfrwt beam="1">  1        1 0.30102619E+00 0.43062572E+04</pdfrwt>
<pdfrwt beam="2">  1       -1 0.36450957E+00 0.43062572E+04</pdfrwt>
<totfact> 0.30265075E-02</totfact>
</mgrwt>
</event>
<event>
 6    1  0.9562506E-007  0.1306105E+04  0.7818608E-02  0.9024738E-01
         -1   -1    0    0    0  501 -0.00000000000E+00  0.00000000000E+00  0.57143035061E+03  0.57143035061E+03  0.00000000000E+00 0.  1.
          1   -1    0    0  501    0  0.00000000000E+00 -0.00000000000E+00 -0.74633369279E+03  0.74633369279E+03  0.00000000000E+00 0. -1.
         23    2    1    2    0    0  0.21284488577E+03 -0.16761413195E+03  0.50810317661E+03  0.58298833113E+03  0.91154339058E+02 0.  0.
         13    1    3    3    0    0  0.19108590104E+03 -0.15733148876E+03  0.38606039687E+03  0.45859529976E+03  0.00000000000E+00 0.  1.
        -13    1    3    3    0    0  0.21758984726E+02 -0.10282643192E+02  0.12204277974E+03  0.12439303137E+03  0.00000000000E+00 0. -1.
         22    1    1    2    0    0 -0.21284488577E+03  0.16761413195E+03 -0.68300651879E+03  0.73477571226E+03  0.00000000000E+00 0. -1.
<mgrwt>
<rscale>  0 0.13061052E+04</rscale>
<asrwt>0</asrwt>
<pdfrwt beam="1">  1        1 0.11482057E+00 0.13061052E+04</pdfrwt>
<pdfrwt beam="2">  1       -1 0.87912362E-01 0.13061052E+04</pdfrwt>
<totfact> 0.30846308E+01</totfact>
</mgrwt>
</event>
<event>
 6    1  0.9562506E-007  0.5410568E+04  0.7818608E-02  0.7768116E-01
         -2   -1    0    0    0  501 -0.00000000000E+00  0.00000000000E+00  0.40106923558E+04  0.40106923558E+04  0.00000000000E+00 0.  1.
          2   -1    0    0  501    0  0.00000000000E+00 -0.00000000000E+00 -0.18247626566E+04  0.18247626566E+04  0.00000000000E+00 0. -1.
         23    2    1    2    0    0  0.18427939559E+04  0.77334999608E+03 -0.87256313465E+03  0.21819172481E+04  0.73733801527E+02 0.  0.
         13    1    3    3    0    0  0.43543910008E+03  0.14914258097E+03 -0.20276434399E+03  0.50295536435E+03  0.00000000000E+00 0.  1.
        -13    1    3    3    0    0  0.14073548558E+04  0.62420741511E+03 -0.66979879066E+03  0.16789618838E+04  0.00000000000E+00 0. -1.
         22    1    1    2    0    0 -0.18427939559E+04 -0.77334999608E+03  0.30584928339E+04  0.36535377643E+04  0.00000000000E+00 0.  1.
<mgrwt>
<rscale>  0 0.54105680E+04</rscale>
<asrwt>0</asrwt>
<pdfrwt beam="1">  1        2 0.28073272E+00 0.54105680E+04</pdfrwt>
<pdfrwt beam="2">  1       -2 0.61702959E+00 0.54105680E+04</pdfrwt>
<totfact> 0.26170119E-03</totfact>
</mgrwt>
</event>
<event>
 6    1  0.9562506E-007  0.2643068E+04  0.7818608E-02  0.8353717E-01
          2   -1    0    0  501    0  0.00000000000E+00  0.00000000000E+00  0.61595662080E+03  0.61595662080E+03  0.00000000000E+00 0. -1.
         -2   -1    0    0    0  501 -0.00000000000E+00 -0.00000000000E+00 -0.28353495335E+04  0.28353495335E+04  0.00000000000E+00 0.  1.
         23    2    1    2    0    0 -0.26139589176E+03 -0.75551305683E+03 -0.24826234569E+04  0.26096303790E+04  0.87313773271E+02 0.  0.
         13    1    3    3    0    0 -0.21803749965E+03 -0.50805372224E+03 -0.17272957774E+04  0.18136178315E+04  0.00000000000E+00 0.  1.
        -13    1    3    3    0    0 -0.43358392108E+02 -0.24745933459E+03 -0.75532767948E+03  0.79601254753E+03  0.00000000000E+00 0. -1.
         22    1    1    2    0    0  0.26139589176E+03  0.75551305683E+03  0.26323054423E+03  0.84167577528E+03  0.00000000000E+00 0. -1.
<mgrwt>
<rscale>  0 0.26430682E+04</rscale>
<asrwt>0</asrwt>
<pdfrwt beam="1">  1        2 0.94762557E-01 0.26430682E+04</pdfrwt>
<pdfrwt beam="2">  1       -2 0.43620762E+00 0.26430682E+04</pdfrwt>
<totfact> 0.18120798E-01</totfact>
</mgrwt>
</event>
<event>
 6    1  0.9562506E-007  0.4334635E+04  0.7818608E-02  0.7940245E-01
         -1   -1    0    0    0  501 -0.00000000000E+00  0.00000000000E+00  0.11774586605E+04  0.11774586605E+04  0.00000000000E+00 0.  1.
          1   -1    0    0  501    0  0.00000000000E+00 -0.00000000000E+00 -0.39893239862E+04  0.39893239862E+04  0.00000000000E+00 0. -1.
         23    2    1    2    0    0 -0.20119091336E+04 -0.15096226598E+03 -0.46607915184E+03  0.20727107761E+04  0.91280983588E+02 0.  0.
         13    1    3    3    0    0 -0.87074998125E+03 -0.56304922920E+02 -0.15614419417E+03  0.88642923212E+03  0.00000000000E+00 0. -1.
        -13    1    3    3    0    0 -0.11411591523E+04 -0.94657343059E+02 -0.30993495768E+03  0.11862815440E+04  0.00000000000E+00 0.  1.
         22    1    1    2    0    0  0.20119091336E+04  0.15096226598E+03 -0.23457861738E+04  0.30940718706E+04  0.00000000000E+00 0. -1.
<mgrwt>
<rscale>  0 0.43346345E+04</rscale>
<asrwt>0</asrwt>
<pdfrwt beam="1">  1        1 0.61374216E+00 0.43346345E+04</pdfrwt>
<pdfrwt beam="2">  1       -1 0.18114748E+00 0.43346345E+04</pdfrwt>
<totfact> 0.15196849E-02</totfact>
</mgrwt>
</event>
<event>
 6    1  0.9562506E-007  0.1755218E+04  0.7818608E-02  0.8730483E-01
          1   -1    0    0  501    0  0.00000000000E+00  0.00000000000E+00  0.61856733367E+03  0.61856733367E+03  0.00000000000E+00 0. -1.
         -1   -1    0    0    0  501 -0.00000000000E+00 -0.00000000000E+00 -0.12451314848E+04  0.12451314848E+04  0.00000000000E+00 0.  1.
         23    2    1    2    0    0 -0.15767222067E+03  0.62382867565E+03  0.31539446758E+03  0.72294959752E+03  0.95706345834E+02 0.  0.
         11    1    3    3    0    0 -0.15570260917E+03  0.52292259200E+03  0.29400563239E+03  0.61978274549E+03  0.00000000000E+00 0. -1.
        -11    1    3    3    0    0 -0.19696115024E+01  0.10090608365E+03  0.21388835196E+02  0.10316685203E+03  0.00000000000E+00 0.  1.
         22    1    1    2    0    0  0.15767222067E+03 -0.62382867565E+03 -0.94195861869E+03  0.11407492209E+04  0.00000000000E+00 0.  1.
<mgrwt>
<rscale>  0 0.17552181E+04</rscale>
<asrwt>0</asrwt>
<pdfrwt beam="1">  1        1 0.95164206E-01 0.17552181E+04</pdfrwt>
<pdfrwt beam="2">  1       -1 0.19155869E+00 0.17552181E+04</pdfrwt>
<totfact> 0.53463339E+00</totfact>
</mgrwt>
</event>
<event>
 6    1  0.9562506E-007  0.1552957E+04  0.7818608E-02  0.8849981E-01
         -2   -1    0    0    0  501 -0.00000000000E+00  0.00000000000E+00  0.31846080174E+03  0.31846080174E+03  0.00000000000E+00 0.  1.
          2   -1    0    0  501    0  0.00000000000E+00 -0.00000000000E+00 -0.18932288782E+04  0.18932288782E+04  0.00000000000E+00 0. -1.
         23    2    1    2    0    0 -0.30467984392E+03  0.14090675656E+03  0.20293667216E+03  0.40256870704E+03  0.90519332991E+02 0.  0.
         13    1    3    3    0    0 -0.36194074442E+02  0.36732172992E+02  0.65790485042E+02  0.83592173554E+02  0.00000000000E+00 0. -1.
        -13    1    3    3    0    0 -0.26848576947E+03  0.10417458357E+03  0.13714618711E+03  0.31897653348E+03  0.00000000000E+00 0.  1.
         22    1    1    2    0    0  0.30467984392E+03 -0.14090675656E+03 -0.17777047486E+04  0.18091209729E+04  0.00000000000E+00 0. -1.
<mgrwt>
<rscale>  0 0.15529574E+04</rscale>
<asrwt>0</asrwt>
<pdfrwt beam="1">  1        2 0.29126598E+00 0.15529574E+04</pdfrwt>
<pdfrwt beam="2">  1       -2 0.48993969E-01 0.15529574E+04</pdfrwt>
<totfact> 0.29077016E+01</totfact>
</mgrwt>
</event>
<event>
 6    1  0.9562506E-007  0.3561274E+04  0.7818608E-02  0.8099420E-01
          1   -1    0    0  501    0  0.00000000000E+00  0.00000000000E+00  0.18223268467E+04  0.18223268467E+04  0.00000000000E+00 0. -1.
         -1   -1    0    0    0  501 -0.00000000000E+00 -0.00000000000E+00 -0.17399009594E+04  0.17399009594E+04  0.00000000000E+00 0.  1.
         23    2    1    2    0    0  0.86966416059E+03 -0.15257565409E+04 -0.24578016098E+03  0.17756198513E+04  0.90383596037E+02 0.  0.
         11    1    3    3    0    0  0.23537572710E+03 -0.48164747673E+03 -0.99191389019E+02  0.54518341538E+03  0.00000000000E+00 0. -1.
        -11    1    3    3    0    0  0.63428843349E+03 -0.10441090641E+04 -0.14658877196E+03  0.12304364359E+04  0.00000000000E+00 0.  1.
         22    1    1    2    0    0 -0.86966416059E+03  0.15257565409E+04  0.32820604821E+03  0.17866079549E+04  0.00000000000E+00 0. -1.
<mgrwt>
<rscale>  0 0.35612741E+04</rscale>
<asrwt>0</asrwt>
<pdfrwt beam="1">  1        1 0.28035798E+00 0.35612741E+04</pdfrwt>
<pdfrwt beam="2">  1       -1 0.26767707E+00 0.35612741E+04</pdfrwt>
<totfact> 0.17082024E-01</totfact>
</mgrwt>
</event>
<event>
 6    1  0.9562506E-007  0.1966396E+04  0.7818608E-02  0.8622495E-01
          2   -1    0    0  501    0  0.00000000000E+00  0.00000000000E+00  0.85385016942E+03  0.85385016942E+03  0.00000000000E+00 0. -1.
         -2   -1    0    0    0  501 -0.00000000000E+00 -0.00000000000E+00 -0.11321403557E+04  0.11321403557E+04  0.00000000000E+00 0.  1.
         23    2    1    2    0    0 -0.14871751628E+03  0.39263839579E+03  0.75608582161E+03  0.86965028345E+03  0.91345697047E+02 0.  0.
         11    1    3    3    0    0 -0.14518893277E+03  0.27560238845E+03  0.52112339746E+03  0.60712939156E+03  0.00000000000E+00 0. -1.
        -11    1    3    3    0    0 -0.35285835121E+01  0.11703600734E+03  0.23496242415E+03  0.26252089188E+03  0.00000000000E+00 0.  1.
         22    1    1    2    0    0  0.14871751628E+03 -0.39263839579E+03 -0.10343760079E+04  0.11163402417E+04  0.00000000000E+00 0.  1.
<mgrwt>
<rscale>  0 0.19663959E+04</rscale>
<asrwt>0</asrwt>
<pdfrwt beam="1">  1        2 0.13136157E+00 0.19663959E+04</pdfrwt>
<pdfrwt beam="2">  1       -2 0.17417544E+00 0.19663959E+04</pdfrwt>
<totfact> 0.58487005E+00</totfact>
</mgrwt>
</event>
<event>
 6    1  0.9562506E-007  0.2159474E+04  0.7818608E-02  0.8535488E-01
          1   -1    0    0  501    0  0.00000000000E+00  0.00000000000E+00  0.13618112181E+04  0.13618112181E+04  0.00000000000E+00 0. -1.
         -1   -1    0    0    0  501 -0.00000000000E+00 -0.00000000000E+00 -0.85608931211E+03  0.85608931211E+03  0.00000000000E+00 0.  1.
         23    2    1    2    0    0  0.79862994880E+03  0.62001662758E+03  0.63668625068E+03  0.11983996360E+04  0.92530493434E+02 0.  0.
         13    1    3    3    0    0  0.64274237092E+03  0.53928257507E+03  0.50923301407E+03  0.98145897202E+03  0.00000000000E+00 0.  1.
        -13    1    3    3    0    0  0.15588757788E+03  0.80734052503E+02  0.12745323661E+03  0.21694066400E+03  0.00000000000E+00 0. -1.
         22    1    1    2    0    0 -0.79862994880E+03 -0.62001662758E+03 -0.13096434472E+03  0.10195008942E+04  0.00000000000E+00 0. -1.
<mgrwt>
<rscale>  0 0.21594740E+04</rscale>
<asrwt>0</asrwt>
<pdfrwt beam="1">  1        1 0.20950942E+00 0.21594740E+04</pdfrwt>
<pdfrwt beam="2">  1       -1 0.13170605E+00 0.21594740E+04</pdfrwt>
<totfact> 0.36698484E+00</totfact>
</mgrwt>
</event>
<event>
 6    1  0.9562506E-007  0.2092486E+04  0.7818608E-02  0.8564560E-01
         -2   -1    0    0    0  501 -0.00000000000E+00  0.00000000000E+00  0.58886088827E+03  0.58886088827E+03  0.00000000000E+00 0.  1.
          2   -1    0    0  501    0  0.00000000000E+00 -0.00000000000E+00 -0.18588853409E+04  0.18588853409E+04  0.00000000000E+00 0. -1.
         23    2    1    2    0    0 -0.69388230079E+03  0.58947531423E+03 -0.38074675347E+02  0.91586697571E+03  0.91699742964E+02 0.  0.
         13    1    3    3    0    0 -0.33606923894E+03  0.29954984527E+03 -0.63441198915E+02  0.45463988923E+03  0.00000000000E+00 0.  1.
        -13    1    3    3    0    0 -0.35781306185E+03  0.28992546896E+03  0.25366523568E+02  0.46122708647E+03  0.00000000000E+00 0. -1.
         22    1    1    2    0    0  0.69388230079E+03 -0.58947531423E+03 -0.12319497773E+04  0.15318792535E+04  0.00000000000E+00 0. -1.
<mgrwt>
<rscale>  0 0.20924864E+04</rscale>
<asrwt>0</asrwt>
<pdfrwt beam="1">  1        2 0.28598236E+00 0.20924864E+04</pdfrwt>
<pdfrwt beam="2">  1       -2 0.90593984E-01 0.20924864E+04</pdfrwt>
<totfact> 0.76810320E+00</totfact>
</mgrwt>
</event>
<event>
 6    1  0.9562506E-007  0.2131563E+04  0.7818608E-02  0.8547466E-01
          1   -1    0    0  501    0  0.00000000000E+00  0.00000000000E+00  0.55758991767E+03  0.55758991767E+03  0.00000000000E+00 0. -1.
         -1   -1    0    0    0  501 -0.00000000000E+00 -0.00000000000E+00 -0.20371428713E+04  0.20371428713E+04  0.00000000000E+00 0.  1.
         23    2    1    2    0    0 -0.57108253372E+03  0.62384743689E+03 -0.15266938421E+04  0.17476536025E+04  0.90433080467E+02 0.  0.
         11    1    3    3    0    0 -0.15874449157E+03  0.13015224888E+03 -0.31904930564E+03  0.37938355384E+03  0.00000000000E+00 0.  1.
        -11    1    3    3    0    0 -0.41233804215E+03  0.49369518801E+03 -0.12076445364E+04  0.13682700486E+04  0.00000000000E+00 0. -1.
         22    1    1    2    0    0  0.57108253372E+03 -0.62384743689E+03  0.47140888413E+02  0.84707918650E+03  0.00000000000E+00 0. -1.
<mgrwt>
<rscale>  0 0.21315631E+04</rscale>
<asrwt>0</asrwt>
<pdfrwt beam="1">  1        1 0.85783065E-01 0.21315631E+04</pdfrwt>
<pdfrwt beam="2">  1       -1 0.31340659E+00 0.21315631E+04</pdfrwt>
<totfact> 0.94347202E-01</totfact>
</mgrwt>
</event>
<event>
 6    1  0.9562506E-007  0.2902579E+04  0.7818608E-02  0.8272111E-01
          2   -1    0    0  501    0  0.00000000000E+00  0.00000000000E+00  0.36660971505E+04  0.36660971505E+04  0.00000000000E+00 0. -1.
         -2   -1    0    0    0  501 -0.00000000000E+00 -0.00000000000E+00 -0.57451863655E+03  0.57451863655E+03  0.00000000000E+00 0.  1.
         23    2    1    2    0    0  0.13086430930E+04 -0.14190123874E+03  0.24357659188E+04  0.27699788956E+04  0.84526711760E+02 0.  0.
         13    1    3    3    0    0  0.54916754360E+03 -0.20610566048E+02  0.10476263980E+04  0.11830176906E+04  0.00000000000E+00 0.  1.
        -13    1    3    3    0    0  0.75947554938E+03 -0.12129067269E+03  0.13881395207E+04  0.15869612051E+04  0.00000000000E+00 0. -1.
         22    1    1    2    0    0 -0.13086430930E+04  0.14190123874E+03  0.65581259523E+03  0.14706368914E+04  0.00000000000E+00 0.  1.
<mgrwt>
<rscale>  0 0.29025789E+04</rscale>
<asrwt>0</asrwt>
<pdfrwt beam="1">  1        2 0.56401493E+00 0.29025789E+04</pdfrwt>
<pdfrwt beam="2">  1       -2 0.88387485E-01 0.29025789E+04</pdfrwt>
<totfact> 0.58749803E-01</totfact>
</mgrwt>
</event>
<event>
 6    1  0.9562506E-007  0.3657086E+04  0.7818608E-02  0.8077539E-01
          1   -1    0    0  501    0  0.00000000000E+00  0.00000000000E+00  0.28740101832E+04  0.28740101832E+04  0.00000000000E+00 0. -1.
         -1   -1    0    0    0  501 -0.00000000000E+00 -0.00000000000E+00 -0.11633810795E+04  0.11633810795E+04  0.00000000000E+00 0.  1.
         23    2    1    2    0    0 -0.66300798130E+03 -0.20268672157E+03  0.27224610780E+04  0.28108247401E+04  0.90993998124E+02 0.  0.
         13    1    3    3    0    0 -0.21637857407E+03 -0.83254906221E+02  0.10754383905E+04  0.11001448989E+04  0.00000000000E+00 0. -1.
        -13    1    3    3    0    0 -0.44662940723E+03 -0.11943181535E+03  0.16470226875E+04  0.17106798412E+04  0.00000000000E+00 0.  1.
         22    1    1    2    0    0  0.66300798130E+03  0.20268672157E+03 -0.10118319742E+04  0.12265665226E+04  0.00000000000E+00 0.  1.
<mgrwt>
<rscale>  0 0.36570858E+04</rscale>
<asrwt>0</asrwt>
<pdfrwt beam="1">  1        1 0.44215541E+00 0.36570858E+04</pdfrwt>
<pdfrwt beam="2">  1       -1 0.17898170E+00 0.36570858E+04</pdfrwt>
<totfact> 0.12564306E-01</totfact>
</mgrwt>
</event>
<event>
 6    1  0.9562506E-007  0.2491418E+04  0.7818608E-02  0.8406049E-01
          1   -1    0    0  501    0  0.00000000000E+00  0.00000000000E+00  0.57991947515E+03  0.57991947515E+03  0.00000000000E+00 0. -1.
         -1   -1    0    0    0  501 -0.00000000000E+00 -0.00000000000E+00 -0.26758734604E+04  0.26758734604E+04  0.00000000000E+00 0.  1.
         23    2    1    2    0    0 -0.27185435410E+03 -0.83996420293E+03 -0.21946979249E+04  0.23674264472E+04  0.92543768219E+02 0.  0.
         11    1    3    3    0    0 -0.69720136106E+02 -0.19275223620E+03 -0.61837966153E+03  0.65146583005E+03  0.00000000000E+00 0. -1.
        -11    1    3    3    0    0 -0.20213421799E+03 -0.64721196673E+03 -0.15763182634E+04  0.17159606171E+04  0.00000000000E+00 0.  1.
         22    1    1    2    0    0  0.27185435410E+03  0.83996420293E+03  0.98743939684E+02  0.88836648838E+03  0.00000000000E+00 0. -1.
<mgrwt>
<rscale>  0 0.24914182E+04</rscale>
<asrwt>0</asrwt>
<pdfrwt beam="1">  1        1 0.89218380E-01 0.24914182E+04</pdfrwt>
<pdfrwt beam="2">  1       -1 0.41167284E+00 0.24914182E+04</pdfrwt>
<totfact> 0.19026796E-01</totfact>
</mgrwt>
</event>
<event>
 6    1  0.9562506E-007  0.1041800E+04  0.7818608E-02  0.9263851E-01
         -3   -1    0    0    0  501 -0.00000000000E+00  0.00000000000E+00  0.61932432160E+03  0.61932432160E+03  0.00000000000E+00 0.  1.
          3   -1    0    0  501    0  0.00000000000E+00 -0.00000000000E+00 -0.43811742491E+03  0.43811742491E+03  0.00000000000E+00 0. -1.
         23    2    1    2    0    0 -0.17187967281E+03  0.16746246157E+03  0.55601406032E+03  0.61239488620E+03  0.91047039546E+02 0.  0.
         11    1    3    3    0    0 -0.14275931955E+03  0.78856751990E+02  0.36788022413E+03  0.40241082237E+03  0.00000000000E+00 0. -1.
        -11    1    3    3    0    0 -0.29120353261E+02  0.88605709579E+02  0.18813383619E+03  0.20998406383E+03  0.00000000000E+00 0.  1.
         22    1    1    2    0    0  0.17187967281E+03 -0.16746246157E+03 -0.37480716363E+03  0.44504686031E+03  0.00000000000E+00 0. -1.
<mgrwt>
<rscale>  0 0.10417999E+04</rscale>
<asrwt>0</asrwt>
<pdfrwt beam="1">  1        3 0.67402680E-01 0.10417999E+04</pdfrwt>
<pdfrwt beam="2">  1       -3 0.95280666E-01 0.10417999E+04</pdfrwt>
<totfact> 0.54085419E+00</totfact>
</mgrwt>
</event>
<event>
 6    1  0.9562506E-007  0.3282537E+04  0.7818608E-02  0.8167353E-01
          3   -1    0    0  501    0  0.00000000000E+00  0.00000000000E+00  0.11259161401E+04  0.11259161401E+04  0.00000000000E+00 0. -1.
         -3   -1    0    0    0  501 -0.00000000000E+00 -0.00000000000E+00 -0.23925069479E+04  0.23925069479E+04  0.00000000000E+00 0.  1.
         23    2    1    2    0    0  0.95154128884E+03 -0.46710880202E+02  0.79707620517E+03  0.12454659236E+04  0.90786339012E+02 0.  0.
         11    1    3    3    0    0  0.80811717274E+03 -0.52839084484E+02  0.63619916145E+03  0.10298517887E+04  0.00000000000E+00 0.  1.
        -11    1    3    3    0    0  0.14342411610E+03  0.61282042827E+01  0.16087704372E+03  0.21561413489E+03  0.00000000000E+00 0. -1.
         22    1    1    2    0    0 -0.95154128884E+03  0.46710880202E+02 -0.20636670130E+04  0.22729571644E+04  0.00000000000E+00 0.  1.
<mgrwt>
<rscale>  0 0.32825369E+04</rscale>
<asrwt>0</asrwt>
<pdfrwt beam="1">  1        3 0.17321787E+00 0.32825369E+04</pdfrwt>
<pdfrwt beam="2">  1       -3 0.36807799E+00 0.32825369E+04</pdfrwt>
<totfact> 0.75894599E-03</totfact>
</mgrwt>
</event>
<event>
 6    1  0.9562506E-007  0.2690327E+04  0.7818608E-02  0.8338150E-01
         -1   -1    0    0    0  501 -0.00000000000E+00  0.00000000000E+00  0.17856397914E+04  0.17856397914E+04  0.00000000000E+00 0.  1.
          1   -1    0    0  501    0  0.00000000000E+00 -0.00000000000E+00 -0.10133424553E+04  0.10133424553E+04  0.00000000000E+00 0. -1.
         23    2    1    2    0    0 -0.69471641273E+02  0.13306417112E+04  0.56600469360E+03  0.14506535306E+04  0.92739851543E+02 0.  0.
         13    1    3    3    0    0  0.15115812909E+02  0.37176462315E+03  0.13274396994E+03  0.39504225645E+03  0.00000000000E+00 0. -1.
        -13    1    3    3    0    0 -0.84587454182E+02  0.95887708806E+03  0.43326072366E+03  0.10556112741E+04  0.00000000000E+00 0.  1.
         22    1    1    2    0    0  0.69471641273E+02 -0.13306417112E+04  0.20629264248E+03  0.13483287162E+04  0.00000000000E+00 0. -1.
<mgrwt>
<rscale>  0 0.26903268E+04</rscale>
<asrwt>0</asrwt>
<pdfrwt beam="1">  1        1 0.15589884E+00 0.26903268E+04</pdfrwt>
<pdfrwt beam="2">  1       -1 0.27471381E+00 0.26903268E+04</pdfrwt>
<totfact> 0.62164635E-01</totfact>
</mgrwt>
</event>
<event>
 6    1  0.9562506E-007  0.2034130E+04  0.7818608E-02  0.8590828E-01
         -4   -1    0    0    0  501 -0.00000000000E+00  0.00000000000E+00  0.49940255371E+03  0.49940255371E+03  0.00000000000E+00 0.  1.
          4   -1    0    0  501    0  0.00000000000E+00 -0.00000000000E+00 -0.20713179736E+04  0.20713179736E+04  0.00000000000E+00 0. -1.
         23    2    1    2    0    0 -0.31527865350E+03 -0.38306834553E+03  0.33161441967E+03  0.60359881354E+03  0.90672033611E+02 0.  0.
         13    1    3    3    0    0 -0.96874513014E+02 -0.74925120827E+02  0.49141517708E+02  0.13195959141E+03  0.00000000000E+00 0.  1.
        -13    1    3    3    0    0 -0.21840414048E+03 -0.30814322470E+03  0.28247290196E+03  0.47163922213E+03  0.00000000000E+00 0. -1.
         22    1    1    2    0    0  0.31527865350E+03  0.38306834553E+03 -0.19035298395E+04  0.19671217138E+04  0.00000000000E+00 0. -1.
<mgrwt>
<rscale>  0 0.20341303E+04</rscale>
<asrwt>0</asrwt>
<pdfrwt beam="1">  1        4 0.31866430E+00 0.20341303E+04</pdfrwt>
<pdfrwt beam="2">  1       -4 0.76831163E-01 0.20341303E+04</pdfrwt>
<totfact> 0.66566583E-02</totfact>
</mgrwt>
</event>
<event>
 6    1  0.9562506E-007  0.2052426E+04  0.7818608E-02  0.8582494E-01
          1   -1    0    0  501    0  0.00000000000E+00  0.00000000000E+00  0.19514138052E+04  0.19514138052E+04  0.00000000000E+00 0. -1.
         -1   -1    0    0    0  501 -0.00000000000E+00 -0.00000000000E+00 -0.53966691788E+03  0.53966691788E+03  0.00000000000E+00 0.  1.
         23    2    1    2    0    0 -0.27809656195E+03 -0.48689076010E+02  0.19022440994E+04  0.19251338714E+04  0.88879049924E+02 0.  0.
         13    1    3    3    0    0 -0.52502763780E+02 -0.33229794882E+02  0.25600360077E+03  0.26343614611E+03  0.00000000000E+00 0. -1.
        -13    1    3    3    0    0 -0.22559379817E+03 -0.15459281127E+02  0.16462404986E+04  0.16616977253E+04  0.00000000000E+00 0.  1.
         22    1    1    2    0    0  0.27809656195E+03  0.48689076010E+02 -0.49049721203E+03  0.56594685166E+03  0.00000000000E+00 0.  1.
<mgrwt>
<rscale>  0 0.20524263E+04</rscale>
<asrwt>0</asrwt>
<pdfrwt beam="1">  1        1 0.30021750E+00 0.20524263E+04</pdfrwt>
<pdfrwt beam="2">  1       -1 0.83025681E-01 0.20524263E+04</pdfrwt>
<totfact> 0.42765027E+00</totfact>
</mgrwt>
</event>
<event>
 6    1  0.9562506E-007  0.2914209E+04  0.7818608E-02  0.8268662E-01
          2   -1    0    0  501    0  0.00000000000E+00  0.00000000000E+00  0.22077423241E+04  0.22077423241E+04  0.00000000000E+00 0. -1.
         -2   -1    0    0    0  501 -0.00000000000E+00 -0.00000000000E+00 -0.96168546043E+03  0.96168546043E+03  0.00000000000E+00 0.  1.
         23    2    1    2    0    0  0.14450793387E+04 -0.72119096703E+02  0.79707039132E+03  0.16544874188E+04  0.92476759200E+02 0.  0.
         13    1    3    3    0    0  0.42585114551E+03 -0.60823863933E+02  0.25363020048E+03  0.49937663056E+03  0.00000000000E+00 0. -1.
        -13    1    3    3    0    0  0.10192281932E+04 -0.11295232770E+02  0.54344019084E+03  0.11551107883E+04  0.00000000000E+00 0.  1.
         22    1    1    2    0    0 -0.14450793387E+04  0.72119096703E+02  0.44898647235E+03  0.15149403657E+04  0.00000000000E+00 0. -1.
<mgrwt>
<rscale>  0 0.29142091E+04</rscale>
<asrwt>0</asrwt>
<pdfrwt beam="1">  1        2 0.33965266E+00 0.29142091E+04</pdfrwt>
<pdfrwt beam="2">  1       -2 0.14795161E+00 0.29142091E+04</pdfrwt>
<totfact> 0.13693542E+00</totfact>
</mgrwt>
</event>
<event>
 6    1  0.9562506E-007  0.3181223E+04  0.7818608E-02  0.8193794E-01
          1   -1    0    0  501    0  0.00000000000E+00  0.00000000000E+00  0.20049186983E+04  0.20049186983E+04  0.00000000000E+00 0. -1.
         -1   -1    0    0    0  501 -0.00000000000E+00 -0.00000000000E+00 -0.12619192718E+04  0.12619192718E+04  0.00000000000E+00 0.  1.
         23    2    1    2    0    0 -0.73127061789E+03  0.17013627730E+03  0.18104516548E+04  0.19617872703E+04  0.84681934105E+02 0.  0.
         11    1    3    3    0    0 -0.37523218096E+03  0.52787178886E+02  0.97690385641E+03  0.10478200325E+04  0.00000000000E+00 0. -1.
        -11    1    3    3    0    0 -0.35603843693E+03  0.11734909841E+03  0.83354779842E+03  0.91396723777E+03  0.00000000000E+00 0.  1.
         22    1    1    2    0    0  0.73127061789E+03 -0.17013627730E+03 -0.10674522283E+04  0.13050506998E+04  0.00000000000E+00 0.  1.
<mgrwt>
<rscale>  0 0.31812234E+04</rscale>
<asrwt>0</asrwt>
<pdfrwt beam="1">  1        1 0.30844903E+00 0.31812234E+04</pdfrwt>
<pdfrwt beam="2">  1       -1 0.19414143E+00 0.31812234E+04</pdfrwt>
<totfact> 0.40959659E-01</totfact>
</mgrwt>
</event>
<event>
 6    1  0.9562506E-007  0.7904846E+04  0.7818608E-02  0.7490695E-01
         -2   -1    0    0    0  501 -0.00000000000E+00  0.00000000000E+00  0.40005496442E+04  0.40005496442E+04  0.00000000000E+00 0.  1.
          2   -1    0    0  501    0  0.00000000000E+00 -0.00000000000E+00 -0.39048753047E+04  0.39048753047E+04  0.00000000000E+00 0. -1.
         23    2    1    2    0    0  0.61563631491E+03 -0.10231179665E+04 -0.37196052618E+04  0.39076584622E+04  0.92481933895E+02 0.  0.
         11    1    3    3    0    0  0.43405179266E+03 -0.69473448529E+03 -0.24145632001E+04  0.25497396751E+04  0.00000000000E+00 0.  1.
        -11    1    3    3    0    0  0.18158452225E+03 -0.32838348121E+03 -0.13050420618E+04  0.13579187871E+04  0.00000000000E+00 0. -1.
         22    1    1    2    0    0 -0.61563631491E+03  0.10231179665E+04  0.38152796014E+04  0.39977664867E+04  0.00000000000E+00 0.  1.
<mgrwt>
<rscale>  0 0.79048460E+04</rscale>
<asrwt>0</asrwt>
<pdfrwt beam="1">  1        2 0.60075005E+00 0.79048460E+04</pdfrwt>
<pdfrwt beam="2">  1       -2 0.61546918E+00 0.79048460E+04</pdfrwt>
<totfact> 0.10864269E-04</totfact>
</mgrwt>
</event>
<event>
 6    1  0.9562506E-007  0.1238519E+04  0.7818608E-02  0.9079793E-01
         -2   -1    0    0    0  501 -0.00000000000E+00  0.00000000000E+00  0.11152554108E+03  0.11152554108E+03  0.00000000000E+00 0.  1.
          2   -1    0    0  501    0  0.00000000000E+00 -0.00000000000E+00 -0.34385177718E+04  0.34385177718E+04  0.00000000000E+00 0. -1.
         23    2    1    2    0    0 -0.34120205662E+03  0.24631983353E+02 -0.31402649745E+04  0.31603092417E+04  0.96253908334E+02 0.  0.
         13    1    3    3    0    0 -0.26745966929E+03  0.34777424444E+02 -0.20764502029E+04  0.20938934044E+04  0.00000000000E+00 0. -1.
        -13    1    3    3    0    0 -0.73742387327E+02 -0.10145441091E+02 -0.10638147717E+04  0.10664158373E+04  0.00000000000E+00 0.  1.
         22    1    1    2    0    0  0.34120205662E+03 -0.24631983353E+02 -0.18672725622E+03  0.38973407120E+03  0.00000000000E+00 0.  1.
<mgrwt>
<rscale>  0 0.12385194E+04</rscale>
<asrwt>0</asrwt>
<pdfrwt beam="1">  1        2 0.52900263E+00 0.12385194E+04</pdfrwt>
<pdfrwt beam="2">  1       -2 0.17157779E-01 0.12385194E+04</pdfrwt>
<totfact> 0.25198227E+01</totfact>
</mgrwt>
</event>
<event>
 6    1  0.9562506E-007  0.1863414E+04  0.7818608E-02  0.8673285E-01
          2   -1    0    0  501    0  0.00000000000E+00  0.00000000000E+00  0.24330455120E+04  0.24330455120E+04  0.00000000000E+00 0. -1.
         -2   -1    0    0    0  501 -0.00000000000E+00 -0.00000000000E+00 -0.35678673489E+03  0.35678673489E+03  0.00000000000E+00 0.  1.
         23    2    1    2    0    0 -0.23841510951E+03  0.53459936097E+03  0.21215467903E+04  0.22027298322E+04  0.91758862718E+02 0.  0.
         11    1    3    3    0    0 -0.11313359591E+03  0.33798903554E+03  0.11730834895E+04  0.12260345314E+04  0.00000000000E+00 0. -1.
        -11    1    3    3    0    0 -0.12528151360E+03  0.19661032543E+03  0.94846330080E+03  0.97669530084E+03  0.00000000000E+00 0.  1.
         22    1    1    2    0    0  0.23841510951E+03 -0.53459936097E+03 -0.45288013227E+02  0.58710241469E+03  0.00000000000E+00 0.  1.
<mgrwt>
<rscale>  0 0.18634145E+04</rscale>
<asrwt>0</asrwt>
<pdfrwt beam="1">  1        2 0.37431468E+00 0.18634145E+04</pdfrwt>
<pdfrwt beam="2">  1       -2 0.54890269E-01 0.18634145E+04</pdfrwt>
<totfact> 0.11167350E+01</totfact>
</mgrwt>
</event>
<event>
 6    1  0.9562506E-007  0.1890777E+04  0.7818608E-02  0.8659461E-01
         -1   -1    0    0    0  501 -0.00000000000E+00  0.00000000000E+00  0.73052845131E+03  0.73052845131E+03  0.00000000000E+00 0.  1.
          1   -1    0    0  501    0  0.00000000000E+00 -0.00000000000E+00 -0.12234423543E+04  0.12234423543E+04  0.00000000000E+00 0. -1.
         23    2    1    2    0    0  0.65151265491E+03 -0.10001185200E+03 -0.94414982562E+03  0.11551685973E+04  0.92328137520E+02 0.  0.
         11    1    3    3    0    0  0.46365462547E+03 -0.82973843574E+02 -0.60092308263E+03  0.76352394964E+03  0.00000000000E+00 0. -1.
        -11    1    3    3    0    0  0.18785802945E+03 -0.17038008428E+02 -0.34322674299E+03  0.39164464769E+03  0.00000000000E+00 0.  1.
         22    1    1    2    0    0 -0.65151265491E+03  0.10001185200E+03  0.45123592264E+03  0.79880220827E+03  0.00000000000E+00 0.  1.
<mgrwt>
<rscale>  0 0.18907770E+04</rscale>
<asrwt>0</asrwt>
<pdfrwt beam="1">  1        1 0.18822190E+00 0.18907770E+04</pdfrwt>
<pdfrwt beam="2">  1       -1 0.11238899E+00 0.18907770E+04</pdfrwt>
<totfact> 0.69761869E+00</totfact>
</mgrwt>
</event>
<event>
 6    1  0.1636434E-006  0.5811492E+04  0.7818608E-02  0.7714224E-01
          2   -1    0    0  501    0  0.00000000000E+00  0.00000000000E+00  0.33199659899E+04  0.33199659899E+04  0.00000000000E+00 0. -1.
         -2   -1    0    0    0  501 -0.00000000000E+00 -0.00000000000E+00 -0.25432065658E+04  0.25432065658E+04  0.00000000000E+00 0.  1.
         23    2    1    2    0    0 -0.16546923684E+04  0.33296554979E+02  0.27971896515E+04  0.32514195432E+04  0.91343337481E+02 0.  0.
         13    1    3    3    0    0 -0.62197536741E+03  0.29717328968E+02  0.97308198923E+03  0.11552597262E+04  0.00000000000E+00 0.  1.
        -13    1    3    3    0    0 -0.10327170009E+04  0.35792260115E+01  0.18241076623E+04  0.20961598170E+04  0.00000000000E+00 0. -1.
         22    1    1    2    0    0  0.16546923684E+04 -0.33296554979E+02 -0.20204302274E+04  0.26117530125E+04  0.00000000000E+00 0.  1.
<mgrwt>
<rscale>  0 0.58114918E+04</rscale>
<asrwt>0</asrwt>
<pdfrwt beam="1">  1        2 0.51076400E+00 0.58114918E+04</pdfrwt>
<pdfrwt beam="2">  1       -2 0.39126255E+00 0.58114918E+04</pdfrwt>
<totfact> 0.62404720E-03</totfact>
</mgrwt>
</event>
<event>
 6    1  0.9562506E-007  0.3270066E+04  0.7818608E-02  0.8170554E-01
         -2   -1    0    0    0  501 -0.00000000000E+00  0.00000000000E+00  0.12696493025E+04  0.12696493025E+04  0.00000000000E+00 0.  1.
          2   -1    0    0  501    0  0.00000000000E+00 -0.00000000000E+00 -0.21055678975E+04  0.21055678975E+04  0.00000000000E+00 0. -1.
         23    2    1    2    0    0 -0.77946055421E+03 -0.14323030627E+04 -0.31495118833E+03  0.16633591867E+04  0.92296878755E+02 0.  0.
         11    1    3    3    0    0 -0.67487601752E+03 -0.11712634638E+04 -0.24912912083E+03  0.13745475836E+04  0.00000000000E+00 0.  1.
        -11    1    3    3    0    0 -0.10458453669E+03 -0.26103959891E+03 -0.65822067502E+02  0.28881160310E+03  0.00000000000E+00 0. -1.
         22    1    1    2    0    0  0.77946055421E+03  0.14323030627E+04 -0.52096740669E+03  0.17118580133E+04  0.00000000000E+00 0. -1.
<mgrwt>
<rscale>  0 0.32700659E+04</rscale>
<asrwt>0</asrwt>
<pdfrwt beam="1">  1        2 0.32393352E+00 0.32700659E+04</pdfrwt>
<pdfrwt beam="2">  1       -2 0.19533066E+00 0.32700659E+04</pdfrwt>
<totfact> 0.69749176E-01</totfact>
</mgrwt>
</event>
<event>
 6    1  0.9562506E-007  0.1980857E+04  0.7818608E-02  0.8615623E-01
          2   -1    0    0  501    0  0.00000000000E+00  0.00000000000E+00  0.15096980414E+04  0.15096980414E+04  0.00000000000E+00 0. -1.
         -2   -1    0    0    0  501 -0.00000000000E+00 -0.00000000000E+00 -0.64976503809E+03  0.64976503809E+03  0.00000000000E+00 0.  1.
         23    2    1    2    0    0  0.10860612011E+03  0.41446616830E+03  0.14018429864E+04  0.14686346465E+04  0.90257810311E+02 0.  0.
         13    1    3    3    0    0  0.21224599082E+02  0.50897787316E+02  0.30127457545E+03  0.30627999963E+03  0.00000000000E+00 0.  1.
        -13    1    3    3    0    0  0.87381521024E+02  0.36356838098E+03  0.11005684110E+04  0.11623546469E+04  0.00000000000E+00 0. -1.
         22    1    1    2    0    0 -0.10860612011E+03 -0.41446616830E+03 -0.54190998313E+03  0.69082843298E+03  0.00000000000E+00 0.  1.
<mgrwt>
<rscale>  0 0.19808574E+04</rscale>
<asrwt>0</asrwt>
<pdfrwt beam="1">  1        2 0.23226124E+00 0.19808574E+04</pdfrwt>
<pdfrwt beam="2">  1       -2 0.99963852E-01 0.19808574E+04</pdfrwt>
<totfact> 0.96435304E+00</totfact>
</mgrwt>
</event>
<event>
 6    1  0.9562506E-007  0.2184049E+04  0.7818608E-02  0.8525097E-01
         -2   -1    0    0    0  501 -0.00000000000E+00  0.00000000000E+00  0.22378118125E+03  0.22378118125E+03  0.00000000000E+00 0.  1.
          2   -1    0    0  501    0  0.00000000000E+00 -0.00000000000E+00 -0.53289446784E+04  0.53289446784E+04  0.00000000000E+00 0. -1.
         23    2    1    2    0    0  0.39174298088E+03  0.95743663432E+03 -0.16932311353E+04  0.19874166285E+04  0.11245312774E+03 0.  0.
         13    1    3    3    0    0  0.18945859654E+03  0.60757884698E+03 -0.10308215564E+04  0.12114618014E+04  0.00000000000E+00 0. -1.
        -13    1    3    3    0    0  0.20228438435E+03  0.34985778734E+03 -0.66240957888E+03  0.77595482711E+03  0.00000000000E+00 0.  1.
         22    1    1    2    0    0 -0.39174298088E+03 -0.95743663432E+03 -0.34119323619E+04  0.35653092312E+04  0.00000000000E+00 0. -1.
<mgrwt>
<rscale>  0 0.21840490E+04</rscale>
<asrwt>0</asrwt>
<pdfrwt beam="1">  1        2 0.81983766E+00 0.21840490E+04</pdfrwt>
<pdfrwt beam="2">  1       -2 0.34427873E-01 0.21840490E+04</pdfrwt>
<totfact> 0.87124939E-02</totfact>
</mgrwt>
</event>
<event>
 6    1  0.9562506E-007  0.6987297E+03  0.7818608E-02  0.9719407E-01
         -2   -1    0    0    0  501 -0.00000000000E+00  0.00000000000E+00  0.13628381559E+03  0.13628381559E+03  0.00000000000E+00 0.  1.
          2   -1    0    0  501    0  0.00000000000E+00 -0.00000000000E+00 -0.89560011100E+03  0.89560011100E+03  0.00000000000E+00 0. -1.
         23    2    1    2    0    0  0.29016228267E+03  0.14429743912E+03 -0.21839544313E+03  0.40131967954E+03  0.91351050290E+02 0.  0.
         11    1    3    3    0    0  0.50651379624E+02  0.46991584766E+02 -0.11159137383E+02  0.69987839256E+02  0.00000000000E+00 0. -1.
        -11    1    3    3    0    0  0.23951090305E+03  0.97305854355E+02 -0.20723630574E+03  0.33133184029E+03  0.00000000000E+00 0.  1.
         22    1    1    2    0    0 -0.29016228267E+03 -0.14429743912E+03 -0.54092085228E+03  0.63056424704E+03  0.00000000000E+00 0. -1.
<mgrwt>
<rscale>  0 0.69872971E+03</rscale>
<asrwt>0</asrwt>
<pdfrwt beam="1">  1        2 0.13778464E+00 0.69872971E+03</pdfrwt>
<pdfrwt beam="2">  1       -2 0.20966740E-01 0.69872971E+03</pdfrwt>
<totfact> 0.58338815E+02</totfact>
</mgrwt>
</event>
<event>
 6    1  0.9562506E-007  0.1442435E+04  0.7818608E-02  0.8923662E-01
          2   -1    0    0  501    0  0.00000000000E+00  0.00000000000E+00  0.17634489672E+04  0.17634489672E+04  0.00000000000E+00 0. -1.
         -2   -1    0    0    0  501 -0.00000000000E+00 -0.00000000000E+00 -0.29496449314E+03  0.29496449314E+03  0.00000000000E+00 0.  1.
         23    2    1    2    0    0  0.56668917970E+03 -0.68841524768E+02  0.13589288655E+04  0.14771405354E+04  0.96854105724E+02 0.  0.
         11    1    3    3    0    0  0.18966871237E+03  0.71170475912E+01  0.54033884113E+03  0.57270492931E+03  0.00000000000E+00 0. -1.
        -11    1    3    3    0    0  0.37702046733E+03 -0.75958572359E+02  0.81859002438E+03  0.90443560606E+03  0.00000000000E+00 0.  1.
         22    1    1    2    0    0 -0.56668917970E+03  0.68841524768E+02  0.10955560854E+03  0.58127292496E+03  0.00000000000E+00 0.  1.
<mgrwt>
<rscale>  0 0.14424352E+04</rscale>
<asrwt>0</asrwt>
<pdfrwt beam="1">  1        2 0.27129983E+00 0.14424352E+04</pdfrwt>
<pdfrwt beam="2">  1       -2 0.45379154E-01 0.14424352E+04</pdfrwt>
<totfact> 0.40399789E+01</totfact>
</mgrwt>
</event>
<event>
 6    1  0.9562506E-007  0.1875984E+04  0.7818608E-02  0.8666904E-01
         -2   -1    0    0    0  501 -0.00000000000E+00  0.00000000000E+00  0.32042091692E+03  0.32042091692E+03  0.00000000000E+00 0.  1.
          2   -1    0    0  501    0  0.00000000000E+00 -0.00000000000E+00 -0.27458527073E+04  0.27458527073E+04  0.00000000000E+00 0. -1.
         23    2    1    2    0    0  0.36093350857E+02 -0.92808481509E+03 -0.13807413933E+04  0.16684101903E+04  0.12042264772E+03 0.  0.
         11    1    3    3    0    0  0.68027833278E+02 -0.47614305753E+03 -0.77194104900E+03  0.90952349088E+03  0.00000000000E+00 0. -1.
        -11    1    3    3    0    0 -0.31934482421E+02 -0.45194175756E+03 -0.60880034426E+03  0.75888669943E+03  0.00000000000E+00 0.  1.
         22    1    1    2    0    0 -0.36093350857E+02  0.92808481509E+03 -0.10446903971E+04  0.13978634339E+04  0.00000000000E+00 0.  1.
<mgrwt>
<rscale>  0 0.18759836E+04</rscale>
<asrwt>0</asrwt>
<pdfrwt beam="1">  1        2 0.42243886E+00 0.18759836E+04</pdfrwt>
<pdfrwt beam="2">  1       -2 0.49295527E-01 0.18759836E+04</pdfrwt>
<totfact> 0.91295997E+00</totfact>
</mgrwt>
</event>
<event>
 6    1  0.9562506E-007  0.9325345E+03  0.7818608E-02  0.9385801E-01
         -2   -1    0    0    0  501 -0.00000000000E+00  0.00000000000E+00  0.13666747076E+03  0.13666747076E+03  0.00000000000E+00 0.  1.
          2   -1    0    0  501    0  0.00000000000E+00 -0.00000000000E+00 -0.15907600231E+04  0.15907600231E+04  0.00000000000E+00 0. -1.
         23    2    1    2    0    0  0.34373003740E+02 -0.36295207351E+03 -0.20929664783E+03  0.43034131517E+03  0.92048083629E+02 0.  0.
         13    1    3    3    0    0 -0.22068585811E+01 -0.17254157403E+03 -0.50706526508E+02  0.17985165227E+03  0.00000000000E+00 0. -1.
        -13    1    3    3    0    0  0.36579862321E+02 -0.19041049947E+03 -0.15859012132E+03  0.25048966290E+03  0.00000000000E+00 0.  1.
         22    1    1    2    0    0 -0.34373003740E+02  0.36295207351E+03 -0.12447959045E+04  0.12970861787E+04  0.00000000000E+00 0. -1.
<mgrwt>
<rscale>  0 0.93253450E+03</rscale>
<asrwt>0</asrwt>
<pdfrwt beam="1">  1        2 0.24473232E+00 0.93253450E+03</pdfrwt>
<pdfrwt beam="2">  1       -2 0.21025764E-01 0.93253450E+03</pdfrwt>
<totfact> 0.22122690E+02</totfact>
</mgrwt>
</event>
<event>
 6    1  0.9562506E-007  0.2262314E+04  0.7818608E-02  0.8492930E-01
          2   -1    0    0  501    0  0.00000000000E+00  0.00000000000E+00  0.13138178175E+04  0.13138178175E+04  0.00000000000E+00 0. -1.
         -2   -1    0    0    0  501 -0.00000000000E+00 -0.00000000000E+00 -0.97389149993E+03  0.97389149993E+03  0.00000000000E+00 0.  1.
         23    2    1    2    0    0  0.73523034849E+02  0.91938303357E+03 -0.48870736627E+03  0.10478284437E+04  0.91862715398E+02 0.  0.
         13    1    3    3    0    0  0.26007499504E+02  0.75203059743E+03 -0.40932519805E+03  0.85660581790E+03  0.00000000000E+00 0.  1.
        -13    1    3    3    0    0  0.47515535345E+02  0.16735243614E+03 -0.79382168223E+02  0.19122262578E+03  0.00000000000E+00 0. -1.
         22    1    1    2    0    0 -0.73523034849E+02 -0.91938303357E+03  0.82863368383E+03  0.12398808737E+04  0.00000000000E+00 0. -1.
<mgrwt>
<rscale>  0 0.22623139E+04</rscale>
<asrwt>0</asrwt>
<pdfrwt beam="1">  1        2 0.20212582E+00 0.22623139E+04</pdfrwt>
<pdfrwt beam="2">  1       -2 0.14982946E+00 0.22623139E+04</pdfrwt>
<totfact> 0.44355641E+00</totfact>
</mgrwt>
</event>
<event>
 6    1  0.9562506E-007  0.2078041E+04  0.7818608E-02  0.8570979E-01
          4   -1    0    0  501    0  0.00000000000E+00  0.00000000000E+00  0.12860185931E+04  0.12860185931E+04  0.00000000000E+00 0. -1.
         -4   -1    0    0    0  501 -0.00000000000E+00 -0.00000000000E+00 -0.83946164559E+03  0.83946164559E+03  0.00000000000E+00 0.  1.
         23    2    1    2    0    0 -0.93838287690E+03  0.21895752524E+03  0.61583960690E+03  0.11471339604E+04  0.90294408372E+02 0.  0.
         11    1    3    3    0    0 -0.12299898206E+03  0.57240976679E+02  0.69816791200E+02  0.15257674571E+03  0.00000000000E+00 0. -1.
        -11    1    3    3    0    0 -0.81538389484E+03  0.16171654857E+03  0.54602281570E+03  0.99455721470E+03  0.00000000000E+00 0.  1.
         22    1    1    2    0    0  0.93838287690E+03 -0.21895752524E+03 -0.16928265937E+03  0.97834627831E+03  0.00000000000E+00 0.  1.
<mgrwt>
<rscale>  0 0.20780407E+04</rscale>
<asrwt>0</asrwt>
<pdfrwt beam="1">  1        4 0.19784902E+00 0.20780407E+04</pdfrwt>
<pdfrwt beam="2">  1       -4 0.12914795E+00 0.20780407E+04</pdfrwt>
<totfact> 0.11041283E-01</totfact>
</mgrwt>
</event>
<event>
 6    1  0.9562506E-007  0.4738678E+04  0.7818608E-02  0.7870134E-01
          1   -1    0    0  501    0  0.00000000000E+00  0.00000000000E+00  0.29549970307E+04  0.29549970307E+04  0.00000000000E+00 0. -1.
         -1   -1    0    0    0  501 -0.00000000000E+00 -0.00000000000E+00 -0.18997541938E+04  0.18997541938E+04  0.00000000000E+00 0.  1.
         23    2    1    2    0    0  0.56588863091E+03  0.14324144176E+04  0.23712574390E+04  0.28289339970E+04  0.89245229447E+02 0.  0.
         13    1    3    3    0    0  0.34276679104E+03  0.85137880975E+03  0.13327058922E+04  0.16181594315E+04  0.00000000000E+00 0.  1.
        -13    1    3    3    0    0  0.22312183986E+03  0.58103560787E+03  0.10385515468E+04  0.12107745655E+04  0.00000000000E+00 0. -1.
         22    1    1    2    0    0 -0.56588863091E+03 -0.14324144176E+04 -0.13160146020E+04  0.20258172275E+04  0.00000000000E+00 0.  1.
<mgrwt>
<rscale>  0 0.47386783E+04</rscale>
<asrwt>0</asrwt>
<pdfrwt beam="1">  1        1 0.45461493E+00 0.47386783E+04</pdfrwt>
<pdfrwt beam="2">  1       -1 0.29226988E+00 0.47386783E+04</pdfrwt>
<totfact> 0.17607327E-02</totfact>
</mgrwt>
</event>
<event>
 6    1  0.9562506E-007  0.1624538E+04  0.7818608E-02  0.8805614E-01
         -2   -1    0    0    0  501 -0.00000000000E+00  0.00000000000E+00  0.13950649822E+04  0.13950649822E+04  0.00000000000E+00 0.  1.
          2   -1    0    0  501    0  0.00000000000E+00 -0.00000000000E+00 -0.47293896137E+03  0.47293896137E+03  0.00000000000E+00 0. -1.
         23    2    1    2    0    0  0.37732361015E+03 -0.27139482418E+03  0.12249345362E+04  0.13132776558E+04  0.90583254034E+02 0.  0.
         11    1    3    3    0    0  0.14863563633E+03 -0.54939670931E+02  0.39285293000E+03  0.42360871619E+03  0.00000000000E+00 0.  1.
        -11    1    3    3    0    0  0.22868797382E+03 -0.21645515325E+03  0.83208160622E+03  0.88966893963E+03  0.00000000000E+00 0. -1.
         22    1    1    2    0    0 -0.37732361015E+03  0.27139482418E+03 -0.30280851535E+03  0.55472628777E+03  0.00000000000E+00 0. -1.
<mgrwt>
<rscale>  0 0.16245376E+04</rscale>
<asrwt>0</asrwt>
<pdfrwt beam="1">  1        2 0.72759841E-01 0.16245376E+04</pdfrwt>
<pdfrwt beam="2">  1       -2 0.21462538E+00 0.16245376E+04</pdfrwt>
<totfact> 0.67176889E+00</totfact>
</mgrwt>
</event>
<event>
 6    1  0.9562506E-007  0.1047570E+04  0.7818608E-02  0.9257857E-01
          2   -1    0    0  501    0  0.00000000000E+00  0.00000000000E+00  0.11313571021E+04  0.11313571021E+04  0.00000000000E+00 0. -1.
         -2   -1    0    0    0  501 -0.00000000000E+00 -0.00000000000E+00 -0.24249693226E+03  0.24249693226E+03  0.00000000000E+00 0.  1.
         23    2    1    2    0    0  0.50502222724E+03 -0.22567536152E+02  0.60770741339E+03  0.79540471405E+03  0.88338073032E+02 0.  0.
         11    1    3    3    0    0  0.13448865098E+03 -0.10652063441E+02  0.22665738077E+03  0.26376927788E+03  0.00000000000E+00 0. -1.
        -11    1    3    3    0    0  0.37053357626E+03 -0.11915472711E+02  0.38105003262E+03  0.53163543617E+03  0.00000000000E+00 0.  1.
         22    1    1    2    0    0 -0.50502222724E+03  0.22567536152E+02  0.28115275640E+03  0.57844932027E+03  0.00000000000E+00 0.  1.
<mgrwt>
<rscale>  0 0.10475698E+04</rscale>
<asrwt>0</asrwt>
<pdfrwt beam="1">  1        2 0.17405493E+00 0.10475698E+04</pdfrwt>
<pdfrwt beam="2">  1       -2 0.37307221E-01 0.10475698E+04</pdfrwt>
<totfact> 0.14045168E+02</totfact>
</mgrwt>
</event>
<event>
 6    1  0.9562506E-007  0.2162525E+04  0.7818608E-02  0.8534190E-01
         -2   -1    0    0    0  501 -0.00000000000E+00  0.00000000000E+00  0.60926000528E+03  0.60926000528E+03  0.00000000000E+00 0.  1.
          2   -1    0    0  501    0  0.00000000000E+00 -0.00000000000E+00 -0.19189313142E+04  0.19189313142E+04  0.00000000000E+00 0. -1.
         23    2    1    2    0    0  0.46186121869E+03  0.40996241016E+03  0.37900141391E+03  0.73013666851E+03  0.89847202939E+02 0.  0.
         11    1    3    3    0    0  0.23104257650E+03  0.18844917468E+03  0.23342659047E+03  0.37865780954E+03  0.00000000000E+00 0. -1.
        -11    1    3    3    0    0  0.23081864220E+03  0.22151323547E+03  0.14557482345E+03  0.35147885896E+03  0.00000000000E+00 0.  1.
         22    1    1    2    0    0 -0.46186121869E+03 -0.40996241016E+03 -0.16886727229E+04  0.17980546510E+04  0.00000000000E+00 0. -1.
<mgrwt>
<rscale>  0 0.21625245E+04</rscale>
<asrwt>0</asrwt>
<pdfrwt beam="1">  1        2 0.29522020E+00 0.21625245E+04</pdfrwt>
<pdfrwt beam="2">  1       -2 0.93732309E-01 0.21625245E+04</pdfrwt>
<totfact> 0.65350108E+00</totfact>
</mgrwt>
</event>
<event>
 6    1  0.9562506E-007  0.4397830E+04  0.7818608E-02  0.7928772E-01
          2   -1    0    0  501    0  0.00000000000E+00  0.00000000000E+00  0.32254821748E+04  0.32254821748E+04  0.00000000000E+00 0. -1.
         -2   -1    0    0    0  501 -0.00000000000E+00 -0.00000000000E+00 -0.14990711648E+04  0.14990711648E+04  0.00000000000E+00 0.  1.
         23    2    1    2    0    0  0.95181516631E+03  0.43511257470E+03  0.29400379529E+04  0.31220036774E+04  0.88367040310E+02 0.  0.
         11    1    3    3    0    0  0.64599172538E+03  0.25177264972E+03  0.19813324138E+04  0.20991362296E+04  0.00000000000E+00 0.  1.
        -11    1    3    3    0    0  0.30582344093E+03  0.18333992498E+03  0.95870553908E+03  0.10228674478E+04  0.00000000000E+00 0. -1.
         22    1    1    2    0    0 -0.95181516631E+03 -0.43511257470E+03 -0.12136269428E+04  0.16025496622E+04  0.00000000000E+00 0.  1.
<mgrwt>
<rscale>  0 0.43978301E+04</rscale>
<asrwt>0</asrwt>
<pdfrwt beam="1">  1        2 0.49622803E+00 0.43978301E+04</pdfrwt>
<pdfrwt beam="2">  1       -2 0.23062633E+00 0.43978301E+04</pdfrwt>
<totfact> 0.80693197E-02</totfact>
</mgrwt>
</event>
<event>
 6    1  0.9562506E-007  0.1171261E+04  0.7818608E-02  0.9138391E-01
          2   -1    0    0  501    0  0.00000000000E+00  0.00000000000E+00  0.83295850180E+03  0.83295850180E+03  0.00000000000E+00 0. -1.
         -2   -1    0    0    0  501 -0.00000000000E+00 -0.00000000000E+00 -0.41174066938E+03  0.41174066938E+03  0.00000000000E+00 0.  1.
         23    2    1    2    0    0 -0.28103923640E+03 -0.47273253645E+03  0.41414581022E+03  0.69469088313E+03  0.92841626258E+02 0.  0.
         11    1    3    3    0    0 -0.15856305548E+03 -0.29217894820E+03  0.19473067172E+03  0.38526719928E+03  0.00000000000E+00 0.  1.
        -11    1    3    3    0    0 -0.12247618093E+03 -0.18055358826E+03  0.21941513851E+03  0.30942368386E+03  0.00000000000E+00 0. -1.
         22    1    1    2    0    0  0.28103923640E+03  0.47273253645E+03  0.70720221881E+01  0.55000828804E+03  0.00000000000E+00 0.  1.
<mgrwt>
<rscale>  0 0.11712607E+04</rscale>
<asrwt>0</asrwt>
<pdfrwt beam="1">  1        2 0.12814746E+00 0.11712607E+04</pdfrwt>
<pdfrwt beam="2">  1       -2 0.63344719E-01 0.11712607E+04</pdfrwt>
<totfact> 0.74448173E+01</totfact>
</mgrwt>
</event>
<event>
 6    1  0.9562506E-007  0.4831813E+04  0.7818608E-02  0.7854989E-01
          2   -1    0    0  501    0  0.00000000000E+00  0.00000000000E+00  0.20984183637E+04  0.20984183637E+04  0.00000000000E+00 0. -1.
         -2   -1    0    0    0  501 -0.00000000000E+00 -0.00000000000E+00 -0.27814302784E+04  0.27814302784E+04  0.00000000000E+00 0.  1.
         23    2    1    2    0    0  0.18762869692E+04  0.15110932742E+04 -0.51310316063E+03  0.24647451953E+04  0.88534458414E+02 0.  0.
         13    1    3    3    0    0  0.10393085404E+04  0.87604595188E+03 -0.32177656221E+03  0.13968388983E+04  0.00000000000E+00 0.  1.
        -13    1    3    3    0    0  0.83697842882E+03  0.63504732227E+03 -0.19132659842E+03  0.10679062970E+04  0.00000000000E+00 0. -1.
         22    1    1    2    0    0 -0.18762869692E+04 -0.15110932742E+04 -0.16990875399E+03  0.24151034468E+04  0.00000000000E+00 0. -1.
<mgrwt>
<rscale>  0 0.48318131E+04</rscale>
<asrwt>0</asrwt>
<pdfrwt beam="1">  1        2 0.32283360E+00 0.48318131E+04</pdfrwt>
<pdfrwt beam="2">  1       -2 0.42791235E+00 0.48318131E+04</pdfrwt>
<totfact> 0.21142290E-02</totfact>
</mgrwt>
</event>
<event>
 6    1  0.9562506E-007  0.2324303E+04  0.7818608E-02  0.8468400E-01
          2   -1    0    0  501    0  0.00000000000E+00  0.00000000000E+00  0.10335036235E+04  0.10335036235E+04  0.00000000000E+00 0. -1.
         -2   -1    0    0    0  501 -0.00000000000E+00 -0.00000000000E+00 -0.13068133595E+04  0.13068133595E+04  0.00000000000E+00 0.  1.
         23    2    1    2    0    0  0.11724637893E+03  0.11541555969E+04 -0.16245067673E+03  0.11749365360E+04  0.90905368771E+02 0.  0.
         13    1    3    3    0    0  0.61849206198E+02  0.37267894855E+03 -0.17345616756E+02  0.37817428974E+03  0.00000000000E+00 0. -1.
        -13    1    3    3    0    0  0.55397172728E+02  0.78147664834E+03 -0.14510505998E+03  0.79676224627E+03  0.00000000000E+00 0.  1.
         22    1    1    2    0    0 -0.11724637893E+03 -0.11541555969E+04 -0.11085905919E+03  0.11653804470E+04  0.00000000000E+00 0.  1.
<mgrwt>
<rscale>  0 0.23243032E+04</rscale>
<asrwt>0</asrwt>
<pdfrwt beam="1">  1        2 0.15900056E+00 0.23243032E+04</pdfrwt>
<pdfrwt beam="2">  1       -2 0.20104821E+00 0.23243032E+04</pdfrwt>
<totfact> 0.28395317E+00</totfact>
</mgrwt>
</event>
<event>
 6    1  0.9562506E-007  0.1736312E+04  0.7818608E-02  0.8740921E-01
          2   -1    0    0  501    0  0.00000000000E+00  0.00000000000E+00  0.18011146214E+04  0.18011146214E+04  0.00000000000E+00 0. -1.
         -2   -1    0    0    0  501 -0.00000000000E+00 -0.00000000000E+00 -0.41846020887E+03  0.41846020887E+03  0.00000000000E+00 0.  1.
         23    2    1    2    0    0  0.66731608332E+03 -0.53918501113E+03  0.54494658560E+03  0.10204978375E+04  0.91748699826E+02 0.  0.
         13    1    3    3    0    0  0.14455228901E+03 -0.16425049956E+03  0.15636467731E+03  0.26893029426E+03  0.00000000000E+00 0.  1.
        -13    1    3    3    0    0  0.52276379431E+03 -0.37493451158E+03  0.38858190829E+03  0.75156754325E+03  0.00000000000E+00 0. -1.
         22    1    1    2    0    0 -0.66731608332E+03  0.53918501113E+03  0.83770782696E+03  0.11990769928E+04  0.00000000000E+00 0. -1.
<mgrwt>
<rscale>  0 0.17363120E+04</rscale>
<asrwt>0</asrwt>
<pdfrwt beam="1">  1        2 0.27709455E+00 0.17363120E+04</pdfrwt>
<pdfrwt beam="2">  1       -2 0.64378495E-01 0.17363120E+04</pdfrwt>
<totfact> 0.18219664E+01</totfact>
</mgrwt>
</event>
<event>
 6    1  0.9562506E-007  0.1953261E+04  0.7818608E-02  0.8628790E-01
         -2   -1    0    0    0  501 -0.00000000000E+00  0.00000000000E+00  0.30760282657E+03  0.30760282657E+03  0.00000000000E+00 0.  1.
          2   -1    0    0  501    0  0.00000000000E+00 -0.00000000000E+00 -0.31007761758E+04  0.31007761758E+04  0.00000000000E+00 0. -1.
         23    2    1    2    0    0  0.75471257653E+03  0.37698647495E+03 -0.22506999319E+04  0.24053898280E+04  0.92413015423E+02 0.  0.
         13    1    3    3    0    0  0.50969809358E+03  0.21113194684E+03 -0.15227076838E+04  0.16195701701E+04  0.00000000000E+00 0.  1.
        -13    1    3    3    0    0  0.24501448295E+03  0.16585452810E+03 -0.72799224814E+03  0.78581965788E+03  0.00000000000E+00 0. -1.
         22    1    1    2    0    0 -0.75471257653E+03 -0.37698647495E+03 -0.54247341726E+03  0.10029891744E+04  0.00000000000E+00 0.  1.
<mgrwt>
<rscale>  0 0.19532614E+04</rscale>
<asrwt>0</asrwt>
<pdfrwt beam="1">  1        2 0.47704247E+00 0.19532614E+04</pdfrwt>
<pdfrwt beam="2">  1       -2 0.47323513E-01 0.19532614E+04</pdfrwt>
<totfact> 0.59517498E+00</totfact>
</mgrwt>
</event>
<event>
 6    1  0.9562506E-007  0.3281015E+04  0.7818608E-02  0.8167743E-01
          2   -1    0    0  501    0  0.00000000000E+00  0.00000000000E+00  0.14628824766E+04  0.14628824766E+04  0.00000000000E+00 0. -1.
         -2   -1    0    0    0  501 -0.00000000000E+00 -0.00000000000E+00 -0.18396994488E+04  0.18396994488E+04  0.00000000000E+00 0.  1.
         23    2    1    2    0    0  0.84809288756E+03  0.60447637788E+02  0.12221103385E+04  0.14916473580E+04  0.92426717906E+02 0.  0.
         13    1    3    3    0    0  0.57599662406E+03  0.77969646809E+02  0.79221378134E+03  0.98257521448E+03  0.00000000000E+00 0. -1.
        -13    1    3    3    0    0  0.27209626350E+03 -0.17522009021E+02  0.42989655718E+03  0.50907214350E+03  0.00000000000E+00 0.  1.
         22    1    1    2    0    0 -0.84809288756E+03 -0.60447637788E+02 -0.15989273107E+04  0.18109345675E+04  0.00000000000E+00 0.  1.
<mgrwt>
<rscale>  0 0.32810145E+04</rscale>
<asrwt>0</asrwt>
<pdfrwt beam="1">  1        2 0.22505884E+00 0.32810145E+04</pdfrwt>
<pdfrwt beam="2">  1       -2 0.28303068E+00 0.32810145E+04</pdfrwt>
<totfact> 0.44976731E-01</totfact>
</mgrwt>
</event>
<event>
 6    1  0.9562506E-007  0.3052419E+04  0.7818608E-02  0.8228919E-01
         -1   -1    0    0    0  501 -0.00000000000E+00  0.00000000000E+00  0.19224144547E+04  0.19224144547E+04  0.00000000000E+00 0.  1.
          1   -1    0    0  501    0  0.00000000000E+00 -0.00000000000E+00 -0.12116611148E+04  0.12116611148E+04  0.00000000000E+00 0. -1.
         23    2    1    2    0    0 -0.92511745946E+03 -0.81770897397E+03 -0.56296245478E+03  0.13601414655E+04  0.92562415834E+02 0.  0.
         13    1    3    3    0    0 -0.40161990391E+03 -0.32495931804E+03 -0.27923010310E+03  0.58725340023E+03  0.00000000000E+00 0. -1.
        -13    1    3    3    0    0 -0.52349755555E+03 -0.49274965593E+03 -0.28373235167E+03  0.77288806529E+03  0.00000000000E+00 0.  1.
         22    1    1    2    0    0  0.92511745946E+03  0.81770897397E+03  0.12737157946E+04  0.17739341040E+04  0.00000000000E+00 0.  1.
<mgrwt>
<rscale>  0 0.30524186E+04</rscale>
<asrwt>0</asrwt>
<pdfrwt beam="1">  1        1 0.18640940E+00 0.30524186E+04</pdfrwt>
<pdfrwt beam="2">  1       -1 0.29575607E+00 0.30524186E+04</pdfrwt>
<totfact> 0.31231643E-01</totfact>
</mgrwt>
</event>
<event>
 6    1  0.9562506E-007  0.4037595E+04  0.7818608E-02  0.7997005E-01
         -1   -1    0    0    0  501 -0.00000000000E+00  0.00000000000E+00  0.27179351767E+04  0.27179351767E+04  0.00000000000E+00 0.  1.
          1   -1    0    0  501    0  0.00000000000E+00 -0.00000000000E+00 -0.14995000311E+04  0.14995000311E+04  0.00000000000E+00 0. -1.
         23    2    1    2    0    0  0.70517374599E+03  0.18838518551E+04  0.44395302278E+03  0.20619792508E+04  0.92175487393E+02 0.  0.
         11    1    3    3    0    0  0.24897874011E+03  0.68269306130E+03  0.11560080383E+03  0.73581504118E+03  0.00000000000E+00 0.  1.
        -11    1    3    3    0    0  0.45619500588E+03  0.12011587938E+04  0.32835221896E+03  0.13261642097E+04  0.00000000000E+00 0. -1.
         22    1    1    2    0    0 -0.70517374599E+03 -0.18838518551E+04  0.77448212273E+03  0.21554559570E+04  0.00000000000E+00 0.  1.
<mgrwt>
<rscale>  0 0.40375953E+04</rscale>
<asrwt>0</asrwt>
<pdfrwt beam="1">  1        1 0.23069231E+00 0.40375953E+04</pdfrwt>
<pdfrwt beam="2">  1       -1 0.41814387E+00 0.40375953E+04</pdfrwt>
<totfact> 0.27413789E-02</totfact>
</mgrwt>
</event>
<event>
 6    1  0.9562506E-007  0.1527743E+04  0.7818608E-02  0.8866211E-01
         -1   -1    0    0    0  501 -0.00000000000E+00  0.00000000000E+00  0.47310413704E+03  0.47310413704E+03  0.00000000000E+00 0.  1.
          1   -1    0    0  501    0  0.00000000000E+00 -0.00000000000E+00 -0.12333426924E+04  0.12333426924E+04  0.00000000000E+00 0. -1.
         23    2    1    2    0    0 -0.34608367146E+03  0.47581214791E+03  0.15792334940E+03  0.61594584773E+03  0.90985687356E+02 0.  0.
         11    1    3    3    0    0 -0.20038200644E+03  0.31777321553E+03  0.13739907092E+03  0.40001408688E+03  0.00000000000E+00 0. -1.
        -11    1    3    3    0    0 -0.14570166502E+03  0.15803893238E+03  0.20524278477E+02  0.21593176085E+03  0.00000000000E+00 0.  1.
         22    1    1    2    0    0  0.34608367146E+03 -0.47581214791E+03 -0.91816190471E+03  0.10905009817E+04  0.00000000000E+00 0. -1.
<mgrwt>
<rscale>  0 0.15277428E+04</rscale>
<asrwt>0</asrwt>
<pdfrwt beam="1">  1        1 0.18974503E+00 0.15277428E+04</pdfrwt>
<pdfrwt beam="2">  1       -1 0.72785251E-01 0.15277428E+04</pdfrwt>
<totfact> 0.18561915E+01</totfact>
</mgrwt>
</event>
<event>
 6    1  0.9562506E-007  0.2274682E+04  0.7818608E-02  0.8487971E-01
          2   -1    0    0  501    0  0.00000000000E+00  0.00000000000E+00  0.17465397301E+04  0.17465397301E+04  0.00000000000E+00 0. -1.
         -2   -1    0    0    0  501 -0.00000000000E+00 -0.00000000000E+00 -0.74063256264E+03  0.74063256264E+03  0.00000000000E+00 0.  1.
         23    2    1    2    0    0  0.11004899804E+04 -0.27738311682E+03  0.46024990101E+03  0.12279020903E+04  0.88848080562E+02 0.  0.
         11    1    3    3    0    0  0.78568827844E+03 -0.16277044125E+03  0.34790419307E+03  0.87454994996E+03  0.00000000000E+00 0.  1.
        -11    1    3    3    0    0  0.31480170197E+03 -0.11461267558E+03  0.11234570794E+03  0.35335214031E+03  0.00000000000E+00 0. -1.
         22    1    1    2    0    0 -0.11004899804E+04  0.27738311682E+03  0.54565726649E+03  0.12592702025E+04  0.00000000000E+00 0. -1.
<mgrwt>
<rscale>  0 0.22746817E+04</rscale>
<asrwt>0</asrwt>
<pdfrwt beam="1">  1        2 0.26869842E+00 0.22746817E+04</pdfrwt>
<pdfrwt beam="2">  1       -2 0.11394347E+00 0.22746817E+04</pdfrwt>
<totfact> 0.50626599E+00</totfact>
</mgrwt>
</event>
<event>
 6    1  0.9562506E-007  0.4530553E+04  0.7818608E-02  0.7905310E-01
         -1   -1    0    0    0  501 -0.00000000000E+00  0.00000000000E+00  0.18935002105E+04  0.18935002105E+04  0.00000000000E+00 0.  1.
          1   -1    0    0  501    0  0.00000000000E+00 -0.00000000000E+00 -0.27100488606E+04  0.27100488606E+04  0.00000000000E+00 0. -1.
         23    2    1    2    0    0  0.22569413503E+04  0.13178210802E+03 -0.27908692234E+03  0.22797556440E+04  0.90804756230E+02 0.  0.
         11    1    3    3    0    0  0.84246088675E+03  0.73263478078E+02 -0.14146746520E+03  0.85739193292E+03  0.00000000000E+00 0. -1.
        -11    1    3    3    0    0  0.14144804635E+04  0.58518629946E+02 -0.13761945714E+03  0.14223637111E+04  0.00000000000E+00 0.  1.
         22    1    1    2    0    0 -0.22569413503E+04 -0.13178210802E+03 -0.53746172779E+03  0.23237934270E+04  0.00000000000E+00 0. -1.
<mgrwt>
<rscale>  0 0.45305532E+04</rscale>
<asrwt>0</asrwt>
<pdfrwt beam="1">  1        1 0.41693059E+00 0.45305532E+04</pdfrwt>
<pdfrwt beam="2">  1       -1 0.29130773E+00 0.45305532E+04</pdfrwt>
<totfact> 0.27210914E-02</totfact>
</mgrwt>
</event>
<event>
 6    1  0.9562506E-007  0.1095487E+04  0.7818608E-02  0.9209602E-01
         -2   -1    0    0    0  501 -0.00000000000E+00  0.00000000000E+00  0.29205078171E+03  0.29205078171E+03  0.00000000000E+00 0.  1.
          2   -1    0    0  501    0  0.00000000000E+00 -0.00000000000E+00 -0.10272969819E+04  0.10272969819E+04  0.00000000000E+00 0. -1.
         23    2    1    2    0    0 -0.42298300573E+02 -0.43376965709E+03  0.21739759107E+02  0.44586450435E+03  0.91527468351E+02 0.  0.
         11    1    3    3    0    0  0.11849039879E+02 -0.12676566290E+03  0.40371617587E+02  0.13356571620E+03  0.00000000000E+00 0.  1.
        -11    1    3    3    0    0 -0.54147340452E+02 -0.30700399419E+03 -0.18631858480E+02  0.31229878815E+03  0.00000000000E+00 0. -1.
         22    1    1    2    0    0  0.42298300573E+02  0.43376965709E+03 -0.75698595925E+03  0.87348325923E+03  0.00000000000E+00 0. -1.
<mgrwt>
<rscale>  0 0.10954869E+04</rscale>
<asrwt>0</asrwt>
<pdfrwt beam="1">  1        2 0.15804569E+00 0.10954869E+04</pdfrwt>
<pdfrwt beam="2">  1       -2 0.44930890E-01 0.10954869E+04</pdfrwt>
<totfact> 0.11282720E+02</totfact>
</mgrwt>
</event>
<event>
 6    1  0.9562506E-007  0.1627063E+04  0.7818608E-02  0.8804093E-01
          2   -1    0    0  501    0  0.00000000000E+00  0.00000000000E+00  0.20479822274E+04  0.20479822274E+04  0.00000000000E+00 0. -1.
         -2   -1    0    0    0  501 -0.00000000000E+00 -0.00000000000E+00 -0.32316368942E+03  0.32316368942E+03  0.00000000000E+00 0.  1.
         23    2    1    2    0    0 -0.28545407803E+03  0.61396614834E+03  0.21426293519E+03  0.71578592846E+03  0.89456291077E+02 0.  0.
         13    1    3    3    0    0 -0.13865758599E+03  0.38894631383E+03  0.15188346183E+03  0.43997016623E+03  0.00000000000E+00 0. -1.
        -13    1    3    3    0    0 -0.14679649204E+03  0.22501983451E+03  0.62379473364E+02  0.27581576223E+03  0.00000000000E+00 0.  1.
         22    1    1    2    0    0  0.28545407803E+03 -0.61396614834E+03  0.15105556028E+04  0.16553599883E+04  0.00000000000E+00 0. -1.
<mgrwt>
<rscale>  0 0.16270630E+04</rscale>
<asrwt>0</asrwt>
<pdfrwt beam="1">  1        2 0.31507418E+00 0.16270630E+04</pdfrwt>
<pdfrwt beam="2">  1       -2 0.49717492E-01 0.16270630E+04</pdfrwt>
<totfact> 0.23021842E+01</totfact>
</mgrwt>
</event>
<event>
 6    1  0.9562506E-007  0.1534660E+04  0.7818608E-02  0.8861726E-01
          2   -1    0    0  501    0  0.00000000000E+00  0.00000000000E+00  0.23119496373E+04  0.23119496373E+04  0.00000000000E+00 0. -1.
         -2   -1    0    0    0  501 -0.00000000000E+00 -0.00000000000E+00 -0.25467473521E+03  0.25467473521E+03  0.00000000000E+00 0.  1.
         23    2    1    2    0    0 -0.61320884778E+03 -0.44325967995E+03  0.12214804616E+04  0.14392129207E+04  0.82553487042E+02 0.  0.
         13    1    3    3    0    0 -0.16192889276E+03 -0.10933634864E+03  0.25133351680E+03  0.31834562995E+03  0.00000000000E+00 0.  1.
        -13    1    3    3    0    0 -0.45127995502E+03 -0.33392333131E+03  0.97014694479E+03  0.11208672908E+04  0.00000000000E+00 0. -1.
         22    1    1    2    0    0  0.61320884778E+03  0.44325967995E+03  0.83579444052E+03  0.11274114518E+04  0.00000000000E+00 0.  1.
<mgrwt>
<rscale>  0 0.15346598E+04</rscale>
<asrwt>0</asrwt>
<pdfrwt beam="1">  1        2 0.35568455E+00 0.15346598E+04</pdfrwt>
<pdfrwt beam="2">  1       -2 0.39180730E-01 0.15346598E+04</pdfrwt>
<totfact> 0.26528492E+01</totfact>
</mgrwt>
</event>
<event>
 6    1  0.9562506E-007  0.2077228E+04  0.7818608E-02  0.8571341E-01
          1   -1    0    0  501    0  0.00000000000E+00  0.00000000000E+00  0.15678314487E+04  0.15678314487E+04  0.00000000000E+00 0. -1.
         -1   -1    0    0    0  501 -0.00000000000E+00 -0.00000000000E+00 -0.68803262323E+03  0.68803262323E+03  0.00000000000E+00 0.  1.
         23    2    1    2    0    0  0.12004083478E+03  0.47619399674E+03  0.14321875315E+04  0.15167403969E+04  0.90386844540E+02 0.  0.
         11    1    3    3    0    0  0.57553172793E+02  0.81775092294E+02  0.28438132014E+03  0.30145027560E+03  0.00000000000E+00 0. -1.
        -11    1    3    3    0    0  0.62487661991E+02  0.39441890445E+03  0.11478062113E+04  0.12152901213E+04  0.00000000000E+00 0.  1.
         22    1    1    2    0    0 -0.12004083478E+03 -0.47619399674E+03 -0.55238870598E+03  0.73912367507E+03  0.00000000000E+00 0.  1.
<mgrwt>
<rscale>  0 0.20772281E+04</rscale>
<asrwt>0</asrwt>
<pdfrwt beam="1">  1        1 0.24120484E+00 0.20772281E+04</pdfrwt>
<pdfrwt beam="2">  1       -1 0.10585117E+00 0.20772281E+04</pdfrwt>
<totfact> 0.45203802E+00</totfact>
</mgrwt>
</event>
<event>
 6    1  0.9562506E-007  0.2097306E+04  0.7818608E-02  0.8562431E-01
         -1   -1    0    0    0  501 -0.00000000000E+00  0.00000000000E+00  0.12428131070E+04  0.12428131070E+04  0.00000000000E+00 0.  1.
          1   -1    0    0  501    0  0.00000000000E+00 -0.00000000000E+00 -0.88482608154E+03  0.88482608154E+03  0.00000000000E+00 0. -1.
         23    2    1    2    0    0  0.58285873477E+03 -0.86844622809E+03  0.12807380719E+03  0.10567595297E+04  0.80091495771E+02 0.  0.
         13    1    3    3    0    0  0.48626789498E+03 -0.67980865511E+03  0.12256067481E+03  0.84475877755E+03  0.00000000000E+00 0. -1.
        -13    1    3    3    0    0  0.96590839791E+02 -0.18863757298E+03  0.55131323846E+01  0.21200075212E+03  0.00000000000E+00 0.  1.
         22    1    1    2    0    0 -0.58285873477E+03  0.86844622809E+03  0.22991321824E+03  0.10708796588E+04  0.00000000000E+00 0.  1.
<mgrwt>
<rscale>  0 0.20973063E+04</rscale>
<asrwt>0</asrwt>
<pdfrwt beam="1">  1        1 0.13612709E+00 0.20973063E+04</pdfrwt>
<pdfrwt beam="2">  1       -1 0.19120202E+00 0.20973063E+04</pdfrwt>
<totfact> 0.29855108E+00</totfact>
</mgrwt>
</event>
<event>
 6    1  0.9562506E-007  0.1427876E+04  0.7818608E-02  0.8933884E-01
          1   -1    0    0  501    0  0.00000000000E+00  0.00000000000E+00  0.25668831363E+03  0.25668831363E+03  0.00000000000E+00 0. -1.
         -1   -1    0    0    0  501 -0.00000000000E+00 -0.00000000000E+00 -0.19857051688E+04  0.19857051688E+04  0.00000000000E+00 0.  1.
         23    2    1    2    0    0 -0.22624289921E+03 -0.57427829499E+03 -0.14222503651E+04  0.15531278668E+04  0.91807733433E+02 0.  0.
         13    1    3    3    0    0 -0.18565371245E+03 -0.35085962745E+03 -0.90603228161E+03  0.98917353100E+03  0.00000000000E+00 0. -1.
        -13    1    3    3    0    0 -0.40589186761E+02 -0.22341866755E+03 -0.51621808350E+03  0.56395433576E+03  0.00000000000E+00 0.  1.
         22    1    1    2    0    0  0.22624289921E+03  0.57427829499E+03 -0.30676649010E+03  0.68926561570E+03  0.00000000000E+00 0. -1.
<mgrwt>
<rscale>  0 0.14278758E+04</rscale>
<asrwt>0</asrwt>
<pdfrwt beam="1">  1        1 0.39490511E-01 0.14278758E+04</pdfrwt>
<pdfrwt beam="2">  1       -1 0.30549309E+00 0.14278758E+04</pdfrwt>
<totfact> 0.31914987E+00</totfact>
</mgrwt>
</event>
<event>
 6    1  0.9562506E-007  0.9784392E+03  0.7818608E-02  0.9332514E-01
          2   -1    0    0  501    0  0.00000000000E+00  0.00000000000E+00  0.46433320841E+03  0.46433320841E+03  0.00000000000E+00 0. -1.
         -2   -1    0    0    0  501 -0.00000000000E+00 -0.00000000000E+00 -0.51543975054E+03  0.51543975054E+03  0.00000000000E+00 0.  1.
         23    2    1    2    0    0 -0.19202333173E+03 -0.11664451051E+03  0.40446095518E+03  0.47181563163E+03  0.92425235854E+02 0.  0.
         13    1    3    3    0    0 -0.23371991395E+02  0.38783823587E+01  0.10480496074E+03  0.10744939100E+03  0.00000000000E+00 0. -1.
        -13    1    3    3    0    0 -0.16865134034E+03 -0.12052289287E+03  0.29965599444E+03  0.36436624063E+03  0.00000000000E+00 0.  1.
         22    1    1    2    0    0  0.19202333173E+03  0.11664451051E+03 -0.45556749731E+03  0.50795732731E+03  0.00000000000E+00 0.  1.
<mgrwt>
<rscale>  0 0.97843915E+03</rscale>
<asrwt>0</asrwt>
<pdfrwt beam="1">  1        2 0.71435879E-01 0.97843915E+03</pdfrwt>
<pdfrwt beam="2">  1       -2 0.79298423E-01 0.97843915E+03</pdfrwt>
<totfact> 0.94615844E+01</totfact>
</mgrwt>
</event>
<event>
 6    1  0.9562506E-007  0.2165004E+04  0.7818608E-02  0.8533137E-01
          1   -1    0    0  501    0  0.00000000000E+00  0.00000000000E+00  0.98403554504E+03  0.98403554504E+03  0.00000000000E+00 0. -1.
         -1   -1    0    0    0  501 -0.00000000000E+00 -0.00000000000E+00 -0.11908216376E+04  0.11908216376E+04  0.00000000000E+00 0.  1.
         23    2    1    2    0    0  0.17329330495E+02 -0.10712927835E+04 -0.24386109142E+03  0.11027829831E+04  0.93239166977E+02 0.  0.
         11    1    3    3    0    0 -0.20986381834E+02 -0.88636261702E+03 -0.20313399913E+03  0.90958371724E+03  0.00000000000E+00 0. -1.
        -11    1    3    3    0    0  0.38315712329E+02 -0.18493016648E+03 -0.40727092293E+02  0.19319926587E+03  0.00000000000E+00 0.  1.
         22    1    1    2    0    0 -0.17329330495E+02  0.10712927835E+04  0.37074998905E+02  0.10720741995E+04  0.00000000000E+00 0. -1.
<mgrwt>
<rscale>  0 0.21650042E+04</rscale>
<asrwt>0</asrwt>
<pdfrwt beam="1">  1        1 0.15139008E+00 0.21650042E+04</pdfrwt>
<pdfrwt beam="2">  1       -1 0.18320333E+00 0.21650042E+04</pdfrwt>
<totfact> 0.28115415E+00</totfact>
</mgrwt>
</event>
<event>
 6    1  0.9562506E-007  0.3332602E+04  0.7818608E-02  0.8154649E-01
         -1   -1    0    0    0  501 -0.00000000000E+00  0.00000000000E+00  0.15315751715E+04  0.15315751715E+04  0.00000000000E+00 0.  1.
          1   -1    0    0  501    0  0.00000000000E+00 -0.00000000000E+00 -0.18128781700E+04  0.18128781700E+04  0.00000000000E+00 0. -1.
         23    2    1    2    0    0 -0.48022524082E+03  0.20696954658E+03 -0.17271702507E+04  0.18069278014E+04  0.91751456054E+02 0.  0.
         13    1    3    3    0    0 -0.46149411113E+03  0.17900816554E+03 -0.15695513879E+04  0.16457558437E+04  0.00000000000E+00 0.  1.
        -13    1    3    3    0    0 -0.18731129690E+02  0.27961381032E+02 -0.15761886277E+03  0.16117195770E+03  0.00000000000E+00 0. -1.
         22    1    1    2    0    0  0.48022524082E+03 -0.20696954658E+03  0.14458672522E+04  0.15375255400E+04  0.00000000000E+00 0.  1.
<mgrwt>
<rscale>  0 0.33326021E+04</rscale>
<asrwt>0</asrwt>
<pdfrwt beam="1">  1        1 0.27890433E+00 0.33326021E+04</pdfrwt>
<pdfrwt beam="2">  1       -1 0.23562695E+00 0.33326021E+04</pdfrwt>
<totfact> 0.28620509E-01</totfact>
</mgrwt>
</event>
<event>
 6    1  0.9562506E-007  0.1505204E+04  0.7818608E-02  0.8881000E-01
          2   -1    0    0  501    0  0.00000000000E+00  0.00000000000E+00  0.14035337247E+04  0.14035337247E+04  0.00000000000E+00 0. -1.
         -2   -1    0    0    0  501 -0.00000000000E+00 -0.00000000000E+00 -0.40355958105E+03  0.40355958105E+03  0.00000000000E+00 0.  1.
         23    2    1    2    0    0  0.56480818100E+03 -0.27128960999E+03  0.88799058540E+01  0.63454304158E+03  0.99798221851E+02 0.  0.
         11    1    3    3    0    0  0.45359404930E+03 -0.17135191291E+03  0.11084983319E+02  0.48500713033E+03  0.00000000000E+00 0. -1.
        -11    1    3    3    0    0  0.11121413170E+03 -0.99937697083E+02 -0.22050774655E+01  0.14953591125E+03  0.00000000000E+00 0.  1.
         22    1    1    2    0    0 -0.56480818100E+03  0.27128960999E+03  0.99109423780E+03  0.11725502642E+04  0.00000000000E+00 0. -1.
<mgrwt>
<rscale>  0 0.15052036E+04</rscale>
<asrwt>0</asrwt>
<pdfrwt beam="1">  1        2 0.21592826E+00 0.15052036E+04</pdfrwt>
<pdfrwt beam="2">  1       -2 0.62086090E-01 0.15052036E+04</pdfrwt>
<totfact> 0.33502241E+01</totfact>
</mgrwt>
</event>
<event>
 6    1  0.9562506E-007  0.3614147E+04  0.7818608E-02  0.8087259E-01
          1   -1    0    0  501    0  0.00000000000E+00  0.00000000000E+00  0.31926225127E+04  0.31926225127E+04  0.00000000000E+00 0. -1.
         -1   -1    0    0    0  501 -0.00000000000E+00 -0.00000000000E+00 -0.10228316806E+04  0.10228316806E+04  0.00000000000E+00 0.  1.
         23    2    1    2    0    0 -0.96715552267E+03 -0.66894363017E+03  0.26840758468E+04  0.29319572272E+04  0.96097062205E+02 0.  0.
         11    1    3    3    0    0 -0.85345106807E+03 -0.57576417922E+03  0.24163864802E+04  0.26265579639E+04  0.00000000000E+00 0.  1.
        -11    1    3    3    0    0 -0.11370445461E+03 -0.93179450949E+02  0.26768936662E+03  0.30539926338E+03  0.00000000000E+00 0. -1.
         22    1    1    2    0    0  0.96715552267E+03  0.66894363017E+03 -0.51428501471E+03  0.12834969660E+04  0.00000000000E+00 0.  1.
<mgrwt>
<rscale>  0 0.36141475E+04</rscale>
<asrwt>0</asrwt>
<pdfrwt beam="1">  1        1 0.49117269E+00 0.36141475E+04</pdfrwt>
<pdfrwt beam="2">  1       -1 0.15735872E+00 0.36141475E+04</pdfrwt>
<totfact> 0.10638551E-01</totfact>
</mgrwt>
</event>
<event>
 6    1  0.9562506E-007  0.3123402E+04  0.7818608E-02  0.8209345E-01
          2   -1    0    0  501    0  0.00000000000E+00  0.00000000000E+00  0.23409616879E+04  0.23409616879E+04  0.00000000000E+00 0. -1.
         -2   -1    0    0    0  501 -0.00000000000E+00 -0.00000000000E+00 -0.10418411737E+04  0.10418411737E+04  0.00000000000E+00 0.  1.
         23    2    1    2    0    0  0.10526023930E+04 -0.75966614774E+03  0.15878999597E+04  0.20529690292E+04  0.90504689472E+02 0.  0.
         11    1    3    3    0    0  0.66303168341E+03 -0.50710401065E+03  0.10774255345E+04  0.13629421386E+04  0.00000000000E+00 0.  1.
        -11    1    3    3    0    0  0.38957070962E+03 -0.25256213709E+03  0.51047442525E+03  0.69002689058E+03  0.00000000000E+00 0. -1.
         22    1    1    2    0    0 -0.10526023930E+04  0.75966614774E+03 -0.28877944552E+03  0.13298338325E+04  0.00000000000E+00 0.  1.
<mgrwt>
<rscale>  0 0.31234022E+04</rscale>
<asrwt>0</asrwt>
<pdfrwt beam="1">  1        2 0.36014795E+00 0.31234022E+04</pdfrwt>
<pdfrwt beam="2">  1       -2 0.16028326E+00 0.31234022E+04</pdfrwt>
<totfact> 0.91265194E-01</totfact>
</mgrwt>
</event>
<event>
 6    1  0.9562506E-007  0.8949949E+03  0.7818608E-02  0.9431860E-01
          1   -1    0    0  501    0  0.00000000000E+00  0.00000000000E+00  0.12166816988E+04  0.12166816988E+04  0.00000000000E+00 0. -1.
         -1   -1    0    0    0  501 -0.00000000000E+00 -0.00000000000E+00 -0.16459025755E+03  0.16459025755E+03  0.00000000000E+00 0.  1.
         23    2    1    2    0    0 -0.56625693168E+02  0.42265442283E+03  0.34879839579E+03  0.55879743511E+03  0.93546899035E+02 0.  0.
         11    1    3    3    0    0  0.25403637876E+02  0.13678708567E+03  0.11475943731E+03  0.18034905066E+03  0.00000000000E+00 0. -1.
        -11    1    3    3    0    0 -0.82029331045E+02  0.28586733716E+03  0.23403895848E+03  0.37844838445E+03  0.00000000000E+00 0.  1.
         22    1    1    2    0    0  0.56625693168E+02 -0.42265442283E+03  0.70329304546E+03  0.82247452122E+03  0.00000000000E+00 0. -1.
<mgrwt>
<rscale>  0 0.89499487E+03</rscale>
<asrwt>0</asrwt>
<pdfrwt beam="1">  1        1 0.18718179E+00 0.89499487E+03</pdfrwt>
<pdfrwt beam="2">  1       -1 0.25321579E-01 0.89499487E+03</pdfrwt>
<totfact> 0.14335447E+02</totfact>
</mgrwt>
</event>
<event>
 6    1  0.9562506E-007  0.3470804E+04  0.7818608E-02  0.8120744E-01
         -2   -1    0    0    0  501 -0.00000000000E+00  0.00000000000E+00  0.17401008147E+04  0.17401008147E+04  0.00000000000E+00 0.  1.
          2   -1    0    0  501    0  0.00000000000E+00 -0.00000000000E+00 -0.17307155311E+04  0.17307155311E+04  0.00000000000E+00 0. -1.
         23    2    1    2    0    0  0.52288395181E+03  0.93008373243E+03 -0.13624270204E+04  0.17329059990E+04  0.91062829342E+02 0.  0.
         13    1    3    3    0    0  0.37744456534E+03  0.72336287980E+03 -0.10858761276E+04  0.13582507943E+04  0.00000000000E+00 0. -1.
        -13    1    3    3    0    0  0.14543938646E+03  0.20672085264E+03 -0.27655089281E+03  0.37465520464E+03  0.00000000000E+00 0.  1.
         22    1    1    2    0    0 -0.52288395181E+03 -0.93008373243E+03  0.13718123040E+04  0.17379103469E+04  0.00000000000E+00 0.  1.
<mgrwt>
<rscale>  0 0.34708037E+04</rscale>
<asrwt>0</asrwt>
<pdfrwt beam="1">  1        2 0.26626393E+00 0.34708037E+04</pdfrwt>
<pdfrwt beam="2">  1       -2 0.26770782E+00 0.34708037E+04</pdfrwt>
<totfact> 0.38873652E-01</totfact>
</mgrwt>
</event>
<event>
 6    1  0.9562506E-007  0.2231528E+04  0.7818608E-02  0.8505419E-01
          1   -1    0    0  501    0  0.00000000000E+00  0.00000000000E+00  0.86228054464E+03  0.86228054464E+03  0.00000000000E+00 0. -1.
         -1   -1    0    0    0  501 -0.00000000000E+00 -0.00000000000E+00 -0.14437634358E+04  0.14437634358E+04  0.00000000000E+00 0.  1.
         23    2    1    2    0    0  0.34280720848E+03 -0.28334934021E+03 -0.13465896915E+04  0.14210625983E+04  0.91167320857E+02 0.  0.
         13    1    3    3    0    0  0.27938290212E+03 -0.26067590384E+03 -0.12076184092E+04  0.12666289730E+04  0.00000000000E+00 0. -1.
        -13    1    3    3    0    0  0.63424306358E+02 -0.22673436365E+02 -0.13897128226E+03  0.15443362538E+03  0.00000000000E+00 0.  1.
         22    1    1    2    0    0 -0.34280720848E+03  0.28334934021E+03  0.76510680032E+03  0.88498138211E+03  0.00000000000E+00 0. -1.
<mgrwt>
<rscale>  0 0.22315278E+04</rscale>
<asrwt>0</asrwt>
<pdfrwt beam="1">  1        1 0.13265855E+00 0.22315278E+04</pdfrwt>
<pdfrwt beam="2">  1       -1 0.22211745E+00 0.22315278E+04</pdfrwt>
<totfact> 0.18938452E+00</totfact>
</mgrwt>
</event>
<event>
 6    1  0.9562506E-007  0.2408391E+04  0.7818608E-02  0.8436369E-01
          1   -1    0    0  501    0  0.00000000000E+00  0.00000000000E+00  0.35554300290E+04  0.35554300290E+04  0.00000000000E+00 0. -1.
         -1   -1    0    0    0  501 -0.00000000000E+00 -0.00000000000E+00 -0.40785137614E+03  0.40785137614E+03  0.00000000000E+00 0.  1.
         23    2    1    2    0    0  0.65651298867E+03  0.97243476691E+03  0.20093849685E+04  0.23286182767E+04  0.90534231590E+02 0.  0.
         13    1    3    3    0    0  0.44104235794E+03  0.68762735258E+03  0.13231723909E+04  0.15550353415E+04  0.00000000000E+00 0.  1.
        -13    1    3    3    0    0  0.21547063073E+03  0.28480741432E+03  0.68621257762E+03  0.77358293520E+03  0.00000000000E+00 0. -1.
         22    1    1    2    0    0 -0.65651298867E+03 -0.97243476691E+03  0.11381936844E+04  0.16346631284E+04  0.00000000000E+00 0.  1.
<mgrwt>
<rscale>  0 0.24083912E+04</rscale>
<asrwt>0</asrwt>
<pdfrwt beam="1">  1        1 0.54698922E+00 0.24083912E+04</pdfrwt>
<pdfrwt beam="2">  1       -1 0.62746368E-01 0.24083912E+04</pdfrwt>
<totfact> 0.52181886E-01</totfact>
</mgrwt>
</event>
<event>
 6    1  0.9562506E-007  0.8027915E+03  0.7818608E-02  0.9555985E-01
          2   -1    0    0  501    0  0.00000000000E+00  0.00000000000E+00  0.94961437045E+03  0.94961437045E+03  0.00000000000E+00 0. -1.
         -2   -1    0    0    0  501 -0.00000000000E+00 -0.00000000000E+00 -0.16966736012E+03  0.16966736012E+03  0.00000000000E+00 0.  1.
         23    2    1    2    0    0  0.24249035242E+03 -0.28917388110E+03  0.56440130918E+03  0.68467494990E+03  0.88362009331E+02 0.  0.
         11    1    3    3    0    0  0.13138329041E+03 -0.10610267696E+03  0.19756844609E+03  0.25990890317E+03  0.00000000000E+00 0.  1.
        -11    1    3    3    0    0  0.11110706201E+03 -0.18307120415E+03  0.36683286308E+03  0.42476604673E+03  0.00000000000E+00 0. -1.
         22    1    1    2    0    0 -0.24249035242E+03  0.28917388110E+03  0.21554570115E+03  0.43460678068E+03  0.00000000000E+00 0. -1.
<mgrwt>
<rscale>  0 0.80279154E+03</rscale>
<asrwt>0</asrwt>
<pdfrwt beam="1">  1        2 0.14609452E+00 0.80279154E+03</pdfrwt>
<pdfrwt beam="2">  1       -2 0.26102671E-01 0.80279154E+03</pdfrwt>
<totfact> 0.36161125E+02</totfact>
</mgrwt>
</event>
<event>
 6    1  0.9562506E-007  0.1910745E+04  0.7818608E-02  0.8649526E-01
         -1   -1    0    0    0  501 -0.00000000000E+00  0.00000000000E+00  0.51768847739E+03  0.51768847739E+03  0.00000000000E+00 0.  1.
          1   -1    0    0  501    0  0.00000000000E+00 -0.00000000000E+00 -0.17630995435E+04  0.17630995435E+04  0.00000000000E+00 0. -1.
         23    2    1    2    0    0 -0.82227815148E+03 -0.44858643304E+03 -0.41300789371E+03  0.10276853963E+04  0.90501973487E+02 0.  0.
         13    1    3    3    0    0 -0.37835145258E+03 -0.15539997124E+03 -0.17654291898E+03  0.44549565090E+03  0.00000000000E+00 0.  1.
        -13    1    3    3    0    0 -0.44392669891E+03 -0.29318646181E+03 -0.23646497473E+03  0.58218974541E+03  0.00000000000E+00 0. -1.
         22    1    1    2    0    0  0.82227815148E+03  0.44858643304E+03 -0.83240317239E+03  0.12531026246E+04  0.00000000000E+00 0. -1.
<mgrwt>
<rscale>  0 0.19107447E+04</rscale>
<asrwt>0</asrwt>
<pdfrwt beam="1">  1        1 0.27124608E+00 0.19107447E+04</pdfrwt>
<pdfrwt beam="2">  1       -1 0.79644382E-01 0.19107447E+04</pdfrwt>
<totfact> 0.63535148E+00</totfact>
</mgrwt>
</event>
<event>
 6    1  0.9562506E-007  0.6266249E+04  0.7818608E-02  0.7658239E-01
         -2   -1    0    0    0  501 -0.00000000000E+00  0.00000000000E+00  0.33694432665E+04  0.33694432665E+04  0.00000000000E+00 0.  1.
          2   -1    0    0  501    0  0.00000000000E+00 -0.00000000000E+00 -0.29133806124E+04  0.29133806124E+04  0.00000000000E+00 0. -1.
         23    2    1    2    0    0 -0.19971427186E+04 -0.14412880453E+04 -0.17125473144E+04  0.30012450725E+04  0.93613104002E+02 0.  0.
         11    1    3    3    0    0 -0.13253221574E+04 -0.90895242258E+03 -0.11441022537E+04  0.19727248400E+04  0.00000000000E+00 0. -1.
        -11    1    3    3    0    0 -0.67182056118E+03 -0.53233562269E+03 -0.56844506072E+03  0.10285202325E+04  0.00000000000E+00 0.  1.
         22    1    1    2    0    0  0.19971427186E+04  0.14412880453E+04  0.21686099684E+04  0.32815788065E+04  0.00000000000E+00 0.  1.
<mgrwt>
<rscale>  0 0.62662495E+04</rscale>
<asrwt>0</asrwt>
<pdfrwt beam="1">  1        2 0.44821240E+00 0.62662495E+04</pdfrwt>
<pdfrwt beam="2">  1       -2 0.51837589E+00 0.62662495E+04</pdfrwt>
<totfact> 0.16854401E-03</totfact>
</mgrwt>
</event>
<event>
 6    1  0.9562506E-007  0.3255570E+04  0.7818608E-02  0.8174294E-01
         -2   -1    0    0    0  501 -0.00000000000E+00  0.00000000000E+00  0.15342523441E+04  0.15342523441E+04  0.00000000000E+00 0.  1.
          2   -1    0    0  501    0  0.00000000000E+00 -0.00000000000E+00 -0.17270191883E+04  0.17270191883E+04  0.00000000000E+00 0. -1.
         23    2    1    2    0    0  0.86172059044E+03  0.81831528950E+03 -0.12100073415E+04  0.16969887836E+04  0.58744160160E+02 0.  0.
         11    1    3    3    0    0  0.41084108273E+03  0.37088994787E+03 -0.52674973977E+03  0.76407789984E+03  0.00000000000E+00 0.  1.
        -11    1    3    3    0    0  0.45087950771E+03  0.44742534163E+03 -0.68325760169E+03  0.93291088378E+03  0.00000000000E+00 0. -1.
         22    1    1    2    0    0 -0.86172059044E+03 -0.81831528950E+03  0.10172404973E+04  0.15642827488E+04  0.00000000000E+00 0.  1.
<mgrwt>
<rscale>  0 0.32555695E+04</rscale>
<asrwt>0</asrwt>
<pdfrwt beam="1">  1        2 0.26569526E+00 0.32555695E+04</pdfrwt>
<pdfrwt beam="2">  1       -2 0.23603882E+00 0.32555695E+04</pdfrwt>
<totfact> 0.62252412E-01</totfact>
</mgrwt>
</event>
<event>
 6    1  0.9562506E-007  0.2056199E+04  0.7818608E-02  0.8580787E-01
          2   -1    0    0  501    0  0.00000000000E+00  0.00000000000E+00  0.15059114619E+04  0.15059114619E+04  0.00000000000E+00 0. -1.
         -2   -1    0    0    0  501 -0.00000000000E+00 -0.00000000000E+00 -0.70189310364E+03  0.70189310364E+03  0.00000000000E+00 0.  1.
         23    2    1    2    0    0  0.10004310715E+04 -0.19724607980E+03  0.28043216658E+03  0.10615450640E+04  0.92018356228E+02 0.  0.
         11    1    3    3    0    0  0.39788008216E+03 -0.11462283028E+03  0.84702697981E+02  0.42263636858E+03  0.00000000000E+00 0.  1.
        -11    1    3    3    0    0  0.60255098937E+03 -0.82623249517E+02  0.19572946860E+03  0.63890869538E+03  0.00000000000E+00 0. -1.
         22    1    1    2    0    0 -0.10004310715E+04  0.19724607980E+03  0.52358619172E+03  0.11462595016E+04  0.00000000000E+00 0.  1.
<mgrwt>
<rscale>  0 0.20561993E+04</rscale>
<asrwt>0</asrwt>
<pdfrwt beam="1">  1        2 0.23167869E+00 0.20561993E+04</pdfrwt>
<pdfrwt beam="2">  1       -2 0.10798355E+00 0.20561993E+04</pdfrwt>
<totfact> 0.80056693E+00</totfact>
</mgrwt>
</event>
<event>
 6    1  0.9562506E-007  0.1308603E+04  0.7818608E-02  0.9022770E-01
         -2   -1    0    0    0  501 -0.00000000000E+00  0.00000000000E+00  0.83075327627E+03  0.83075327627E+03  0.00000000000E+00 0.  1.
          2   -1    0    0  501    0  0.00000000000E+00 -0.00000000000E+00 -0.51532833118E+03  0.51532833118E+03  0.00000000000E+00 0. -1.
         23    2    1    2    0    0  0.57323098394E+03 -0.19539564785E+03  0.40353408667E+03  0.73408778316E+03  0.96290675205E+02 0.  0.
         11    1    3    3    0    0  0.52886257419E+03 -0.20596381131E+03  0.37622759496E+03  0.68092871665E+03  0.00000000000E+00 0.  1.
        -11    1    3    3    0    0  0.44368409741E+02  0.10568163462E+02  0.27306491712E+02  0.53159066504E+02  0.00000000000E+00 0. -1.
         22    1    1    2    0    0 -0.57323098394E+03  0.19539564785E+03 -0.88109141577E+02  0.61199382429E+03  0.00000000000E+00 0.  1.
<mgrwt>
<rscale>  0 0.13086034E+04</rscale>
<asrwt>0</asrwt>
<pdfrwt beam="1">  1        2 0.79281282E-01 0.13086034E+04</pdfrwt>
<pdfrwt beam="2">  1       -2 0.12780820E+00 0.13086034E+04</pdfrwt>
<totfact> 0.26389802E+01</totfact>
</mgrwt>
</event>
<event>
 6    1  0.9562506E-007  0.3006600E+04  0.7818608E-02  0.8241849E-01
          1   -1    0    0  501    0  0.00000000000E+00  0.00000000000E+00  0.23338357004E+04  0.23338357004E+04  0.00000000000E+00 0. -1.
         -1   -1    0    0    0  501 -0.00000000000E+00 -0.00000000000E+00 -0.96832491553E+03  0.96832491553E+03  0.00000000000E+00 0.  1.
         23    2    1    2    0    0 -0.80689878817E+03  0.29521945835E+02  0.20743004084E+04  0.22277584891E+04  0.90711090178E+02 0.  0.
         13    1    3    3    0    0 -0.45430972845E+03  0.14425062795E+02  0.12892959890E+04  0.13670733554E+04  0.00000000000E+00 0.  1.
        -13    1    3    3    0    0 -0.35258905971E+03  0.15096883040E+02  0.78500441946E+03  0.86068513376E+03  0.00000000000E+00 0. -1.
         22    1    1    2    0    0  0.80689878817E+03 -0.29521945835E+02 -0.70878962354E+03  0.10744021268E+04  0.00000000000E+00 0.  1.
<mgrwt>
<rscale>  0 0.30066002E+04</rscale>
<asrwt>0</asrwt>
<pdfrwt beam="1">  1        1 0.35905165E+00 0.30066002E+04</pdfrwt>
<pdfrwt beam="2">  1       -1 0.14897306E+00 0.30066002E+04</pdfrwt>
<totfact> 0.53323251E-01</totfact>
</mgrwt>
</event>
<event>
 6    1  0.9562506E-007  0.5291988E+04  0.7818608E-02  0.7784979E-01
          1   -1    0    0  501    0  0.00000000000E+00  0.00000000000E+00  0.37101126144E+04  0.37101126144E+04  0.00000000000E+00 0. -1.
         -1   -1    0    0    0  501 -0.00000000000E+00 -0.00000000000E+00 -0.18870815578E+04  0.18870815578E+04  0.00000000000E+00 0.  1.
         23    2    1    2    0    0  0.14086911037E+04 -0.10597497588E+04  0.29977670507E+04  0.34788257357E+04  0.90227668074E+02 0.  0.
         13    1    3    3    0    0  0.75690493971E+03 -0.51641510558E+03  0.15868328323E+04  0.18323831714E+04  0.00000000000E+00 0.  1.
        -13    1    3    3    0    0  0.65178616397E+03 -0.54333465325E+03  0.14109342184E+04  0.16464425643E+04  0.00000000000E+00 0. -1.
         22    1    1    2    0    0 -0.14086911037E+04  0.10597497588E+04 -0.11747359942E+04  0.21183684365E+04  0.00000000000E+00 0.  1.
<mgrwt>
<rscale>  0 0.52919883E+04</rscale>
<asrwt>0</asrwt>
<pdfrwt beam="1">  1        1 0.57078655E+00 0.52919883E+04</pdfrwt>
<pdfrwt beam="2">  1       -1 0.29032024E+00 0.52919883E+04</pdfrwt>
<totfact> 0.45481847E-03</totfact>
</mgrwt>
</event>
<event>
 6    1  0.9562506E-007  0.2692763E+04  0.7818608E-02  0.8337357E-01
          1   -1    0    0  501    0  0.00000000000E+00  0.00000000000E+00  0.22053872718E+04  0.22053872718E+04  0.00000000000E+00 0. -1.
         -1   -1    0    0    0  501 -0.00000000000E+00 -0.00000000000E+00 -0.82196131382E+03  0.82196131382E+03  0.00000000000E+00 0.  1.
         23    2    1    2    0    0 -0.84615280571E+03  0.63184406607E+03  0.16286594165E+04  0.19432171620E+04  0.91432759585E+02 0.  0.
         13    1    3    3    0    0 -0.41545015352E+03  0.25811172021E+03  0.78552838471E+03  0.92535146477E+03  0.00000000000E+00 0. -1.
        -13    1    3    3    0    0 -0.43070265219E+03  0.37373234586E+03  0.84313103178E+03  0.10178656973E+04  0.00000000000E+00 0.  1.
         22    1    1    2    0    0  0.84615280571E+03 -0.63184406607E+03 -0.24523345849E+03  0.10841314236E+04  0.00000000000E+00 0.  1.
<mgrwt>
<rscale>  0 0.26927629E+04</rscale>
<asrwt>0</asrwt>
<pdfrwt beam="1">  1        1 0.33929035E+00 0.26927629E+04</pdfrwt>
<pdfrwt beam="2">  1       -1 0.12645559E+00 0.26927629E+04</pdfrwt>
<totfact> 0.10258235E+00</totfact>
</mgrwt>
</event>
<event>
 6    1  0.9562506E-007  0.1267240E+04  0.7818608E-02  0.9055956E-01
          2   -1    0    0  501    0  0.00000000000E+00  0.00000000000E+00  0.82183742627E+03  0.82183742627E+03  0.00000000000E+00 0. -1.
         -2   -1    0    0    0  501 -0.00000000000E+00 -0.00000000000E+00 -0.48850793982E+03  0.48850793982E+03  0.00000000000E+00 0.  1.
         23    2    1    2    0    0  0.13221493579E+03  0.39451607152E+03  0.65716506557E+03  0.78309475942E+03  0.90817172927E+02 0.  0.
         13    1    3    3    0    0  0.14605725175E+03  0.35545101312E+03  0.58699030940E+03  0.70159515880E+03  0.00000000000E+00 0.  1.
        -13    1    3    3    0    0 -0.13842315961E+02  0.39065058397E+02  0.70174756170E+02  0.81499600627E+02  0.00000000000E+00 0. -1.
         22    1    1    2    0    0 -0.13221493579E+03 -0.39451607152E+03 -0.32383557911E+03  0.52725060667E+03  0.00000000000E+00 0.  1.
<mgrwt>
<rscale>  0 0.12672397E+04</rscale>
<asrwt>0</asrwt>
<pdfrwt beam="1">  1        2 0.12643653E+00 0.12672397E+04</pdfrwt>
<pdfrwt beam="2">  1       -2 0.75155068E-01 0.12672397E+04</pdfrwt>
<totfact> 0.51901066E+01</totfact>
</mgrwt>
</event>
<event>
 6    1  0.9562506E-007  0.5431404E+04  0.7818608E-02  0.7765199E-01
          1   -1    0    0  501    0  0.00000000000E+00  0.00000000000E+00  0.43718935845E+04  0.43718935845E+04  0.00000000000E+00 0. -1.
         -1   -1    0    0    0  501 -0.00000000000E+00 -0.00000000000E+00 -0.16869204784E+04  0.16869204784E+04  0.00000000000E+00 0.  1.
         23    2    1    2    0    0  0.39165260516E+03  0.14814606880E+04  0.38429131879E+04  0.41381519983E+04  0.90568527776E+02 0.  0.
         13    1    3    3    0    0  0.15958585692E+03  0.70586717373E+03  0.17145976712E+04  0.18610645574E+04  0.00000000000E+00 0. -1.
        -13    1    3    3    0    0  0.23206674824E+03  0.77559351430E+03  0.21283155167E+04  0.22770874410E+04  0.00000000000E+00 0.  1.
         22    1    1    2    0    0 -0.39165260516E+03 -0.14814606880E+04 -0.11579400818E+04  0.19206620646E+04  0.00000000000E+00 0.  1.
<mgrwt>
<rscale>  0 0.54314038E+04</rscale>
<asrwt>0</asrwt>
<pdfrwt beam="1">  1        1 0.67259901E+00 0.54314038E+04</pdfrwt>
<pdfrwt beam="2">  1       -1 0.25952623E+00 0.54314038E+04</pdfrwt>
<totfact> 0.18149457E-03</totfact>
</mgrwt>
</event>
<event>
 6    1  0.9562506E-007  0.2282860E+04  0.7818608E-02  0.8484710E-01
         -1   -1    0    0    0  501 -0.00000000000E+00  0.00000000000E+00  0.42306872379E+03  0.42306872379E+03  0.00000000000E+00 0.  1.
          1   -1    0    0  501    0  0.00000000000E+00 -0.00000000000E+00 -0.30795534797E+04  0.30795534797E+04  0.00000000000E+00 0. -1.
         23    2    1    2    0    0  0.50783644004E+03 -0.98005888568E+03 -0.17650623314E+04  0.20838032552E+04  0.91529793993E+02 0.  0.
         13    1    3    3    0    0  0.41334123400E+03 -0.84073317389E+03 -0.15430077770E+04  0.18051471534E+04  0.00000000000E+00 0. -1.
        -13    1    3    3    0    0  0.94495206041E+02 -0.13932571179E+03 -0.22205455437E+03  0.27865610176E+03  0.00000000000E+00 0.  1.
         22    1    1    2    0    0 -0.50783644004E+03  0.98005888568E+03 -0.89142242450E+03  0.14188189483E+04  0.00000000000E+00 0.  1.
<mgrwt>
<rscale>  0 0.22828603E+04</rscale>
<asrwt>0</asrwt>
<pdfrwt beam="1">  1        1 0.47377745E+00 0.22828603E+04</pdfrwt>
<pdfrwt beam="2">  1       -1 0.65087497E-01 0.22828603E+04</pdfrwt>
<totfact> 0.11328847E+00</totfact>
</mgrwt>
</event>
<event>
 6    1  0.9562506E-007  0.5573650E+04  0.7818608E-02  0.7745635E-01
         -2   -1    0    0    0  501 -0.00000000000E+00  0.00000000000E+00  0.25013019271E+04  0.25013019271E+04  0.00000000000E+00 0.  1.
          2   -1    0    0  501    0  0.00000000000E+00 -0.00000000000E+00 -0.31049401912E+04  0.31049401912E+04  0.00000000000E+00 0. -1.
         23    2    1    2    0    0  0.12580739933E+04  0.24784354036E+04 -0.10891917121E+03  0.27830986216E+04  0.91555059416E+02 0.  0.
         11    1    3    3    0    0  0.30801158086E+03  0.56155242944E+03  0.75774859927E+01  0.64052297636E+03  0.00000000000E+00 0.  1.
        -11    1    3    3    0    0  0.95006241249E+03  0.19168829742E+04 -0.11649665721E+03  0.21425756452E+04  0.00000000000E+00 0. -1.
         22    1    1    2    0    0 -0.12580739933E+04 -0.24784354036E+04 -0.49471909288E+03  0.28231434968E+04  0.00000000000E+00 0. -1.
<mgrwt>
<rscale>  0 0.55736497E+04</rscale>
<asrwt>0</asrwt>
<pdfrwt beam="1">  1        2 0.47768310E+00 0.55736497E+04</pdfrwt>
<pdfrwt beam="2">  1       -2 0.38481568E+00 0.55736497E+04</pdfrwt>
<totfact> 0.96863370E-03</totfact>
</mgrwt>
</event>
<event>
 6    1  0.9562506E-007  0.5709456E+03  0.7818608E-02  0.9967588E-01
         -4   -1    0    0    0  501 -0.00000000000E+00  0.00000000000E+00  0.14465212466E+03  0.14465212466E+03  0.00000000000E+00 0.  1.
          4   -1    0    0  501    0  0.00000000000E+00 -0.00000000000E+00 -0.56338418373E+03  0.56338418373E+03  0.00000000000E+00 0. -1.
         23    2    1    2    0    0  0.96205486924E+02  0.57486998961E+02  0.10157048957E+03  0.17580046510E+03  0.89604622718E+02 0.  0.
         11    1    3    3    0    0  0.31888238851E+02  0.52105188719E+02  0.72585075125E+01  0.61518260702E+02  0.00000000000E+00 0. -1.
        -11    1    3    3    0    0  0.64317248073E+02  0.53818102413E+01  0.94311982061E+02  0.11428220440E+03  0.00000000000E+00 0.  1.
         22    1    1    2    0    0 -0.96205486924E+02 -0.57486998961E+02 -0.52030254864E+03  0.53223584329E+03  0.00000000000E+00 0. -1.
<mgrwt>
<rscale>  0 0.57094560E+03</rscale>
<asrwt>0</asrwt>
<pdfrwt beam="1">  1        4 0.86674489E-01 0.57094560E+03</pdfrwt>
<pdfrwt beam="2">  1       -4 0.22254173E-01 0.57094560E+03</pdfrwt>
<totfact> 0.43080855E+01</totfact>
</mgrwt>
</event>
<event>
 6    1  0.9562506E-007  0.3496884E+04  0.7818608E-02  0.8114529E-01
          2   -1    0    0  501    0  0.00000000000E+00  0.00000000000E+00  0.35911717529E+04  0.35911717529E+04  0.00000000000E+00 0. -1.
         -2   -1    0    0    0  501 -0.00000000000E+00 -0.00000000000E+00 -0.85126811609E+03  0.85126811609E+03  0.00000000000E+00 0.  1.
         23    2    1    2    0    0 -0.69812673861E+03  0.15219746827E+04  0.73679961338E+03  0.18316519407E+04  0.91034519431E+02 0.  0.
         11    1    3    3    0    0 -0.41978504971E+03  0.10141659631E+04  0.46807671937E+03  0.11932509811E+04  0.00000000000E+00 0. -1.
        -11    1    3    3    0    0 -0.27834168890E+03  0.50780871954E+03  0.26872289400E+03  0.63840095957E+03  0.00000000000E+00 0.  1.
         22    1    1    2    0    0  0.69812673861E+03 -0.15219746827E+04  0.20031040234E+04  0.26107879283E+04  0.00000000000E+00 0. -1.
<mgrwt>
<rscale>  0 0.34968843E+04</rscale>
<asrwt>0</asrwt>
<pdfrwt beam="1">  1        2 0.55248796E+00 0.34968843E+04</pdfrwt>
<pdfrwt beam="2">  1       -2 0.13096433E+00 0.34968843E+04</pdfrwt>
<totfact> 0.24498642E-01</totfact>
</mgrwt>
</event>
<event>
 6    1  0.9562506E-007  0.2920560E+04  0.7818608E-02  0.8266787E-01
          2   -1    0    0  501    0  0.00000000000E+00  0.00000000000E+00  0.35865860652E+04  0.35865860652E+04  0.00000000000E+00 0. -1.
         -2   -1    0    0    0  501 -0.00000000000E+00 -0.00000000000E+00 -0.59455351171E+03  0.59455351171E+03  0.00000000000E+00 0.  1.
         23    2    1    2    0    0 -0.10733783269E+04 -0.77216068204E+03  0.23796698480E+04  0.27239638035E+04  0.93685996482E+02 0.  0.
         11    1    3    3    0    0 -0.52473253358E+03 -0.43394406889E+03  0.12028408036E+04  0.13822003058E+04  0.00000000000E+00 0. -1.
        -11    1    3    3    0    0 -0.54864579332E+03 -0.33821661314E+03  0.11768290444E+04  0.13417634977E+04  0.00000000000E+00 0.  1.
         22    1    1    2    0    0  0.10733783269E+04  0.77216068204E+03  0.61236270555E+03  0.14571757734E+04  0.00000000000E+00 0.  1.
<mgrwt>
<rscale>  0 0.29205598E+04</rscale>
<asrwt>0</asrwt>
<pdfrwt beam="1">  1        2 0.55178246E+00 0.29205598E+04</pdfrwt>
<pdfrwt beam="2">  1       -2 0.91469773E-01 0.29205598E+04</pdfrwt>
<totfact> 0.61877146E-01</totfact>
</mgrwt>
</event>
<event>
 6    1  0.9562506E-007  0.3301258E+04  0.7818608E-02  0.8162575E-01
          1   -1    0    0  501    0  0.00000000000E+00  0.00000000000E+00  0.14797093259E+04  0.14797093259E+04  0.00000000000E+00 0. -1.
         -1   -1    0    0    0  501 -0.00000000000E+00 -0.00000000000E+00 -0.18412909753E+04  0.18412909753E+04  0.00000000000E+00 0.  1.
         23    2    1    2    0    0 -0.50018969442E+03  0.30828799700E+03  0.13695425954E+04  0.14928804007E+04  0.88395422732E+02 0.  0.
         13    1    3    3    0    0 -0.45024222070E+03  0.30334903761E+03  0.12767813743E+04  0.13874110327E+04  0.00000000000E+00 0. -1.
        -13    1    3    3    0    0 -0.49947473711E+02  0.49389593837E+01  0.92761221159E+02  0.10546936807E+03  0.00000000000E+00 0.  1.
         22    1    1    2    0    0  0.50018969442E+03 -0.30828799700E+03 -0.17311242448E+04  0.18281199005E+04  0.00000000000E+00 0.  1.
<mgrwt>
<rscale>  0 0.33012576E+04</rscale>
<asrwt>0</asrwt>
<pdfrwt beam="1">  1        1 0.22764759E+00 0.33012576E+04</pdfrwt>
<pdfrwt beam="2">  1       -1 0.28327553E+00 0.33012576E+04</pdfrwt>
<totfact> 0.23757881E-01</totfact>
</mgrwt>
</event>
<event>
 6    1  0.9562506E-007  0.1068246E+04  0.7818608E-02  0.9236707E-01
         -1   -1    0    0    0  501 -0.00000000000E+00  0.00000000000E+00  0.31486302362E+03  0.31486302362E+03  0.00000000000E+00 0.  1.
          1   -1    0    0  501    0  0.00000000000E+00 -0.00000000000E+00 -0.90606776170E+03  0.90606776170E+03  0.00000000000E+00 0. -1.
         23    2    1    2    0    0 -0.39163638102E+03 -0.26172964512E+03 -0.57607676410E+03  0.74964497218E+03  0.90673502825E+02 0.  0.
         13    1    3    3    0    0 -0.29411121655E+03 -0.23697096652E+03 -0.43080918346E+03  0.57293385240E+03  0.00000000000E+00 0.  1.
        -13    1    3    3    0    0 -0.97525164466E+02 -0.24758678603E+02 -0.14526758063E+03  0.17671111978E+03  0.00000000000E+00 0. -1.
         22    1    1    2    0    0  0.39163638102E+03  0.26172964512E+03 -0.15127973989E+02  0.47128581314E+03  0.00000000000E+00 0.  1.
<mgrwt>
<rscale>  0 0.10682457E+04</rscale>
<asrwt>0</asrwt>
<pdfrwt beam="1">  1        1 0.13939504E+00 0.10682457E+04</pdfrwt>
<pdfrwt beam="2">  1       -1 0.48440466E-01 0.10682457E+04</pdfrwt>
<totfact> 0.76542875E+01</totfact>
</mgrwt>
</event>
<event>
 6    1  0.9562506E-007  0.1265157E+04  0.7818608E-02  0.9057661E-01
         -2   -1    0    0    0  501 -0.00000000000E+00  0.00000000000E+00  0.31556047722E+03  0.31556047722E+03  0.00000000000E+00 0.  1.
          2   -1    0    0  501    0  0.00000000000E+00 -0.00000000000E+00 -0.12680793519E+04  0.12680793519E+04  0.00000000000E+00 0. -1.
         23    2    1    2    0    0  0.30434269002E+03  0.48802982875E+03 -0.79830763531E+03  0.98817472259E+03  0.91633045619E+02 0.  0.
         13    1    3    3    0    0  0.24312386149E+03  0.30969676822E+03 -0.54944407453E+03  0.67595124921E+03  0.00000000000E+00 0.  1.
        -13    1    3    3    0    0  0.61218828534E+02  0.17833306053E+03 -0.24886356079E+03  0.31222347339E+03  0.00000000000E+00 0. -1.
         22    1    1    2    0    0 -0.30434269002E+03 -0.48802982875E+03 -0.15421123934E+03  0.59546510650E+03  0.00000000000E+00 0.  1.
<mgrwt>
<rscale>  0 0.12651573E+04</rscale>
<asrwt>0</asrwt>
<pdfrwt beam="1">  1        2 0.19508913E+00 0.12651573E+04</pdfrwt>
<pdfrwt beam="2">  1       -2 0.48547767E-01 0.12651573E+04</pdfrwt>
<totfact> 0.68119017E+01</totfact>
</mgrwt>
</event>
<event>
 6    1  0.9562506E-007  0.2423772E+04  0.7818608E-02  0.8430657E-01
         -2   -1    0    0    0  501 -0.00000000000E+00  0.00000000000E+00  0.91406136855E+03  0.91406136855E+03  0.00000000000E+00 0.  1.
          2   -1    0    0  501    0  0.00000000000E+00 -0.00000000000E+00 -0.16067497475E+04  0.16067497475E+04  0.00000000000E+00 0. -1.
         23    2    1    2    0    0  0.43004128659E+03  0.46137994637E+03  0.72727026957E+03  0.96707705688E+03  0.92244381254E+02 0.  0.
         11    1    3    3    0    0  0.20714294602E+03  0.15581028316E+03  0.29524915613E+03  0.39288307245E+03  0.00000000000E+00 0. -1.
        -11    1    3    3    0    0  0.22289834057E+03  0.30556966320E+03  0.43202111344E+03  0.57419398443E+03  0.00000000000E+00 0.  1.
         22    1    1    2    0    0 -0.43004128659E+03 -0.46137994637E+03 -0.14199586485E+04  0.15537340591E+04  0.00000000000E+00 0. -1.
<mgrwt>
<rscale>  0 0.24237722E+04</rscale>
<asrwt>0</asrwt>
<pdfrwt beam="1">  1        2 0.24719227E+00 0.24237722E+04</pdfrwt>
<pdfrwt beam="2">  1       -2 0.14062483E+00 0.24237722E+04</pdfrwt>
<totfact> 0.35230826E+00</totfact>
</mgrwt>
</event>
<event>
 6    1  0.9562506E-007  0.3456565E+04  0.7818608E-02  0.8124161E-01
         -1   -1    0    0    0  501 -0.00000000000E+00  0.00000000000E+00  0.11212571956E+04  0.11212571956E+04  0.00000000000E+00 0.  1.
          1   -1    0    0  501    0  0.00000000000E+00 -0.00000000000E+00 -0.26639387275E+04  0.26639387275E+04  0.00000000000E+00 0. -1.
         23    2    1    2    0    0 -0.10338825940E+04 -0.13379596315E+04 -0.38665797885E+03  0.17369186837E+04  0.91284870085E+02 0.  0.
         11    1    3    3    0    0 -0.36385393213E+03 -0.40469868732E+03 -0.11054368609E+03  0.55532928788E+03  0.00000000000E+00 0. -1.
        -11    1    3    3    0    0 -0.67002866185E+03 -0.93326094422E+03 -0.27611429276E+03  0.11815893958E+04  0.00000000000E+00 0.  1.
         22    1    1    2    0    0  0.10338825940E+04  0.13379596315E+04 -0.11560235531E+04  0.20482772393E+04  0.00000000000E+00 0. -1.
<mgrwt>
<rscale>  0 0.34565650E+04</rscale>
<asrwt>0</asrwt>
<pdfrwt beam="1">  1        1 0.40983672E+00 0.34565650E+04</pdfrwt>
<pdfrwt beam="2">  1       -1 0.17250111E+00 0.34565650E+04</pdfrwt>
<totfact> 0.20090968E-01</totfact>
</mgrwt>
</event>
<event>
 6    1  0.9562506E-007  0.2875267E+04  0.7818608E-02  0.8280274E-01
          1   -1    0    0  501    0  0.00000000000E+00  0.00000000000E+00  0.13531211708E+04  0.13531211708E+04  0.00000000000E+00 0. -1.
         -1   -1    0    0    0  501 -0.00000000000E+00 -0.00000000000E+00 -0.15274245480E+04  0.15274245480E+04  0.00000000000E+00 0.  1.
         23    2    1    2    0    0  0.12779712693E+04 -0.62460767936E+03  0.11096838129E+03  0.14297785789E+04  0.92776531591E+02 0.  0.
         11    1    3    3    0    0  0.35567934276E+03 -0.13383452424E+03  0.97979453866E+01  0.38015190974E+03  0.00000000000E+00 0. -1.
        -11    1    3    3    0    0  0.92229192649E+03 -0.49077315512E+03  0.10117043590E+03  0.10496266691E+04  0.00000000000E+00 0.  1.
         22    1    1    2    0    0 -0.12779712693E+04  0.62460767936E+03 -0.28527175852E+03  0.14507671400E+04  0.00000000000E+00 0. -1.
<mgrwt>
<rscale>  0 0.28752673E+04</rscale>
<asrwt>0</asrwt>
<pdfrwt beam="1">  1        1 0.20817249E+00 0.28752673E+04</pdfrwt>
<pdfrwt beam="2">  1       -1 0.23498839E+00 0.28752673E+04</pdfrwt>
<totfact> 0.62389007E-01</totfact>
</mgrwt>
</event>
<event>
 6    1  0.9562506E-007  0.2142411E+04  0.7818608E-02  0.8542788E-01
          2   -1    0    0  501    0  0.00000000000E+00  0.00000000000E+00  0.22256870477E+04  0.22256870477E+04  0.00000000000E+00 0. -1.
         -2   -1    0    0    0  501 -0.00000000000E+00 -0.00000000000E+00 -0.51556274192E+03  0.51556274192E+03  0.00000000000E+00 0.  1.
         23    2    1    2    0    0 -0.11425515912E+03  0.80452163807E+03 -0.32917039605E+02  0.81810069523E+03  0.88858924837E+02 0.  0.
         11    1    3    3    0    0 -0.42267802565E+02  0.28211480443E+03  0.30801468719E+02  0.28692169748E+03  0.00000000000E+00 0.  1.
        -11    1    3    3    0    0 -0.71987356559E+02  0.52240683364E+03 -0.63718508324E+02  0.53117899774E+03  0.00000000000E+00 0. -1.
         22    1    1    2    0    0  0.11425515912E+03 -0.80452163807E+03  0.17430413454E+04  0.19231490944E+04  0.00000000000E+00 0. -1.
<mgrwt>
<rscale>  0 0.21424111E+04</rscale>
<asrwt>0</asrwt>
<pdfrwt beam="1">  1        2 0.34241339E+00 0.21424111E+04</pdfrwt>
<pdfrwt beam="2">  1       -2 0.79317346E-01 0.21424111E+04</pdfrwt>
<totfact> 0.64632437E+00</totfact>
</mgrwt>
</event>
<event>
 6    1  0.9562506E-007  0.3358400E+04  0.7818608E-02  0.8148192E-01
          1   -1    0    0  501    0  0.00000000000E+00  0.00000000000E+00  0.19239114344E+04  0.19239114344E+04  0.00000000000E+00 0. -1.
         -1   -1    0    0    0  501 -0.00000000000E+00 -0.00000000000E+00 -0.14656149980E+04  0.14656149980E+04  0.00000000000E+00 0.  1.
         23    2    1    2    0    0 -0.63605566989E+03  0.15115541831E+04 -0.12998301900E+03  0.16472762835E+04  0.85209773629E+02 0.  0.
         13    1    3    3    0    0 -0.39176905628E+03  0.91138468915E+03 -0.37504541392E+02  0.99272938694E+03  0.00000000000E+00 0.  1.
        -13    1    3    3    0    0 -0.24428661361E+03  0.60016949393E+03 -0.92478477604E+02  0.65454689660E+03  0.00000000000E+00 0. -1.
         22    1    1    2    0    0  0.63605566989E+03 -0.15115541831E+04  0.58827945533E+03  0.17422501488E+04  0.00000000000E+00 0.  1.
<mgrwt>
<rscale>  0 0.33584005E+04</rscale>
<asrwt>0</asrwt>
<pdfrwt beam="1">  1        1 0.29598637E+00 0.33584005E+04</pdfrwt>
<pdfrwt beam="2">  1       -1 0.22547923E+00 0.33584005E+04</pdfrwt>
<totfact> 0.28030265E-01</totfact>
</mgrwt>
</event>
<event>
 6    1  0.9562506E-007  0.3670882E+04  0.7818608E-02  0.8074445E-01
          1   -1    0    0  501    0  0.00000000000E+00  0.00000000000E+00  0.26180863567E+04  0.26180863567E+04  0.00000000000E+00 0. -1.
         -1   -1    0    0    0  501 -0.00000000000E+00 -0.00000000000E+00 -0.12867582979E+04  0.12867582979E+04  0.00000000000E+00 0.  1.
         23    2    1    2    0    0  0.45294718265E+03  0.23054027728E+03  0.25409109039E+04  0.25928230737E+04  0.90516849332E+02 0.  0.
         11    1    3    3    0    0  0.14612063790E+03  0.58952439590E+02  0.99862440118E+03  0.10109784002E+04  0.00000000000E+00 0. -1.
        -11    1    3    3    0    0  0.30682654475E+03  0.17158783769E+03  0.15422865027E+04  0.15818446735E+04  0.00000000000E+00 0.  1.
         22    1    1    2    0    0 -0.45294718265E+03 -0.23054027728E+03 -0.12095828451E+04  0.13120215810E+04  0.00000000000E+00 0.  1.
<mgrwt>
<rscale>  0 0.36708824E+04</rscale>
<asrwt>0</asrwt>
<pdfrwt beam="1">  1        1 0.40278252E+00 0.36708824E+04</pdfrwt>
<pdfrwt beam="2">  1       -1 0.19796282E+00 0.36708824E+04</pdfrwt>
<totfact> 0.14010151E-01</totfact>
</mgrwt>
</event>
<event>
 6    1  0.9562506E-007  0.1121617E+04  0.7818608E-02  0.9184375E-01
         -2   -1    0    0    0  501 -0.00000000000E+00  0.00000000000E+00  0.38923581817E+03  0.38923581817E+03  0.00000000000E+00 0.  1.
          2   -1    0    0  501    0  0.00000000000E+00 -0.00000000000E+00 -0.80800937223E+03  0.80800937223E+03  0.00000000000E+00 0. -1.
         23    2    1    2    0    0  0.39843316209E+03  0.38918895377E+03 -0.22715412650E+03  0.60823327930E+03  0.90175930682E+02 0.  0.
         13    1    3    3    0    0  0.23937135829E+03  0.29111518353E+03 -0.14015396978E+03  0.40210674267E+03  0.00000000000E+00 0.  1.
        -13    1    3    3    0    0  0.15906180380E+03  0.98073770244E+02 -0.87000156719E+02  0.20612653664E+03  0.00000000000E+00 0. -1.
         22    1    1    2    0    0 -0.39843316209E+03 -0.38918895377E+03 -0.19161942756E+03  0.58901191109E+03  0.00000000000E+00 0. -1.
<mgrwt>
<rscale>  0 0.11216170E+04</rscale>
<asrwt>0</asrwt>
<pdfrwt beam="1">  1        2 0.12430913E+00 0.11216170E+04</pdfrwt>
<pdfrwt beam="2">  1       -2 0.59882434E-01 0.11216170E+04</pdfrwt>
<totfact> 0.87685226E+01</totfact>
</mgrwt>
</event>
<event>
 6    1  0.9562506E-007  0.3223558E+04  0.7818608E-02  0.8182623E-01
          2   -1    0    0  501    0  0.00000000000E+00  0.00000000000E+00  0.10194796521E+04  0.10194796521E+04  0.00000000000E+00 0. -1.
         -2   -1    0    0    0  501 -0.00000000000E+00 -0.00000000000E+00 -0.25481941912E+04  0.25481941912E+04  0.00000000000E+00 0.  1.
         23    2    1    2    0    0 -0.11853873702E+04 -0.63922033913E+02  0.43952460521E+03  0.12691537600E+04  0.91324389359E+02 0.  0.
         13    1    3    3    0    0 -0.89186818816E+03 -0.84061103698E+02  0.31355813560E+03  0.94911213173E+03  0.00000000000E+00 0.  1.
        -13    1    3    3    0    0 -0.29351918206E+03  0.20139069785E+02  0.12596646961E+03  0.32004162829E+03  0.00000000000E+00 0. -1.
         22    1    1    2    0    0  0.11853873702E+04  0.63922033913E+02 -0.19682391444E+04  0.22985200833E+04  0.00000000000E+00 0.  1.
<mgrwt>
<rscale>  0 0.32235584E+04</rscale>
<asrwt>0</asrwt>
<pdfrwt beam="1">  1        2 0.15684302E+00 0.32235584E+04</pdfrwt>
<pdfrwt beam="2">  1       -2 0.39202988E+00 0.32235584E+04</pdfrwt>
<totfact> 0.17195853E-01</totfact>
</mgrwt>
</event>
<event>
 6    1  0.9869704E-007  0.3322181E+04  0.7818608E-02  0.8157274E-01
         -2   -1    0    0    0  501 -0.00000000000E+00  0.00000000000E+00  0.14747818761E+04  0.14747818761E+04  0.00000000000E+00 0.  1.
          2   -1    0    0  501    0  0.00000000000E+00 -0.00000000000E+00 -0.18709354608E+04  0.18709354608E+04  0.00000000000E+00 0. -1.
         23    2    1    2    0    0  0.47392461539E+03 -0.73896686753E+03 -0.16169331121E+04  0.18420620484E+04  0.89684607193E+02 0.  0.
         13    1    3    3    0    0  0.88476798734E+02 -0.15457112855E+03 -0.40569198546E+03  0.44306474105E+03  0.00000000000E+00 0. -1.
        -13    1    3    3    0    0  0.38544781665E+03 -0.58439573898E+03 -0.12112411266E+04  0.13989973073E+04  0.00000000000E+00 0.  1.
         22    1    1    2    0    0 -0.47392461539E+03  0.73896686753E+03  0.12207795273E+04  0.15036552885E+04  0.00000000000E+00 0.  1.
<mgrwt>
<rscale>  0 0.33221810E+04</rscale>
<asrwt>0</asrwt>
<pdfrwt beam="1">  1        2 0.28783623E+00 0.33221810E+04</pdfrwt>
<pdfrwt beam="2">  1       -2 0.22688952E+00 0.33221810E+04</pdfrwt>
<totfact> 0.58759506E-01</totfact>
</mgrwt>
</event>
<event>
 6    1  0.9562506E-007  0.2122432E+04  0.7818608E-02  0.8551426E-01
          1   -1    0    0  501    0  0.00000000000E+00  0.00000000000E+00  0.29597211478E+04  0.29597211478E+04  0.00000000000E+00 0. -1.
         -1   -1    0    0    0  501 -0.00000000000E+00 -0.00000000000E+00 -0.38050188469E+03  0.38050188469E+03  0.00000000000E+00 0.  1.
         23    2    1    2    0    0  0.47333366632E+03 -0.94050787101E+03  0.11097655983E+04  0.15324913355E+04  0.91379402590E+02 0.  0.
         13    1    3    3    0    0  0.30203631594E+03 -0.64215113473E+03  0.69045831761E+03  0.99010944059E+03  0.00000000000E+00 0. -1.
        -13    1    3    3    0    0  0.17129735038E+03 -0.29835673628E+03  0.41930728066E+03  0.54238189493E+03  0.00000000000E+00 0.  1.
         22    1    1    2    0    0 -0.47333366632E+03  0.94050787101E+03  0.14694536648E+04  0.18077316970E+04  0.00000000000E+00 0.  1.
<mgrwt>
<rscale>  0 0.21224321E+04</rscale>
<asrwt>0</asrwt>
<pdfrwt beam="1">  1        1 0.45534170E+00 0.21224321E+04</pdfrwt>
<pdfrwt beam="2">  1       -1 0.58538753E-01 0.21224321E+04</pdfrwt>
<totfact> 0.17379464E+00</totfact>
</mgrwt>
</event>
<event>
 6    1  0.9562506E-007  0.2873181E+04  0.7818608E-02  0.8280902E-01
         -2   -1    0    0    0  501 -0.00000000000E+00  0.00000000000E+00  0.89863540836E+03  0.89863540836E+03  0.00000000000E+00 0.  1.
          2   -1    0    0  501    0  0.00000000000E+00 -0.00000000000E+00 -0.22965844468E+04  0.22965844468E+04  0.00000000000E+00 0. -1.
         23    2    1    2    0    0 -0.12407684018E+04  0.67384495429E+03 -0.98182862046E+03  0.17232383839E+04  0.10949812024E+03 0.  0.
         11    1    3    3    0    0 -0.11039582374E+04  0.57688754747E+03 -0.82809964586E+03  0.14957513349E+04  0.00000000000E+00 0. -1.
        -11    1    3    3    0    0 -0.13681016442E+03  0.96957406816E+02 -0.15372897460E+03  0.22748704899E+03  0.00000000000E+00 0.  1.
         22    1    1    2    0    0  0.12407684018E+04 -0.67384495429E+03 -0.41612041796E+03  0.14719814712E+04  0.00000000000E+00 0.  1.
<mgrwt>
<rscale>  0 0.28731809E+04</rscale>
<asrwt>0</asrwt>
<pdfrwt beam="1">  1        2 0.35332068E+00 0.28731809E+04</pdfrwt>
<pdfrwt beam="2">  1       -2 0.13825160E+00 0.28731809E+04</pdfrwt>
<totfact> 0.14614964E+00</totfact>
</mgrwt>
</event>
<event>
 6    1  0.9562506E-007  0.4059755E+04  0.7818608E-02  0.7992599E-01
         -2   -1    0    0    0  501 -0.00000000000E+00  0.00000000000E+00  0.15356442964E+04  0.15356442964E+04  0.00000000000E+00 0.  1.
          2   -1    0    0  501    0  0.00000000000E+00 -0.00000000000E+00 -0.26831752153E+04  0.26831752153E+04  0.00000000000E+00 0. -1.
         23    2    1    2    0    0 -0.69813476899E+03  0.62611813399E+02  0.14043571959E+04  0.15724171716E+04  0.94679633061E+02 0.  0.
         11    1    3    3    0    0 -0.49798670333E+03  0.87813819613E+01  0.93651231369E+03  0.10607182392E+04  0.00000000000E+00 0.  1.
        -11    1    3    3    0    0 -0.20014806566E+03  0.53830431438E+02  0.46784488222E+03  0.51169893234E+03  0.00000000000E+00 0. -1.
         22    1    1    2    0    0  0.69813476899E+03 -0.62611813399E+02 -0.25518881148E+04  0.26464023401E+04  0.00000000000E+00 0. -1.
<mgrwt>
<rscale>  0 0.40597550E+04</rscale>
<asrwt>0</asrwt>
<pdfrwt beam="1">  1        2 0.41279618E+00 0.40597550E+04</pdfrwt>
<pdfrwt beam="2">  1       -2 0.23625297E+00 0.40597550E+04</pdfrwt>
<totfact> 0.16670995E-01</totfact>
</mgrwt>
</event>
<event>
 6    1  0.9562506E-007  0.2785757E+04  0.7818608E-02  0.8307704E-01
         -2   -1    0    0    0  501 -0.00000000000E+00  0.00000000000E+00  0.25529141226E+04  0.25529141226E+04  0.00000000000E+00 0.  1.
          2   -1    0    0  501    0  0.00000000000E+00 -0.00000000000E+00 -0.75995900382E+03  0.75995900382E+03  0.00000000000E+00 0. -1.
         23    2    1    2    0    0 -0.74104696315E+03  0.10282320385E+04  0.15800901365E+04  0.20276792783E+04  0.91578871360E+02 0.  0.
         13    1    3    3    0    0 -0.45643646376E+03  0.65085172036E+03  0.92115924489E+03  0.12167483560E+04  0.00000000000E+00 0.  1.
        -13    1    3    3    0    0 -0.28461049939E+03  0.37738031811E+03  0.65893089162E+03  0.81093092233E+03  0.00000000000E+00 0. -1.
         22    1    1    2    0    0  0.74104696315E+03 -0.10282320385E+04  0.21286498227E+03  0.12851938481E+04  0.00000000000E+00 0. -1.
<mgrwt>
<rscale>  0 0.27857567E+04</rscale>
<asrwt>0</asrwt>
<pdfrwt beam="1">  1        2 0.11691677E+00 0.27857567E+04</pdfrwt>
<pdfrwt beam="2">  1       -2 0.39275601E+00 0.27857567E+04</pdfrwt>
<totfact> 0.26568222E-01</totfact>
</mgrwt>
</event>
<event>
 6    1  0.9562506E-007  0.1504177E+04  0.7818608E-02  0.8881680E-01
          2   -1    0    0  501    0  0.00000000000E+00  0.00000000000E+00  0.14937829643E+04  0.14937829643E+04  0.00000000000E+00 0. -1.
         -2   -1    0    0    0  501 -0.00000000000E+00 -0.00000000000E+00 -0.37866097983E+03  0.37866097983E+03  0.00000000000E+00 0.  1.
         23    2    1    2    0    0  0.44994976376E+03 -0.46808127305E+03  0.94084530005E+02  0.66245536917E+03  0.91871373507E+02 0.  0.
         13    1    3    3    0    0  0.44426191938E+02 -0.94082968421E+02  0.12267254567E+02  0.10476534261E+03  0.00000000000E+00 0. -1.
        -13    1    3    3    0    0  0.40552357183E+03 -0.37399830463E+03  0.81817275438E+02  0.55769002656E+03  0.00000000000E+00 0.  1.
         22    1    1    2    0    0 -0.44994976376E+03  0.46808127305E+03  0.10210374544E+04  0.12099885749E+04  0.00000000000E+00 0. -1.
<mgrwt>
<rscale>  0 0.15041773E+04</rscale>
<asrwt>0</asrwt>
<pdfrwt beam="1">  1        2 0.22981276E+00 0.15041773E+04</pdfrwt>
<pdfrwt beam="2">  1       -2 0.58255536E-01 0.15041773E+04</pdfrwt>
<totfact> 0.34065285E+01</totfact>
</mgrwt>
</event>
<event>
 6    1  0.9562506E-007  0.6088020E+04  0.7818608E-02  0.7679583E-01
          1   -1    0    0  501    0  0.00000000000E+00  0.00000000000E+00  0.26235779493E+04  0.26235779493E+04  0.00000000000E+00 0. -1.
         -1   -1    0    0    0  501 -0.00000000000E+00 -0.00000000000E+00 -0.35318170979E+04  0.35318170979E+04  0.00000000000E+00 0.  1.
         23    2    1    2    0    0  0.21209604172E+04  0.14865774677E+04 -0.20699090586E+04  0.33167575855E+04  0.89284438565E+02 0.  0.
         11    1    3    3    0    0  0.11489334517E+04  0.77365352794E+03 -0.11530477252E+04  0.18022505137E+04  0.00000000000E+00 0.  1.
        -11    1    3    3    0    0  0.97202696554E+03  0.71292393979E+03 -0.91686133343E+03  0.15145070718E+04  0.00000000000E+00 0. -1.
         22    1    1    2    0    0 -0.21209604172E+04 -0.14865774677E+04  0.11616699100E+04  0.28386374617E+04  0.00000000000E+00 0. -1.
<mgrwt>
<rscale>  0 0.60880202E+04</rscale>
<asrwt>0</asrwt>
<pdfrwt beam="1">  1        1 0.40362737E+00 0.60880202E+04</pdfrwt>
<pdfrwt beam="2">  1       -1 0.54335648E+00 0.60880202E+04</pdfrwt>
<totfact> 0.61172644E-04</totfact>
</mgrwt>
</event>
<event>
 6    1  0.9562506E-007  0.2665419E+04  0.7818608E-02  0.8346313E-01
          2   -1    0    0  501    0  0.00000000000E+00  0.00000000000E+00  0.16077024877E+04  0.16077024877E+04  0.00000000000E+00 0. -1.
         -2   -1    0    0    0  501 -0.00000000000E+00 -0.00000000000E+00 -0.11047531092E+04  0.11047531092E+04  0.00000000000E+00 0.  1.
         23    2    1    2    0    0 -0.48529241624E+03 -0.38619430681E+03 -0.94683468901E+03  0.11355825474E+04  0.91635265064E+02 0.  0.
         13    1    3    3    0    0 -0.39503151278E+03 -0.29718357908E+03 -0.68578392137E+03  0.84538012904E+03  0.00000000000E+00 0.  1.
        -13    1    3    3    0    0 -0.90260903456E+02 -0.89010727736E+02 -0.26105076764E+03  0.29020241838E+03  0.00000000000E+00 0. -1.
         22    1    1    2    0    0  0.48529241624E+03  0.38619430681E+03  0.14497840675E+04  0.15768730495E+04  0.00000000000E+00 0. -1.
<mgrwt>
<rscale>  0 0.26654188E+04</rscale>
<asrwt>0</asrwt>
<pdfrwt beam="1">  1        2 0.24733885E+00 0.26654188E+04</pdfrwt>
<pdfrwt beam="2">  1       -2 0.16996202E+00 0.26654188E+04</pdfrwt>
<totfact> 0.20721038E+00</totfact>
</mgrwt>
</event>
<event>
 6    1  0.9562506E-007  0.4290299E+03  0.7818608E-02  0.1034167E+00
         -2   -1    0    0    0  501 -0.00000000000E+00  0.00000000000E+00  0.73052648563E+03  0.73052648563E+03  0.00000000000E+00 0.  1.
          2   -1    0    0  501    0  0.00000000000E+00 -0.00000000000E+00 -0.62991088147E+02  0.62991088147E+02  0.00000000000E+00 0. -1.
         23    2    1    2    0    0  0.19574759001E+03  0.46219480775E+02  0.28231655610E+03  0.35895237136E+03  0.93224501380E+02 0.  0.
         11    1    3    3    0    0  0.41294035675E+02 -0.20819341225E+02  0.10338183139E+03  0.11325389801E+03  0.00000000000E+00 0.  1.
        -11    1    3    3    0    0  0.15445355433E+03  0.67038822000E+02  0.17893472471E+03  0.24569847336E+03  0.00000000000E+00 0. -1.
         22    1    1    2    0    0 -0.19574759001E+03 -0.46219480775E+02  0.38521884138E+03  0.43456520242E+03  0.00000000000E+00 0. -1.
<mgrwt>
<rscale>  0 0.42902987E+03</rscale>
<asrwt>0</asrwt>
<pdfrwt beam="1">  1        2 0.96909371E-02 0.42902987E+03</pdfrwt>
<pdfrwt beam="2">  1       -2 0.11238868E+00 0.42902987E+03</pdfrwt>
<totfact> 0.43565588E+02</totfact>
</mgrwt>
</event>
<event>
 6    1  0.9562506E-007  0.2879247E+04  0.7818608E-02  0.8279079E-01
          1   -1    0    0  501    0  0.00000000000E+00  0.00000000000E+00  0.15687854485E+04  0.15687854485E+04  0.00000000000E+00 0. -1.
         -1   -1    0    0    0  501 -0.00000000000E+00 -0.00000000000E+00 -0.13210954809E+04  0.13210954809E+04  0.00000000000E+00 0.  1.
         23    2    1    2    0    0 -0.84674066350E+02  0.10124244579E+04  0.11456648652E+04  0.15339561906E+04  0.91107797449E+02 0.  0.
         11    1    3    3    0    0 -0.97966214650E+02  0.87457961016E+03  0.96009401866E+03  0.13024083071E+04  0.00000000000E+00 0.  1.
        -11    1    3    3    0    0  0.13292148300E+02  0.13784484775E+03  0.18557084655E+03  0.23154788348E+03  0.00000000000E+00 0. -1.
         22    1    1    2    0    0  0.84674066350E+02 -0.10124244579E+04 -0.89797489765E+03  0.13559247388E+04  0.00000000000E+00 0.  1.
<mgrwt>
<rscale>  0 0.28792467E+04</rscale>
<asrwt>0</asrwt>
<pdfrwt beam="1">  1        1 0.24135161E+00 0.28792467E+04</pdfrwt>
<pdfrwt beam="2">  1       -1 0.20324546E+00 0.28792467E+04</pdfrwt>
<totfact> 0.72076463E-01</totfact>
</mgrwt>
</event>
<event>
 6    1  0.9562506E-007  0.2658193E+03  0.7818608E-02  0.1103696E+00
          2   -1    0    0  501    0  0.00000000000E+00  0.00000000000E+00  0.46301274322E+03  0.46301274322E+03  0.00000000000E+00 0. -1.
         -2   -1    0    0    0  501 -0.00000000000E+00 -0.00000000000E+00 -0.38152247283E+02  0.38152247283E+02  0.00000000000E+00 0.  1.
         23    2    1    2    0    0 -0.82533131249E+02  0.42174323915E+02  0.10499288794E+03  0.16813994940E+03  0.93043778494E+02 0.  0.
         11    1    3    3    0    0 -0.71746442407E+02  0.27880291183E+02  0.12147042845E+03  0.14380517245E+03  0.00000000000E+00 0. -1.
        -11    1    3    3    0    0 -0.10786688842E+02  0.14294032732E+02 -0.16477540516E+02  0.24334776954E+02  0.00000000000E+00 0.  1.
         22    1    1    2    0    0  0.82533131249E+02 -0.42174323915E+02  0.31986760800E+03  0.33302504110E+03  0.00000000000E+00 0. -1.
<mgrwt>
<rscale>  0 0.26581931E+03</rscale>
<asrwt>0</asrwt>
<pdfrwt beam="1">  1        2 0.71232726E-01 0.26581931E+03</pdfrwt>
<pdfrwt beam="2">  1       -2 0.58695768E-02 0.26581931E+03</pdfrwt>
<totfact> 0.10308099E+04</totfact>
</mgrwt>
</event>
<event>
 6    1  0.9562506E-007  0.1355039E+04  0.7818608E-02  0.8987023E-01
         -1   -1    0    0    0  501 -0.00000000000E+00  0.00000000000E+00  0.28801893298E+03  0.28801893298E+03  0.00000000000E+00 0.  1.
          1   -1    0    0  501    0  0.00000000000E+00 -0.00000000000E+00 -0.15937579907E+04  0.15937579907E+04  0.00000000000E+00 0. -1.
         23    2    1    2    0    0 -0.41994739642E+03  0.83170703087E+02 -0.13797292827E+04  0.14473258505E+04  0.88464921770E+02 0.  0.
         11    1    3    3    0    0 -0.33743019088E+03  0.96901070609E+02 -0.11697933406E+04  0.12213375499E+04  0.00000000000E+00 0. -1.
        -11    1    3    3    0    0 -0.82517205535E+02 -0.13730367522E+02 -0.20993594209E+03  0.22598830054E+03  0.00000000000E+00 0.  1.
         22    1    1    2    0    0  0.41994739642E+03 -0.83170703087E+02  0.73990224958E+02  0.43445107320E+03  0.00000000000E+00 0.  1.
<mgrwt>
<rscale>  0 0.13550387E+04</rscale>
<asrwt>0</asrwt>
<pdfrwt beam="1">  1        1 0.24519354E+00 0.13550387E+04</pdfrwt>
<pdfrwt beam="2">  1       -1 0.44310605E-01 0.13550387E+04</pdfrwt>
<totfact> 0.27794610E+01</totfact>
</mgrwt>
</event>
<event>
 6    1  0.9562506E-007  0.2935603E+04  0.7818608E-02  0.8262363E-01
         -2   -1    0    0    0  501 -0.00000000000E+00  0.00000000000E+00  0.10128041577E+04  0.10128041577E+04  0.00000000000E+00 0.  1.
          2   -1    0    0  501    0  0.00000000000E+00 -0.00000000000E+00 -0.21272046914E+04  0.21272046914E+04  0.00000000000E+00 0. -1.
         23    2    1    2    0    0  0.10897947024E+04  0.70010146031E+03 -0.12929933412E+04  0.18324577261E+04  0.90966969819E+02 0.  0.
         13    1    3    3    0    0  0.33030202603E+03  0.21594208314E+03 -0.45409600232E+03  0.60160916798E+03  0.00000000000E+00 0. -1.
        -13    1    3    3    0    0  0.75949267633E+03  0.48415937716E+03 -0.83889733892E+03  0.12308485582E+04  0.00000000000E+00 0.  1.
         22    1    1    2    0    0 -0.10897947024E+04 -0.70010146031E+03  0.17859280754E+03  0.13075511229E+04  0.00000000000E+00 0.  1.
<mgrwt>
<rscale>  0 0.29356033E+04</rscale>
<asrwt>0</asrwt>
<pdfrwt beam="1">  1        2 0.32726226E+00 0.29356033E+04</pdfrwt>
<pdfrwt beam="2">  1       -2 0.15581603E+00 0.29356033E+04</pdfrwt>
<totfact> 0.13214889E+00</totfact>
</mgrwt>
</event>
<event>
 6    1  0.9562506E-007  0.1339129E+04  0.7818608E-02  0.8999098E-01
         -1   -1    0    0    0  501 -0.00000000000E+00  0.00000000000E+00  0.44419759895E+03  0.44419759895E+03  0.00000000000E+00 0.  1.
          1   -1    0    0  501    0  0.00000000000E+00 -0.00000000000E+00 -0.10092735485E+04  0.10092735485E+04  0.00000000000E+00 0. -1.
         23    2    1    2    0    0  0.22324967240E+03 -0.43495045884E+03  0.20810959285E+03  0.53868253753E+03  0.88583044280E+02 0.  0.
         13    1    3    3    0    0  0.88076515695E+02 -0.20446769491E+03  0.49882069163E+02  0.22815067763E+03  0.00000000000E+00 0.  1.
        -13    1    3    3    0    0  0.13517315670E+03 -0.23048276393E+03  0.15822752368E+03  0.31053185990E+03  0.00000000000E+00 0. -1.
         22    1    1    2    0    0 -0.22324967240E+03  0.43495045884E+03 -0.77318554235E+03  0.91478860988E+03  0.00000000000E+00 0. -1.
<mgrwt>
<rscale>  0 0.13391294E+04</rscale>
<asrwt>0</asrwt>
<pdfrwt beam="1">  1        1 0.15527285E+00 0.13391294E+04</pdfrwt>
<pdfrwt beam="2">  1       -1 0.68338093E-01 0.13391294E+04</pdfrwt>
<totfact> 0.31601096E+01</totfact>
</mgrwt>
</event>
<event>
 6    1  0.9562506E-007  0.2646364E+04  0.7818608E-02  0.8352621E-01
          2   -1    0    0  501    0  0.00000000000E+00  0.00000000000E+00  0.22900248704E+04  0.22900248704E+04  0.00000000000E+00 0. -1.
         -2   -1    0    0    0  501 -0.00000000000E+00 -0.00000000000E+00 -0.76453775425E+03  0.76453775425E+03  0.00000000000E+00 0.  1.
         23    2    1    2    0    0  0.54335847982E+03  0.11032476526E+04  0.13225316398E+04  0.18081338277E+04  0.88680213179E+02 0.  0.
         11    1    3    3    0    0  0.34788543968E+03  0.71136589623E+03  0.78839959677E+03  0.11174254524E+04  0.00000000000E+00 0.  1.
        -11    1    3    3    0    0  0.19547304014E+03  0.39188175633E+03  0.53413204299E+03  0.69070837530E+03  0.00000000000E+00 0. -1.
         22    1    1    2    0    0 -0.54335847982E+03 -0.11032476526E+04  0.20295547637E+03  0.12464287969E+04  0.00000000000E+00 0.  1.
<mgrwt>
<rscale>  0 0.26463639E+04</rscale>
<asrwt>0</asrwt>
<pdfrwt beam="1">  1        2 0.35231152E+00 0.26463639E+04</pdfrwt>
<pdfrwt beam="2">  1       -2 0.11762119E+00 0.26463639E+04</pdfrwt>
<totfact> 0.22580320E+00</totfact>
</mgrwt>
</event>
<event>
 6    1  0.9562506E-007  0.2426302E+04  0.7818608E-02  0.8429722E-01
          2   -1    0    0  501    0  0.00000000000E+00  0.00000000000E+00  0.29428717590E+04  0.29428717590E+04  0.00000000000E+00 0. -1.
         -2   -1    0    0    0  501 -0.00000000000E+00 -0.00000000000E+00 -0.50010172458E+03  0.50010172458E+03  0.00000000000E+00 0.  1.
         23    2    1    2    0    0 -0.35365378624E+03 -0.11158383169E+01  0.28668398406E+04  0.28907892334E+04  0.11322311907E+03 0.  0.
         13    1    3    3    0    0 -0.14948246083E+03  0.54813361880E+02  0.12998628748E+04  0.13095774143E+04  0.00000000000E+00 0. -1.
        -13    1    3    3    0    0 -0.20417132541E+03 -0.55929200196E+02  0.15669769658E+04  0.15812118191E+04  0.00000000000E+00 0.  1.
         22    1    1    2    0    0  0.35365378624E+03  0.11158383169E+01 -0.42406980619E+03  0.55218425017E+03  0.00000000000E+00 0.  1.
<mgrwt>
<rscale>  0 0.24263019E+04</rscale>
<asrwt>0</asrwt>
<pdfrwt beam="1">  1        2 0.45274949E+00 0.24263019E+04</pdfrwt>
<pdfrwt beam="2">  1       -2 0.76938729E-01 0.24263019E+04</pdfrwt>
<totfact> 0.25593285E+00</totfact>
</mgrwt>
</event>
<event>
 6    1  0.9562506E-007  0.3069733E+04  0.7818608E-02  0.8224094E-01
         -2   -1    0    0    0  501 -0.00000000000E+00  0.00000000000E+00  0.62161669492E+03  0.62161669492E+03  0.00000000000E+00 0.  1.
          2   -1    0    0  501    0  0.00000000000E+00 -0.00000000000E+00 -0.37898203336E+04  0.37898203336E+04  0.00000000000E+00 0. -1.
         23    2    1    2    0    0  0.12047840498E+04  0.79449085938E+02 -0.29441306028E+04  0.31834201356E+04  0.91880300607E+02 0.  0.
         11    1    3    3    0    0  0.96213665642E+03  0.10020324811E+03 -0.23450424925E+04  0.25367246457E+04  0.00000000000E+00 0. -1.
        -11    1    3    3    0    0  0.24264739335E+03 -0.20754162176E+02 -0.59908811027E+03  0.64669548987E+03  0.00000000000E+00 0.  1.
         22    1    1    2    0    0 -0.12047840498E+04 -0.79449085938E+02 -0.22407303587E+03  0.12280168929E+04  0.00000000000E+00 0.  1.
<mgrwt>
<rscale>  0 0.30697333E+04</rscale>
<asrwt>0</asrwt>
<pdfrwt beam="1">  1        2 0.58304928E+00 0.30697333E+04</pdfrwt>
<pdfrwt beam="2">  1       -2 0.95633338E-01 0.30697333E+04</pdfrwt>
<totfact> 0.39006894E-01</totfact>
</mgrwt>
</event>
<event>
 6    1  0.9562506E-007  0.1855893E+04  0.7818608E-02  0.8677128E-01
          2   -1    0    0  501    0  0.00000000000E+00  0.00000000000E+00  0.10675455054E+04  0.10675455054E+04  0.00000000000E+00 0. -1.
         -2   -1    0    0    0  501 -0.00000000000E+00 -0.00000000000E+00 -0.80660217042E+03  0.80660217042E+03  0.00000000000E+00 0.  1.
         23    2    1    2    0    0  0.16157866396E+03  0.86230297394E+03 -0.16743329350E+03  0.89783798142E+03  0.91679057516E+02 0.  0.
         11    1    3    3    0    0  0.38704577809E+02  0.36267437060E+03 -0.34087146864E+02  0.36632318657E+03  0.00000000000E+00 0. -1.
        -11    1    3    3    0    0  0.12287408615E+03  0.49962860334E+03 -0.13334614663E+03  0.53151479485E+03  0.00000000000E+00 0.  1.
         22    1    1    2    0    0 -0.16157866396E+03 -0.86230297394E+03  0.42837662845E+03  0.97630969437E+03  0.00000000000E+00 0. -1.
<mgrwt>
<rscale>  0 0.18558928E+04</rscale>
<asrwt>0</asrwt>
<pdfrwt beam="1">  1        2 0.16423777E+00 0.18558928E+04</pdfrwt>
<pdfrwt beam="2">  1       -2 0.12409264E+00 0.18558928E+04</pdfrwt>
<totfact> 0.10475518E+01</totfact>
</mgrwt>
</event>
<event>
 6    1  0.9562506E-007  0.2256413E+04  0.7818608E-02  0.8495308E-01
         -1   -1    0    0    0  501 -0.00000000000E+00  0.00000000000E+00  0.54791635973E+03  0.54791635973E+03  0.00000000000E+00 0.  1.
          1   -1    0    0  501    0  0.00000000000E+00 -0.00000000000E+00 -0.23230742914E+04  0.23230742914E+04  0.00000000000E+00 0. -1.
         23    2    1    2    0    0  0.43566880737E+03  0.80316271081E+03 -0.54344157462E+02  0.92263809185E+03  0.11588835717E+03 0.  0.
         11    1    3    3    0    0  0.21716964582E+03  0.48911945504E+03 -0.70107861781E+02  0.53973661044E+03  0.00000000000E+00 0. -1.
        -11    1    3    3    0    0  0.21849916155E+03  0.31404325578E+03  0.15763704319E+02  0.38290148141E+03  0.00000000000E+00 0.  1.
         22    1    1    2    0    0 -0.43566880737E+03 -0.80316271081E+03 -0.17208137742E+04  0.19483525593E+04  0.00000000000E+00 0. -1.
<mgrwt>
<rscale>  0 0.22564134E+04</rscale>
<asrwt>0</asrwt>
<pdfrwt beam="1">  1        1 0.35739604E+00 0.22564134E+04</pdfrwt>
<pdfrwt beam="2">  1       -1 0.84294825E-01 0.22564134E+04</pdfrwt>
<totfact> 0.22693976E+00</totfact>
</mgrwt>
</event>
<event>
 6    1  0.9562506E-007  0.1108665E+04  0.7818608E-02  0.9196787E-01
          2   -1    0    0  501    0  0.00000000000E+00  0.00000000000E+00  0.19182209643E+04  0.19182209643E+04  0.00000000000E+00 0. -1.
         -2   -1    0    0    0  501 -0.00000000000E+00 -0.00000000000E+00 -0.16019252161E+03  0.16019252161E+03  0.00000000000E+00 0.  1.
         23    2    1    2    0    0  0.15563404128E+03  0.46300862690E+03  0.13611311051E+04  0.14490277219E+04  0.91676115007E+02 0.  0.
         11    1    3    3    0    0  0.13118249501E+03  0.26606246107E+03  0.75260133610E+03  0.80895417131E+03  0.00000000000E+00 0. -1.
        -11    1    3    3    0    0  0.24451546271E+02  0.19694616583E+03  0.60852976904E+03  0.64007355059E+03  0.00000000000E+00 0.  1.
         22    1    1    2    0    0 -0.15563404128E+03 -0.46300862690E+03  0.39689733756E+03  0.62938576401E+03  0.00000000000E+00 0.  1.
<mgrwt>
<rscale>  0 0.11086652E+04</rscale>
<asrwt>0</asrwt>
<pdfrwt beam="1">  1        2 0.29511090E+00 0.11086652E+04</pdfrwt>
<pdfrwt beam="2">  1       -2 0.24645005E-01 0.11086652E+04</pdfrwt>
<totfact> 0.10853935E+02</totfact>
</mgrwt>
</event>
<event>
 6    1  0.9562506E-007  0.1268562E+04  0.7818608E-02  0.9054874E-01
         -3   -1    0    0    0  501 -0.00000000000E+00  0.00000000000E+00  0.33267419834E+03  0.33267419834E+03  0.00000000000E+00 0.  1.
          3   -1    0    0  501    0  0.00000000000E+00 -0.00000000000E+00 -0.12093276007E+04  0.12093276007E+04  0.00000000000E+00 0. -1.
         23    2    1    2    0    0  0.59281403041E+03  0.81168301440E+02 -0.68391137248E+03  0.91337929080E+03  0.92250721606E+02 0.  0.
         11    1    3    3    0    0  0.46362013899E+03  0.90284388056E+02 -0.49362481357E+03  0.68319862455E+03  0.00000000000E+00 0. -1.
        -11    1    3    3    0    0  0.12919389142E+03 -0.91160866158E+01 -0.19028655890E+03  0.23018066625E+03  0.00000000000E+00 0.  1.
         22    1    1    2    0    0 -0.59281403041E+03 -0.81168301440E+02 -0.19274202991E+03  0.62862250827E+03  0.00000000000E+00 0.  1.
<mgrwt>
<rscale>  0 0.12685615E+04</rscale>
<asrwt>0</asrwt>
<pdfrwt beam="1">  1        3 0.18605040E+00 0.12685615E+04</pdfrwt>
<pdfrwt beam="2">  1       -3 0.51180647E-01 0.12685615E+04</pdfrwt>
<totfact> 0.17645254E+00</totfact>
</mgrwt>
</event>
<event>
 6    1  0.9562506E-007  0.1801040E+04  0.7818608E-02  0.8705746E-01
          1   -1    0    0  501    0  0.00000000000E+00  0.00000000000E+00  0.10471314299E+04  0.10471314299E+04  0.00000000000E+00 0. -1.
         -1   -1    0    0    0  501 -0.00000000000E+00 -0.00000000000E+00 -0.77443628175E+03  0.77443628175E+03  0.00000000000E+00 0.  1.
         23    2    1    2    0    0 -0.19034434477E+03  0.35414614793E+03 -0.67527970101E+03  0.79185572360E+03  0.96862524878E+02 0.  0.
         13    1    3    3    0    0 -0.14391755893E+02  0.76314391796E+02 -0.19383172026E+03  0.20881030821E+03  0.00000000000E+00 0. -1.
        -13    1    3    3    0    0 -0.17595258888E+03  0.27783175614E+03 -0.48144798075E+03  0.58304541540E+03  0.00000000000E+00 0.  1.
         22    1    1    2    0    0  0.19034434477E+03 -0.35414614793E+03  0.94797484914E+03  0.10297119880E+04  0.00000000000E+00 0. -1.
<mgrwt>
<rscale>  0 0.18010403E+04</rscale>
<asrwt>0</asrwt>
<pdfrwt beam="1">  1        1 0.16109714E+00 0.18010403E+04</pdfrwt>
<pdfrwt beam="2">  1       -1 0.11914404E+00 0.18010403E+04</pdfrwt>
<totfact> 0.82700169E+00</totfact>
</mgrwt>
</event>
<event>
 6    1  0.9562506E-007  0.2620563E+04  0.7818608E-02  0.8361250E-01
         -3   -1    0    0    0  501 -0.00000000000E+00  0.00000000000E+00  0.12873676143E+04  0.12873676143E+04  0.00000000000E+00 0.  1.
          3   -1    0    0  501    0  0.00000000000E+00 -0.00000000000E+00 -0.13336033959E+04  0.13336033959E+04  0.00000000000E+00 0. -1.
         23    2    1    2    0    0 -0.81147114845E+03 -0.43743803721E+03  0.90597550585E+03  0.12956243397E+04  0.89517323935E+02 0.  0.
         13    1    3    3    0    0 -0.64319525370E+03 -0.35429708487E+03  0.66945093658E+03  0.99367555833E+03  0.00000000000E+00 0. -1.
        -13    1    3    3    0    0 -0.16827589475E+03 -0.83140952345E+02  0.23652456927E+03  0.30194878138E+03  0.00000000000E+00 0.  1.
         22    1    1    2    0    0  0.81147114845E+03  0.43743803721E+03 -0.95221128741E+03  0.13253466705E+04  0.00000000000E+00 0. -1.
<mgrwt>
<rscale>  0 0.26205632E+04</rscale>
<asrwt>0</asrwt>
<pdfrwt beam="1">  1        3 0.20516975E+00 0.26205632E+04</pdfrwt>
<pdfrwt beam="2">  1       -3 0.19805656E+00 0.26205632E+04</pdfrwt>
<totfact> 0.47315907E-02</totfact>
</mgrwt>
</event>
<event>
 6    1  0.9562506E-007  0.1477510E+04  0.7818608E-02  0.8899548E-01
         -1   -1    0    0    0  501 -0.00000000000E+00  0.00000000000E+00  0.28784606371E+03  0.28784606371E+03  0.00000000000E+00 0.  1.
          1   -1    0    0  501    0  0.00000000000E+00 -0.00000000000E+00 -0.18960094787E+04  0.18960094787E+04  0.00000000000E+00 0. -1.
         23    2    1    2    0    0 -0.55733433052E+03 -0.48059979786E+03 -0.79395293174E+03  0.10863417918E+04  0.90440639055E+02 0.  0.
         13    1    3    3    0    0 -0.26337590410E+03 -0.26663574456E+03 -0.35329368112E+03  0.51505136856E+03  0.00000000000E+00 0. -1.
        -13    1    3    3    0    0 -0.29395842641E+03 -0.21396405329E+03 -0.44065925062E+03  0.57129042327E+03  0.00000000000E+00 0.  1.
         22    1    1    2    0    0  0.55733433052E+03  0.48059979786E+03 -0.81421048326E+03  0.10975137506E+04  0.00000000000E+00 0. -1.
<mgrwt>
<rscale>  0 0.14775099E+04</rscale>
<asrwt>0</asrwt>
<pdfrwt beam="1">  1        1 0.29169376E+00 0.14775099E+04</pdfrwt>
<pdfrwt beam="2">  1       -1 0.44284011E-01 0.14775099E+04</pdfrwt>
<totfact> 0.17152682E+01</totfact>
</mgrwt>
</event>
<event>
 6    1  0.1595403E-006  0.2790246E+04  0.7818608E-02  0.8306303E-01
         -2   -1    0    0    0  501 -0.00000000000E+00  0.00000000000E+00  0.95801678096E+03  0.95801678096E+03  0.00000000000E+00 0.  1.
          2   -1    0    0  501    0  0.00000000000E+00 -0.00000000000E+00 -0.20316643426E+04  0.20316643426E+04  0.00000000000E+00 0. -1.
         23    2    1    2    0    0  0.13742443904E+04  0.36253781251E+02 -0.78297383748E+03  0.15845643330E+04  0.89073642921E+02 0.  0.
         11    1    3    3    0    0  0.88338751909E+03  0.56401383142E+02 -0.47233767254E+03  0.10033232290E+04  0.00000000000E+00 0.  1.
        -11    1    3    3    0    0  0.49085687133E+03 -0.20147601891E+02 -0.31063616494E+03  0.58124110398E+03  0.00000000000E+00 0. -1.
         22    1    1    2    0    0 -0.13742443904E+04 -0.36253781251E+02 -0.29067372412E+03  0.14051167906E+04  0.00000000000E+00 0.  1.
<mgrwt>
<rscale>  0 0.27902462E+04</rscale>
<asrwt>0</asrwt>
<pdfrwt beam="1">  1        2 0.31256374E+00 0.27902462E+04</pdfrwt>
<pdfrwt beam="2">  1       -2 0.14738720E+00 0.27902462E+04</pdfrwt>
<totfact> 0.17536955E+00</totfact>
</mgrwt>
</event>
<event>
 6    1  0.9562506E-007  0.1848955E+04  0.7818608E-02  0.8680690E-01
         -1   -1    0    0    0  501 -0.00000000000E+00  0.00000000000E+00  0.16533120662E+04  0.16533120662E+04  0.00000000000E+00 0.  1.
          1   -1    0    0  501    0  0.00000000000E+00 -0.00000000000E+00 -0.51693756012E+03  0.51693756012E+03  0.00000000000E+00 0. -1.
         23    2    1    2    0    0 -0.54906424658E+03 -0.73499471090E+03  0.67991137889E+03  0.11455314414E+04  0.90961685510E+02 0.  0.
         11    1    3    3    0    0 -0.26603673381E+03 -0.40168414079E+03  0.31117704367E+03  0.57354759629E+03  0.00000000000E+00 0. -1.
        -11    1    3    3    0    0 -0.28302751277E+03 -0.33331057011E+03  0.36873433522E+03  0.57198384514E+03  0.00000000000E+00 0.  1.
         22    1    1    2    0    0  0.54906424658E+03  0.73499471090E+03  0.45646312717E+03  0.10247181849E+04  0.00000000000E+00 0.  1.
<mgrwt>
<rscale>  0 0.18489555E+04</rscale>
<asrwt>0</asrwt>
<pdfrwt beam="1">  1        1 0.79528856E-01 0.18489555E+04</pdfrwt>
<pdfrwt beam="2">  1       -1 0.25435570E+00 0.18489555E+04</pdfrwt>
<totfact> 0.25970409E+00</totfact>
</mgrwt>
</event>
<event>
 6    1  0.9562506E-007  0.3475222E+04  0.7818608E-02  0.8119687E-01
         -2   -1    0    0    0  501 -0.00000000000E+00  0.00000000000E+00  0.91876670602E+03  0.91876670602E+03  0.00000000000E+00 0.  1.
          2   -1    0    0  501    0  0.00000000000E+00 -0.00000000000E+00 -0.32862440537E+04  0.32862440537E+04  0.00000000000E+00 0. -1.
         23    2    1    2    0    0 -0.22946902418E+03 -0.16571843086E+04 -0.62195198815E+03  0.17872070773E+04  0.91482215934E+02 0.  0.
         13    1    3    3    0    0 -0.14600067352E+03 -0.80797538735E+03 -0.33785827270E+03  0.88785620213E+03  0.00000000000E+00 0. -1.
        -13    1    3    3    0    0 -0.83468350661E+02 -0.84920892129E+03 -0.28409371544E+03  0.89935087520E+03  0.00000000000E+00 0.  1.
         22    1    1    2    0    0  0.22946902418E+03  0.16571843086E+04 -0.17455253596E+04  0.24178036824E+04  0.00000000000E+00 0. -1.
<mgrwt>
<rscale>  0 0.34752218E+04</rscale>
<asrwt>0</asrwt>
<pdfrwt beam="1">  1        2 0.50557602E+00 0.34752218E+04</pdfrwt>
<pdfrwt beam="2">  1       -2 0.14134872E+00 0.34752218E+04</pdfrwt>
<totfact> 0.32773436E-01</totfact>
</mgrwt>
</event>
<event>
 6    1  0.9562506E-007  0.2189264E+04  0.7818608E-02  0.8522910E-01
         -1   -1    0    0    0  501 -0.00000000000E+00  0.00000000000E+00  0.56885887628E+03  0.56885887628E+03  0.00000000000E+00 0.  1.
          1   -1    0    0  501    0  0.00000000000E+00 -0.00000000000E+00 -0.21063552564E+04  0.21063552564E+04  0.00000000000E+00 0. -1.
         23    2    1    2    0    0  0.62328124018E+03  0.44942475552E+03 -0.17194667069E+04  0.18855462816E+04  0.90867533718E+02 0.  0.
         11    1    3    3    0    0  0.32651628450E+03  0.27598325821E+03 -0.87710098090E+03  0.97574882708E+03  0.00000000000E+00 0.  1.
        -11    1    3    3    0    0  0.29676495568E+03  0.17344149731E+03 -0.84236572597E+03  0.90979745449E+03  0.00000000000E+00 0. -1.
         22    1    1    2    0    0 -0.62328124018E+03 -0.44942475552E+03  0.18197032677E+03  0.78966785110E+03  0.00000000000E+00 0.  1.
<mgrwt>
<rscale>  0 0.21892637E+04</rscale>
<asrwt>0</asrwt>
<pdfrwt beam="1">  1        1 0.32405465E+00 0.21892637E+04</pdfrwt>
<pdfrwt beam="2">  1       -1 0.87516752E-01 0.21892637E+04</pdfrwt>
<totfact> 0.29576028E+00</totfact>
</mgrwt>
</event>
<event>
 6    1  0.9562506E-007  0.1678852E+04  0.7818608E-02  0.8773519E-01
          1   -1    0    0  501    0  0.00000000000E+00  0.00000000000E+00  0.18564615843E+04  0.18564615843E+04  0.00000000000E+00 0. -1.
         -1   -1    0    0    0  501 -0.00000000000E+00 -0.00000000000E+00 -0.37955852340E+03  0.37955852340E+03  0.00000000000E+00 0.  1.
         23    2    1    2    0    0 -0.75740491834E+03  0.31515798580E+03  0.96190112169E+03  0.12674057553E+04  0.89871098086E+02 0.  0.
         13    1    3    3    0    0 -0.32499459737E+03  0.14443486434E+03  0.35050151339E+03  0.49933378540E+03  0.00000000000E+00 0.  1.
        -13    1    3    3    0    0 -0.43241032097E+03  0.17072312146E+03  0.61139960830E+03  0.76807196987E+03  0.00000000000E+00 0. -1.
         22    1    1    2    0    0  0.75740491834E+03 -0.31515798580E+03  0.51500193920E+03  0.96861435242E+03  0.00000000000E+00 0.  1.
<mgrwt>
<rscale>  0 0.16788518E+04</rscale>
<asrwt>0</asrwt>
<pdfrwt beam="1">  1        1 0.28560947E+00 0.16788518E+04</pdfrwt>
<pdfrwt beam="2">  1       -1 0.58393620E-01 0.16788518E+04</pdfrwt>
<totfact> 0.10566622E+01</totfact>
</mgrwt>
</event>
<event>
 6    1  0.9562506E-007  0.2815505E+04  0.7818608E-02  0.8298471E-01
         -2   -1    0    0    0  501 -0.00000000000E+00  0.00000000000E+00  0.14670666919E+04  0.14670666919E+04  0.00000000000E+00 0.  1.
          2   -1    0    0  501    0  0.00000000000E+00 -0.00000000000E+00 -0.13508360465E+04  0.13508360465E+04  0.00000000000E+00 0. -1.
         23    2    1    2    0    0 -0.13677318922E+04 -0.32631687198E+03  0.75543147831E+02  0.14111942745E+04  0.92678387421E+02 0.  0.
         13    1    3    3    0    0 -0.12130681430E+04 -0.30369953370E+03  0.92746778472E+02  0.12539416618E+04  0.00000000000E+00 0. -1.
        -13    1    3    3    0    0 -0.15466374914E+03 -0.22617338278E+02 -0.17203630640E+02  0.15725261269E+03  0.00000000000E+00 0.  1.
         22    1    1    2    0    0  0.13677318922E+04  0.32631687198E+03  0.40687497606E+02  0.14067084639E+04  0.00000000000E+00 0. -1.
<mgrwt>
<rscale>  0 0.28155046E+04</rscale>
<asrwt>0</asrwt>
<pdfrwt beam="1">  1        2 0.20782093E+00 0.28155046E+04</pdfrwt>
<pdfrwt beam="2">  1       -2 0.22570257E+00 0.28155046E+04</pdfrwt>
<totfact> 0.12211150E+00</totfact>
</mgrwt>
</event>
<event>
 6    1  0.9562506E-007  0.2176212E+04  0.7818608E-02  0.8528395E-01
         -2   -1    0    0    0  501 -0.00000000000E+00  0.00000000000E+00  0.18420513584E+04  0.18420513584E+04  0.00000000000E+00 0.  1.
          2   -1    0    0  501    0  0.00000000000E+00 -0.00000000000E+00 -0.64274788235E+03  0.64274788235E+03  0.00000000000E+00 0. -1.
         23    2    1    2    0    0 -0.82183536313E+03  0.46555373872E+03  0.12132311643E+04  0.15401577065E+04  0.89455323956E+02 0.  0.
         13    1    3    3    0    0 -0.42262733810E+03  0.25936505979E+03  0.70308827116E+03  0.86035877295E+03  0.00000000000E+00 0. -1.
        -13    1    3    3    0    0 -0.39920802503E+03  0.20618867893E+03  0.51014289315E+03  0.67979893351E+03  0.00000000000E+00 0.  1.
         22    1    1    2    0    0  0.82183536313E+03 -0.46555373872E+03 -0.13927688303E+02  0.94464153425E+03  0.00000000000E+00 0. -1.
<mgrwt>
<rscale>  0 0.21762119E+04</rscale>
<asrwt>0</asrwt>
<pdfrwt beam="1">  1        2 0.98884291E-01 0.21762119E+04</pdfrwt>
<pdfrwt beam="2">  1       -2 0.28339251E+00 0.21762119E+04</pdfrwt>
<totfact> 0.16770057E+00</totfact>
</mgrwt>
</event>
<event>
 6    1  0.9562506E-007  0.2475754E+04  0.7818608E-02  0.8411675E-01
         -1   -1    0    0    0  501 -0.00000000000E+00  0.00000000000E+00  0.81560828108E+03  0.81560828108E+03  0.00000000000E+00 0.  1.
          1   -1    0    0  501    0  0.00000000000E+00 -0.00000000000E+00 -0.18787687046E+04  0.18787687046E+04  0.00000000000E+00 0. -1.
         23    2    1    2    0    0  0.11767953347E+04  0.32382923209E+03 -0.31935087825E+03  0.12650536244E+04  0.93075549081E+02 0.  0.
         11    1    3    3    0    0  0.26162995897E+03  0.45648708503E+02 -0.99444897930E+02  0.28359006990E+03  0.00000000000E+00 0. -1.
        -11    1    3    3    0    0  0.91516537576E+03  0.27818052358E+03 -0.21990598032E+03  0.98146355453E+03  0.00000000000E+00 0.  1.
         22    1    1    2    0    0 -0.11767953347E+04 -0.32382923209E+03 -0.74380954528E+03  0.14293233613E+04  0.00000000000E+00 0. -1.
<mgrwt>
<rscale>  0 0.24757539E+04</rscale>
<asrwt>0</asrwt>
<pdfrwt beam="1">  1        1 0.28904134E+00 0.24757539E+04</pdfrwt>
<pdfrwt beam="2">  1       -1 0.12547820E+00 0.24757539E+04</pdfrwt>
<totfact> 0.17772104E+00</totfact>
</mgrwt>
</event>
<event>
 6    1  0.1148179E-006  0.4174754E+04  0.7818608E-02  0.7970192E-01
          1   -1    0    0  501    0  0.00000000000E+00  0.00000000000E+00  0.23339197198E+04  0.23339197198E+04  0.00000000000E+00 0. -1.
         -1   -1    0    0    0  501 -0.00000000000E+00 -0.00000000000E+00 -0.18668780837E+04  0.18668780837E+04  0.00000000000E+00 0.  1.
         23    2    1    2    0    0 -0.98454432298E+03  0.15010505884E+04  0.13034534241E+04  0.22203773755E+04  0.92760271735E+02 0.  0.
         11    1    3    3    0    0 -0.61557799536E+03  0.10009957839E+04  0.81803698728E+03  0.14318216859E+04  0.00000000000E+00 0.  1.
        -11    1    3    3    0    0 -0.36896632761E+03  0.50005480450E+03  0.48541643681E+03  0.78855568956E+03  0.00000000000E+00 0. -1.
         22    1    1    2    0    0  0.98454432298E+03 -0.15010505884E+04 -0.83641178797E+03  0.19804204280E+04  0.00000000000E+00 0.  1.
<mgrwt>
<rscale>  0 0.41747544E+04</rscale>
<asrwt>0</asrwt>
<pdfrwt beam="1">  1        1 0.35906457E+00 0.41747544E+04</pdfrwt>
<pdfrwt beam="2">  1       -1 0.28721201E+00 0.41747544E+04</pdfrwt>
<totfact> 0.54404130E-02</totfact>
</mgrwt>
</event>
<event>
 6    1  0.9562506E-007  0.1046596E+04  0.7818608E-02  0.9258866E-01
         -1   -1    0    0    0  501 -0.00000000000E+00  0.00000000000E+00  0.36083721182E+03  0.36083721182E+03  0.00000000000E+00 0.  1.
          1   -1    0    0  501    0  0.00000000000E+00 -0.00000000000E+00 -0.75890345781E+03  0.75890345781E+03  0.00000000000E+00 0. -1.
         23    2    1    2    0    0  0.10909196477E+03  0.46003510199E+03  0.30054106032E+02  0.48191593849E+03  0.88353667951E+02 0.  0.
         11    1    3    3    0    0  0.50142067403E+02  0.73946495600E+02 -0.68923787851E+01  0.89609240709E+02  0.00000000000E+00 0.  1.
        -11    1    3    3    0    0  0.58949897368E+02  0.38608860639E+03  0.36946484817E+02  0.39230669778E+03  0.00000000000E+00 0. -1.
         22    1    1    2    0    0 -0.10909196477E+03 -0.46003510199E+03 -0.42812035202E+03  0.63782473114E+03  0.00000000000E+00 0. -1.
<mgrwt>
<rscale>  0 0.10465956E+04</rscale>
<asrwt>0</asrwt>
<pdfrwt beam="1">  1        1 0.11675438E+00 0.10465956E+04</pdfrwt>
<pdfrwt beam="2">  1       -1 0.55513418E-01 0.10465956E+04</pdfrwt>
<totfact> 0.78874628E+01</totfact>
</mgrwt>
</event>
<event>
 6    1  0.9562506E-007  0.2015807E+04  0.7818608E-02  0.8599266E-01
         -2   -1    0    0    0  501 -0.00000000000E+00  0.00000000000E+00  0.56656029095E+03  0.56656029095E+03  0.00000000000E+00 0.  1.
          2   -1    0    0  501    0  0.00000000000E+00 -0.00000000000E+00 -0.17930466937E+04  0.17930466937E+04  0.00000000000E+00 0. -1.
         23    2    1    2    0    0  0.86554087896E+03  0.35212950180E+03 -0.17863184899E+03  0.95562857847E+03  0.90335172129E+02 0.  0.
         11    1    3    3    0    0  0.49203296514E+03  0.15362933537E+03 -0.11104093950E+03  0.52728408066E+03  0.00000000000E+00 0.  1.
        -11    1    3    3    0    0  0.37350791382E+03  0.19850016643E+03 -0.67590909490E+02  0.42834449781E+03  0.00000000000E+00 0. -1.
         22    1    1    2    0    0 -0.86554087896E+03 -0.35212950180E+03 -0.10478545538E+04  0.14039784062E+04  0.00000000000E+00 0. -1.
<mgrwt>
<rscale>  0 0.20158066E+04</rscale>
<asrwt>0</asrwt>
<pdfrwt beam="1">  1        2 0.27585333E+00 0.20158066E+04</pdfrwt>
<pdfrwt beam="2">  1       -2 0.87163123E-01 0.20158066E+04</pdfrwt>
<totfact> 0.91893417E+00</totfact>
</mgrwt>
</event>
<event>
 6    1  0.9562506E-007  0.2952385E+04  0.7818608E-02  0.8257460E-01
          2   -1    0    0  501    0  0.00000000000E+00  0.00000000000E+00  0.40369033723E+04  0.40369033723E+04  0.00000000000E+00 0. -1.
         -2   -1    0    0    0  501 -0.00000000000E+00 -0.00000000000E+00 -0.53980607902E+03  0.53980607902E+03  0.00000000000E+00 0.  1.
         23    2    1    2    0    0 -0.12199681432E+04  0.11248405362E+03  0.30227445993E+04  0.32629418116E+04  0.93964999147E+02 0.  0.
         13    1    3    3    0    0 -0.11174405445E+04  0.90865871596E+02  0.26964233898E+04  0.29202104503E+04  0.00000000000E+00 0.  1.
        -13    1    3    3    0    0 -0.10252759871E+03  0.21618182022E+02  0.32632120945E+03  0.34273136131E+03  0.00000000000E+00 0. -1.
         22    1    1    2    0    0  0.12199681432E+04 -0.11248405362E+03  0.47435269398E+03  0.13137676397E+04  0.00000000000E+00 0.  1.
<mgrwt>
<rscale>  0 0.29523855E+04</rscale>
<asrwt>0</asrwt>
<pdfrwt beam="1">  1        2 0.62106204E+00 0.29523855E+04</pdfrwt>
<pdfrwt beam="2">  1       -2 0.83047092E-01 0.29523855E+04</pdfrwt>
<totfact> 0.34838353E-01</totfact>
</mgrwt>
</event>
<event>
 6    1  0.9562506E-007  0.2414984E+04  0.7818608E-02  0.8433915E-01
         -2   -1    0    0    0  501 -0.00000000000E+00  0.00000000000E+00  0.11488936703E+04  0.11488936703E+04  0.00000000000E+00 0.  1.
          2   -1    0    0  501    0  0.00000000000E+00 -0.00000000000E+00 -0.12690789441E+04  0.12690789441E+04  0.00000000000E+00 0. -1.
         23    2    1    2    0    0  0.43820278454E+03 -0.10963438113E+04  0.18511282605E+03  0.11984651882E+04  0.89780932722E+02 0.  0.
         13    1    3    3    0    0  0.31025265972E+03 -0.67946282151E+03  0.92333246147E+02  0.75262996686E+03  0.00000000000E+00 0. -1.
        -13    1    3    3    0    0  0.12795012482E+03 -0.41688098982E+03  0.92779579904E+02  0.44583522131E+03  0.00000000000E+00 0.  1.
         22    1    1    2    0    0 -0.43820278454E+03  0.10963438113E+04 -0.30529809983E+03  0.12195074263E+04  0.00000000000E+00 0. -1.
<mgrwt>
<rscale>  0 0.24149839E+04</rscale>
<asrwt>0</asrwt>
<pdfrwt beam="1">  1        2 0.19524291E+00 0.24149839E+04</pdfrwt>
<pdfrwt beam="2">  1       -2 0.17675287E+00 0.24149839E+04</pdfrwt>
<totfact> 0.29568122E+00</totfact>
</mgrwt>
</event>
<event>
 6    1  0.9562506E-007  0.2894783E+04  0.7818608E-02  0.8274431E-01
          1   -1    0    0  501    0  0.00000000000E+00  0.00000000000E+00  0.15265746845E+04  0.15265746845E+04  0.00000000000E+00 0. -1.
         -1   -1    0    0    0  501 -0.00000000000E+00 -0.00000000000E+00 -0.13723157877E+04  0.13723157877E+04  0.00000000000E+00 0.  1.
         23    2    1    2    0    0 -0.10645042553E+04 -0.29096728494E+03  0.10128665135E+04  0.15006636272E+04  0.90892670209E+02 0.  0.
         13    1    3    3    0    0 -0.48240248222E+03 -0.92740555121E+02  0.41629099488E+03  0.64390306556E+03  0.00000000000E+00 0. -1.
        -13    1    3    3    0    0 -0.58210177306E+03 -0.19822672982E+03  0.59657551864E+03  0.85676056168E+03  0.00000000000E+00 0.  1.
         22    1    1    2    0    0  0.10645042553E+04  0.29096728494E+03 -0.85860761676E+03  0.13982268450E+04  0.00000000000E+00 0.  1.
<mgrwt>
<rscale>  0 0.28947833E+04</rscale>
<asrwt>0</asrwt>
<pdfrwt beam="1">  1        1 0.23485764E+00 0.28947833E+04</pdfrwt>
<pdfrwt beam="2">  1       -1 0.21112551E+00 0.28947833E+04</pdfrwt>
<totfact> 0.68017025E-01</totfact>
</mgrwt>
</event>
<event>
 6    1  0.9562506E-007  0.1772774E+04  0.7818608E-02  0.8720914E-01
         -1   -1    0    0    0  501 -0.00000000000E+00  0.00000000000E+00  0.65785644029E+03  0.65785644029E+03  0.00000000000E+00 0.  1.
          1   -1    0    0  501    0  0.00000000000E+00 -0.00000000000E+00 -0.11943057368E+04  0.11943057368E+04  0.00000000000E+00 0. -1.
         23    2    1    2    0    0 -0.38915563058E+03 -0.69601374386E+03 -0.66746021642E+03  0.10440525944E+04  0.93088360603E+02 0.  0.
         13    1    3    3    0    0 -0.17078543021E+03 -0.21625825659E+03 -0.21944357581E+03  0.35226521214E+03  0.00000000000E+00 0. -1.
        -13    1    3    3    0    0 -0.21837020037E+03 -0.47975548727E+03 -0.44801664060E+03  0.69178738225E+03  0.00000000000E+00 0.  1.
         22    1    1    2    0    0  0.38915563058E+03  0.69601374386E+03  0.13101091994E+03  0.80810958267E+03  0.00000000000E+00 0.  1.
<mgrwt>
<rscale>  0 0.17727738E+04</rscale>
<asrwt>0</asrwt>
<pdfrwt beam="1">  1        1 0.18373934E+00 0.17727738E+04</pdfrwt>
<pdfrwt beam="2">  1       -1 0.10120868E+00 0.17727738E+04</pdfrwt>
<totfact> 0.94617119E+00</totfact>
</mgrwt>
</event>
<event>
 6    1  0.9562506E-007  0.3089367E+04  0.7818608E-02  0.8218662E-01
          2   -1    0    0  501    0  0.00000000000E+00  0.00000000000E+00  0.18769142777E+04  0.18769142777E+04  0.00000000000E+00 0. -1.
         -2   -1    0    0    0  501 -0.00000000000E+00 -0.00000000000E+00 -0.12712603480E+04  0.12712603480E+04  0.00000000000E+00 0.  1.
         23    2    1    2    0    0 -0.47923674303E+03 -0.14410846175E+04  0.24090042566E+02  0.15219491538E+04  0.96727275029E+02 0.  0.
         11    1    3    3    0    0 -0.31532394740E+03 -0.10823854784E+04  0.16877786100E+02  0.11275071509E+04  0.00000000000E+00 0. -1.
        -11    1    3    3    0    0 -0.16391279564E+03 -0.35869913917E+03  0.72122564660E+01  0.39444200291E+03  0.00000000000E+00 0.  1.
         22    1    1    2    0    0  0.47923674303E+03  0.14410846175E+04  0.58156388720E+03  0.16262254720E+04  0.00000000000E+00 0.  1.
<mgrwt>
<rscale>  0 0.30893667E+04</rscale>
<asrwt>0</asrwt>
<pdfrwt beam="1">  1        2 0.28875605E+00 0.30893667E+04</pdfrwt>
<pdfrwt beam="2">  1       -2 0.19557851E+00 0.30893667E+04</pdfrwt>
<totfact> 0.94549333E-01</totfact>
</mgrwt>
</event>
<event>
 6    1  0.9562506E-007  0.2826523E+04  0.7818608E-02  0.8295081E-01
         -2   -1    0    0    0  501 -0.00000000000E+00  0.00000000000E+00  0.73560369495E+03  0.73560369495E+03  0.00000000000E+00 0.  1.
          2   -1    0    0  501    0  0.00000000000E+00 -0.00000000000E+00 -0.27151948598E+04  0.27151948598E+04  0.00000000000E+00 0. -1.
         23    2    1    2    0    0 -0.12184217179E+04 -0.70584042147E+03 -0.86572370763E+03  0.16553980714E+04  0.90016963227E+02 0.  0.
         11    1    3    3    0    0 -0.37523476510E+03 -0.17290411364E+03 -0.27007814268E+03  0.49359818132E+03  0.00000000000E+00 0.  1.
        -11    1    3    3    0    0 -0.84318695282E+03 -0.53293630783E+03 -0.59564556495E+03  0.11617998901E+04  0.00000000000E+00 0. -1.
         22    1    1    2    0    0  0.12184217179E+04  0.70584042147E+03 -0.11138674572E+04  0.17954004833E+04  0.00000000000E+00 0. -1.
<mgrwt>
<rscale>  0 0.28265225E+04</rscale>
<asrwt>0</asrwt>
<pdfrwt beam="1">  1        2 0.41772229E+00 0.28265225E+04</pdfrwt>
<pdfrwt beam="2">  1       -2 0.11316980E+00 0.28265225E+04</pdfrwt>
<totfact> 0.13841254E+00</totfact>
</mgrwt>
</event>
<event>
 6    1  0.9562506E-007  0.9422089E+03  0.7818608E-02  0.9374304E-01
          1   -1    0    0  501    0  0.00000000000E+00  0.00000000000E+00  0.48208617030E+03  0.48208617030E+03  0.00000000000E+00 0. -1.
         -1   -1    0    0    0  501 -0.00000000000E+00 -0.00000000000E+00 -0.46037291236E+03  0.46037291236E+03  0.00000000000E+00 0.  1.
         23    2    1    2    0    0  0.14896038907E+03 -0.22188637185E+03  0.39429271597E+03  0.48394167616E+03  0.85498775085E+02 0.  0.
         11    1    3    3    0    0  0.10142710835E+03 -0.20448183311E+03  0.34189266299E+03  0.41108499290E+03  0.00000000000E+00 0. -1.
        -11    1    3    3    0    0  0.47533280717E+02 -0.17404538738E+02  0.52400052972E+02  0.72856683262E+02  0.00000000000E+00 0.  1.
         22    1    1    2    0    0 -0.14896038907E+03  0.22188637185E+03 -0.37257945802E+03  0.45851740650E+03  0.00000000000E+00 0.  1.
<mgrwt>
<rscale>  0 0.94220892E+03</rscale>
<asrwt>0</asrwt>
<pdfrwt beam="1">  1        1 0.74167103E-01 0.94220892E+03</pdfrwt>
<pdfrwt beam="2">  1       -1 0.70826602E-01 0.94220892E+03</pdfrwt>
<totfact> 0.94457240E+01</totfact>
</mgrwt>
</event>
<event>
 6    1  0.9562506E-007  0.2097813E+04  0.7818608E-02  0.8562208E-01
          1   -1    0    0  501    0  0.00000000000E+00  0.00000000000E+00  0.58616475802E+03  0.58616475802E+03  0.00000000000E+00 0. -1.
         -1   -1    0    0    0  501 -0.00000000000E+00 -0.00000000000E+00 -0.18769542748E+04  0.18769542748E+04  0.00000000000E+00 0.  1.
         23    2    1    2    0    0  0.62236487714E+03  0.84004540161E+03 -0.62378007631E+03  0.12229916560E+04  0.11658769227E+03 0.  0.
         13    1    3    3    0    0  0.48701352636E+03  0.72863817476E+03 -0.52942833193E+03  0.10239092358E+04  0.00000000000E+00 0. -1.
        -13    1    3    3    0    0  0.13535135079E+03  0.11140722685E+03 -0.94351744378E+02  0.19908242017E+03  0.00000000000E+00 0.  1.
         22    1    1    2    0    0 -0.62236487714E+03 -0.84004540161E+03 -0.66700944050E+03  0.12401273768E+04  0.00000000000E+00 0.  1.
<mgrwt>
<rscale>  0 0.20978126E+04</rscale>
<asrwt>0</asrwt>
<pdfrwt beam="1">  1        1 0.90179193E-01 0.20978126E+04</pdfrwt>
<pdfrwt beam="2">  1       -1 0.28876220E+00 0.20978126E+04</pdfrwt>
<totfact> 0.12729745E+00</totfact>
</mgrwt>
</event>
<event>
 6    1  0.9562506E-007  0.6101151E+03  0.7818608E-02  0.9884640E-01
          1   -1    0    0  501    0  0.00000000000E+00  0.00000000000E+00  0.61314002204E+03  0.61314002204E+03  0.00000000000E+00 0. -1.
         -1   -1    0    0    0  501 -0.00000000000E+00 -0.00000000000E+00 -0.15177630000E+03  0.15177630000E+03  0.00000000000E+00 0.  1.
         23    2    1    2    0    0 -0.11691771432E+03 -0.68787364356E+02  0.56910441746E+03  0.59168378795E+03  0.88365228127E+02 0.  0.
         13    1    3    3    0    0 -0.28456373024E+02 -0.64168141544E+02  0.31026459697E+03  0.31810601329E+03  0.00000000000E+00 0.  1.
        -13    1    3    3    0    0 -0.88461341298E+02 -0.46192228116E+01  0.25883982049E+03  0.27357777467E+03  0.00000000000E+00 0. -1.
         22    1    1    2    0    0  0.11691771432E+03  0.68787364356E+02 -0.10774069542E+03  0.17323253409E+03  0.00000000000E+00 0.  1.
<mgrwt>
<rscale>  0 0.61011515E+03</rscale>
<asrwt>0</asrwt>
<pdfrwt beam="1">  1        1 0.94329233E-01 0.61011515E+03</pdfrwt>
<pdfrwt beam="2">  1       -1 0.23350200E-01 0.61011515E+03</pdfrwt>
<totfact> 0.52768069E+02</totfact>
</mgrwt>
</event>
<event>
 6    1  0.9562506E-007  0.2043520E+04  0.7818608E-02  0.8586540E-01
         -2   -1    0    0    0  501 -0.00000000000E+00  0.00000000000E+00  0.55011067820E+03  0.55011067820E+03  0.00000000000E+00 0.  1.
          2   -1    0    0  501    0  0.00000000000E+00 -0.00000000000E+00 -0.18977884214E+04  0.18977884214E+04  0.00000000000E+00 0. -1.
         23    2    1    2    0    0 -0.88334786578E+03 -0.50062222086E+03 -0.78678119623E+03  0.12879288429E+04  0.93861566229E+02 0.  0.
         11    1    3    3    0    0 -0.41861564503E+03 -0.27606441958E+03 -0.42888225636E+03  0.65984135355E+03  0.00000000000E+00 0.  1.
        -11    1    3    3    0    0 -0.46473222075E+03 -0.22455780128E+03 -0.35789893987E+03  0.62808748935E+03  0.00000000000E+00 0. -1.
         22    1    1    2    0    0  0.88334786578E+03  0.50062222086E+03 -0.56089654695E+03  0.11599702567E+04  0.00000000000E+00 0.  1.
<mgrwt>
<rscale>  0 0.20435202E+04</rscale>
<asrwt>0</asrwt>
<pdfrwt beam="1">  1        2 0.29196745E+00 0.20435202E+04</pdfrwt>
<pdfrwt beam="2">  1       -2 0.84632411E-01 0.20435202E+04</pdfrwt>
<totfact> 0.85780914E+00</totfact>
</mgrwt>
</event>
<event>
 6    1  0.9562506E-007  0.2215843E+04  0.7818608E-02  0.8511863E-01
          1   -1    0    0  501    0  0.00000000000E+00  0.00000000000E+00  0.23300071201E+04  0.23300071201E+04  0.00000000000E+00 0. -1.
         -1   -1    0    0    0  501 -0.00000000000E+00 -0.00000000000E+00 -0.52681805048E+03  0.52681805048E+03  0.00000000000E+00 0.  1.
         23    2    1    2    0    0 -0.11903557034E+03 -0.33215016019E+03  0.22545801548E+04  0.22838966342E+04  0.92514676590E+02 0.  0.
         13    1    3    3    0    0 -0.63721226324E+02 -0.61943582563E+02  0.57092888212E+03  0.57780376474E+03  0.00000000000E+00 0. -1.
        -13    1    3    3    0    0 -0.55314344018E+02 -0.27020657763E+03  0.16836512727E+04  0.17060928695E+04  0.00000000000E+00 0.  1.
         22    1    1    2    0    0  0.11903557034E+03  0.33215016019E+03 -0.45139108523E+03  0.57292853633E+03  0.00000000000E+00 0.  1.
<mgrwt>
<rscale>  0 0.22158428E+04</rscale>
<asrwt>0</asrwt>
<pdfrwt beam="1">  1        1 0.35846263E+00 0.22158428E+04</pdfrwt>
<pdfrwt beam="2">  1       -1 0.81048932E-01 0.22158428E+04</pdfrwt>
<totfact> 0.24513982E+00</totfact>
</mgrwt>
</event>
<event>
 6    1  0.9562506E-007  0.1860257E+04  0.7818608E-02  0.8674896E-01
         -1   -1    0    0    0  501 -0.00000000000E+00  0.00000000000E+00  0.91797879674E+03  0.91797879674E+03  0.00000000000E+00 0.  1.
          1   -1    0    0  501    0  0.00000000000E+00 -0.00000000000E+00 -0.94243907866E+03  0.94243907866E+03  0.00000000000E+00 0. -1.
         23    2    1    2    0    0  0.33994114978E+03  0.86340942638E+03  0.15162349575E+02  0.93165214832E+03  0.81914624721E+02 0.  0.
         11    1    3    3    0    0  0.14234487105E+03  0.25907694621E+03 -0.17502101671E+01  0.29561121360E+03  0.00000000000E+00 0. -1.
        -11    1    3    3    0    0  0.19759627873E+03  0.60433248017E+03  0.16912559742E+02  0.63604093472E+03  0.00000000000E+00 0.  1.
         22    1    1    2    0    0 -0.33994114978E+03 -0.86340942638E+03 -0.39622631496E+02  0.92876572708E+03  0.00000000000E+00 0. -1.
<mgrwt>
<rscale>  0 0.18602571E+04</rscale>
<asrwt>0</asrwt>
<pdfrwt beam="1">  1        1 0.14499063E+00 0.18602571E+04</pdfrwt>
<pdfrwt beam="2">  1       -1 0.14122751E+00 0.18602571E+04</pdfrwt>
<totfact> 0.64648360E+00</totfact>
</mgrwt>
</event>
<event>
 6    1  0.9562506E-007  0.2794999E+04  0.7818608E-02  0.8304823E-01
         -1   -1    0    0    0  501 -0.00000000000E+00  0.00000000000E+00  0.12947536190E+04  0.12947536190E+04  0.00000000000E+00 0.  1.
          1   -1    0    0  501    0  0.00000000000E+00 -0.00000000000E+00 -0.15083992456E+04  0.15083992456E+04  0.00000000000E+00 0. -1.
         23    2    1    2    0    0  0.11203219440E+04  0.33187089499E+03 -0.87306284734E+03  0.14614783064E+04  0.91763584680E+02 0.  0.
         11    1    3    3    0    0  0.25939772742E+03  0.38313060261E+02 -0.20758056312E+03  0.33443199871E+03  0.00000000000E+00 0. -1.
        -11    1    3    3    0    0  0.86092421663E+03  0.29355783473E+03 -0.66548228422E+03  0.11270463077E+04  0.00000000000E+00 0.  1.
         22    1    1    2    0    0 -0.11203219440E+04 -0.33187089499E+03  0.65941722074E+03  0.13416745583E+04  0.00000000000E+00 0.  1.
<mgrwt>
<rscale>  0 0.27949994E+04</rscale>
<asrwt>0</asrwt>
<pdfrwt beam="1">  1        1 0.23206142E+00 0.27949994E+04</pdfrwt>
<pdfrwt beam="2">  1       -1 0.19919286E+00 0.27949994E+04</pdfrwt>
<totfact> 0.85226684E-01</totfact>
</mgrwt>
</event>
<event>
 6    1  0.9562506E-007  0.3889400E+04  0.7818608E-02  0.8027237E-01
         -2   -1    0    0    0  501 -0.00000000000E+00  0.00000000000E+00  0.19052419698E+04  0.19052419698E+04  0.00000000000E+00 0.  1.
          2   -1    0    0  501    0  0.00000000000E+00 -0.00000000000E+00 -0.19849756140E+04  0.19849756140E+04  0.00000000000E+00 0. -1.
         23    2    1    2    0    0 -0.14636817967E+04 -0.71558169449E+03 -0.10998654144E+04  0.19679557931E+04  0.93405087147E+02 0.  0.
         13    1    3    3    0    0 -0.86244089666E+03 -0.43196409877E+03 -0.70501921234E+03  0.11947591275E+04  0.00000000000E+00 0. -1.
        -13    1    3    3    0    0 -0.60124090005E+03 -0.28361759571E+03 -0.39484620206E+03  0.77319666565E+03  0.00000000000E+00 0.  1.
         22    1    1    2    0    0  0.14636817967E+04  0.71558169449E+03  0.10201317702E+04  0.19222617907E+04  0.00000000000E+00 0.  1.
<mgrwt>
<rscale>  0 0.38894004E+04</rscale>
<asrwt>0</asrwt>
<pdfrwt beam="1">  1        2 0.30538086E+00 0.38894004E+04</pdfrwt>
<pdfrwt beam="2">  1       -2 0.29311415E+00 0.38894004E+04</pdfrwt>
<totfact> 0.18986800E-01</totfact>
</mgrwt>
</event>
<event>
 6    1  0.9562506E-007  0.2538228E+04  0.7818608E-02  0.8389492E-01
          1   -1    0    0  501    0  0.00000000000E+00  0.00000000000E+00  0.18208620954E+04  0.18208620954E+04  0.00000000000E+00 0. -1.
         -1   -1    0    0    0  501 -0.00000000000E+00 -0.00000000000E+00 -0.88455373364E+03  0.88455373364E+03  0.00000000000E+00 0.  1.
         23    2    1    2    0    0 -0.11071646365E+04 -0.40447917728E+03  0.96531684950E+03  0.15263236233E+04  0.91707393334E+02 0.  0.
         11    1    3    3    0    0 -0.49701462800E+03 -0.21701971103E+03  0.48395387914E+03  0.72686481037E+03  0.00000000000E+00 0.  1.
        -11    1    3    3    0    0 -0.61015000850E+03 -0.18745946626E+03  0.48136297035E+03  0.79945881294E+03  0.00000000000E+00 0. -1.
         22    1    1    2    0    0  0.11071646365E+04  0.40447917728E+03 -0.29008487767E+02  0.11790922057E+04  0.00000000000E+00 0.  1.
<mgrwt>
<rscale>  0 0.25382280E+04</rscale>
<asrwt>0</asrwt>
<pdfrwt beam="1">  1        1 0.28013263E+00 0.25382280E+04</pdfrwt>
<pdfrwt beam="2">  1       -1 0.13608519E+00 0.25382280E+04</pdfrwt>
<totfact> 0.15754442E+00</totfact>
</mgrwt>
</event>
<event>
 6    1  0.9562506E-007  0.2686253E+04  0.7818608E-02  0.8339479E-01
          2   -1    0    0  501    0  0.00000000000E+00  0.00000000000E+00  0.31575679926E+04  0.31575679926E+04  0.00000000000E+00 0. -1.
         -2   -1    0    0    0  501 -0.00000000000E+00 -0.00000000000E+00 -0.57132210172E+03  0.57132210172E+03  0.00000000000E+00 0.  1.
         23    2    1    2    0    0  0.10033098297E+03  0.85563182245E+03 -0.13373268678E+03  0.87574173074E+03  0.82867519003E+02 0.  0.
         13    1    3    3    0    0  0.46361145261E+02  0.68029250141E+03 -0.11186699327E+03  0.69098586631E+03  0.00000000000E+00 0. -1.
        -13    1    3    3    0    0  0.53969837708E+02  0.17533932104E+03 -0.21865693511E+02  0.18475586443E+03  0.00000000000E+00 0.  1.
         22    1    1    2    0    0 -0.10033098297E+03 -0.85563182245E+03  0.27199785776E+04  0.28531483635E+04  0.00000000000E+00 0. -1.
<mgrwt>
<rscale>  0 0.26862527E+04</rscale>
<asrwt>0</asrwt>
<pdfrwt beam="1">  1        2 0.48577968E+00 0.26862527E+04</pdfrwt>
<pdfrwt beam="2">  1       -2 0.87895710E-01 0.26862527E+04</pdfrwt>
<totfact> 0.13541701E+00</totfact>
</mgrwt>
</event>
<event>
 6    1  0.9562506E-007  0.9237982E+03  0.7818608E-02  0.9396312E-01
          1   -1    0    0  501    0  0.00000000000E+00  0.00000000000E+00  0.20256905704E+04  0.20256905704E+04  0.00000000000E+00 0. -1.
         -1   -1    0    0    0  501 -0.00000000000E+00 -0.00000000000E+00 -0.10532248633E+03  0.10532248633E+03  0.00000000000E+00 0.  1.
         23    2    1    2    0    0 -0.27751763447E+03 -0.27460405335E+03  0.41997638127E+03  0.58065868259E+03  0.91438073505E+02 0.  0.
         11    1    3    3    0    0 -0.10901929490E+03 -0.66071310021E+02  0.92861572377E+02  0.15771460393E+03  0.00000000000E+00 0. -1.
        -11    1    3    3    0    0 -0.16849833957E+03 -0.20853274333E+03  0.32711480889E+03  0.42294407866E+03  0.00000000000E+00 0.  1.
         22    1    1    2    0    0  0.27751763447E+03  0.27460405335E+03  0.15003917028E+04  0.15503543741E+04  0.00000000000E+00 0. -1.
<mgrwt>
<rscale>  0 0.92379818E+03</rscale>
<asrwt>0</asrwt>
<pdfrwt beam="1">  1        1 0.31164467E+00 0.92379818E+03</pdfrwt>
<pdfrwt beam="2">  1       -1 0.16203461E-01 0.92379818E+03</pdfrwt>
<totfact> 0.84208098E+01</totfact>
</mgrwt>
</event>
<event>
 6    1  0.9562506E-007  0.2637049E+04  0.7818608E-02  0.8355724E-01
          2   -1    0    0  501    0  0.00000000000E+00  0.00000000000E+00  0.12983273614E+04  0.12983273614E+04  0.00000000000E+00 0. -1.
         -2   -1    0    0    0  501 -0.00000000000E+00 -0.00000000000E+00 -0.13390355593E+04  0.13390355593E+04  0.00000000000E+00 0.  1.
         23    2    1    2    0    0  0.38659139318E+02 -0.47015330189E+03  0.12092829558E+04  0.13013178089E+04  0.92326141572E+02 0.  0.
         13    1    3    3    0    0  0.33068250789E+02 -0.38559832763E+03  0.10748912457E+04  0.11424407073E+04  0.00000000000E+00 0.  1.
        -13    1    3    3    0    0  0.55908885291E+01 -0.84554974266E+02  0.13439171002E+03  0.15887710165E+03  0.00000000000E+00 0. -1.
         22    1    1    2    0    0 -0.38659139318E+02  0.47015330189E+03 -0.12499911537E+04  0.13360451117E+04  0.00000000000E+00 0.  1.
<mgrwt>
<rscale>  0 0.26370487E+04</rscale>
<asrwt>0</asrwt>
<pdfrwt beam="1">  1        2 0.19974267E+00 0.26370487E+04</pdfrwt>
<pdfrwt beam="2">  1       -2 0.20600547E+00 0.26370487E+04</pdfrwt>
<totfact> 0.17756048E+00</totfact>
</mgrwt>
</event>
<event>
 6    1  0.1482622E-006  0.2725856E+04  0.7818608E-02  0.8326664E-01
         -1   -1    0    0    0  501 -0.00000000000E+00  0.00000000000E+00  0.10426559611E+04  0.10426559611E+04  0.00000000000E+00 0.  1.
          1   -1    0    0  501    0  0.00000000000E+00 -0.00000000000E+00 -0.17815777681E+04  0.17815777681E+04  0.00000000000E+00 0. -1.
         23    2    1    2    0    0 -0.71055445375E+03 -0.26945232243E+03 -0.15402300815E+04  0.17198845378E+04  0.90564527020E+02 0.  0.
         13    1    3    3    0    0 -0.42411402526E+03 -0.18269282486E+03 -0.84454375064E+03  0.96255052929E+03  0.00000000000E+00 0.  1.
        -13    1    3    3    0    0 -0.28644042848E+03 -0.86759497566E+02 -0.69568633082E+03  0.75733400847E+03  0.00000000000E+00 0. -1.
         22    1    1    2    0    0  0.71055445375E+03  0.26945232243E+03  0.80130827446E+03  0.11043491914E+04  0.00000000000E+00 0.  1.
<mgrwt>
<rscale>  0 0.27258560E+04</rscale>
<asrwt>0</asrwt>
<pdfrwt beam="1">  1        1 0.27408888E+00 0.27258560E+04</pdfrwt>
<pdfrwt beam="2">  1       -1 0.16040861E+00 0.27258560E+04</pdfrwt>
<totfact> 0.10600529E+00</totfact>
</mgrwt>
</event>
<event>
 6    1  0.9562506E-007  0.1655866E+04  0.7818608E-02  0.8786944E-01
          3   -1    0    0  501    0  0.00000000000E+00  0.00000000000E+00  0.13760467110E+04  0.13760467110E+04  0.00000000000E+00 0. -1.
         -3   -1    0    0    0  501 -0.00000000000E+00 -0.00000000000E+00 -0.49814667576E+03  0.49814667576E+03  0.00000000000E+00 0.  1.
         23    2    1    2    0    0 -0.42354581785E+03  0.49044711788E+03  0.10189484245E+04  0.12110010441E+04  0.91313754287E+02 0.  0.
         11    1    3    3    0    0 -0.71582697827E+01  0.37426461007E+02  0.76626637379E+02  0.85578165240E+02  0.00000000000E+00 0. -1.
        -11    1    3    3    0    0 -0.41638754807E+03  0.45302065687E+03  0.94232178714E+03  0.11254228789E+04  0.00000000000E+00 0.  1.
         22    1    1    2    0    0  0.42354581785E+03 -0.49044711788E+03 -0.14104838928E+03  0.66319234267E+03  0.00000000000E+00 0.  1.
<mgrwt>
<rscale>  0 0.16558661E+04</rscale>
<asrwt>0</asrwt>
<pdfrwt beam="1">  1        3 0.21169949E+00 0.16558661E+04</pdfrwt>
<pdfrwt beam="2">  1       -3 0.76637951E-01 0.16558661E+04</pdfrwt>
<totfact> 0.49828679E-01</totfact>
</mgrwt>
</event>
<event>
 6    1  0.9562506E-007  0.6369218E+03  0.7818608E-02  0.9831634E-01
         -1   -1    0    0    0  501 -0.00000000000E+00  0.00000000000E+00  0.14622291933E+03  0.14622291933E+03  0.00000000000E+00 0.  1.
          1   -1    0    0  501    0  0.00000000000E+00 -0.00000000000E+00 -0.69358033659E+03  0.69358033659E+03  0.00000000000E+00 0. -1.
         23    2    1    2    0    0  0.84481734015E+02 -0.20776250156E+03 -0.56440711937E+03  0.61487412757E+03  0.95981122767E+02 0.  0.
         11    1    3    3    0    0  0.14050444904E+02 -0.14341525088E+03 -0.39481902655E+03  0.42029443597E+03  0.00000000000E+00 0.  1.
        -11    1    3    3    0    0  0.70431289111E+02 -0.64347250682E+02 -0.16958809282E+03  0.19457969160E+03  0.00000000000E+00 0. -1.
         22    1    1    2    0    0 -0.84481734015E+02  0.20776250156E+03  0.17049702114E+02  0.22492912835E+03  0.00000000000E+00 0.  1.
<mgrwt>
<rscale>  0 0.63692179E+03</rscale>
<asrwt>0</asrwt>
<pdfrwt beam="1">  1        1 0.10670467E+00 0.63692179E+03</pdfrwt>
<pdfrwt beam="2">  1       -1 0.22495834E-01 0.63692179E+03</pdfrwt>
<totfact> 0.46835861E+02</totfact>
</mgrwt>
</event>
<event>
 6    1  0.9562506E-007  0.2234924E+04  0.7818608E-02  0.8504031E-01
         -2   -1    0    0    0  501 -0.00000000000E+00  0.00000000000E+00  0.48215188594E+03  0.48215188594E+03  0.00000000000E+00 0.  1.
          2   -1    0    0  501    0  0.00000000000E+00 -0.00000000000E+00 -0.25898921384E+04  0.25898921384E+04  0.00000000000E+00 0. -1.
         23    2    1    2    0    0  0.45031484542E+03  0.60746423901E+03 -0.21830962635E+04  0.23121264038E+04  0.90680480719E+02 0.  0.
         13    1    3    3    0    0  0.26322506893E+03  0.41284550136E+03 -0.14858669537E+04  0.15644581966E+04  0.00000000000E+00 0. -1.
        -13    1    3    3    0    0  0.18708977650E+03  0.19461873765E+03 -0.69722930986E+03  0.74766820719E+03  0.00000000000E+00 0.  1.
         22    1    1    2    0    0 -0.45031484542E+03 -0.60746423901E+03  0.75356011035E+02  0.75991762059E+03  0.00000000000E+00 0.  1.
<mgrwt>
<rscale>  0 0.22349241E+04</rscale>
<asrwt>0</asrwt>
<pdfrwt beam="1">  1        2 0.39844494E+00 0.22349241E+04</pdfrwt>
<pdfrwt beam="2">  1       -2 0.74177214E-01 0.22349241E+04</pdfrwt>
<totfact> 0.46018919E+00</totfact>
</mgrwt>
</event>
<event>
 6    1  0.1226464E-006  0.4319193E+04  0.7818608E-02  0.7943079E-01
          2   -1    0    0  501    0  0.00000000000E+00  0.00000000000E+00  0.21379542271E+04  0.21379542271E+04  0.00000000000E+00 0. -1.
         -2   -1    0    0    0  501 -0.00000000000E+00 -0.00000000000E+00 -0.21814574215E+04  0.21814574215E+04  0.00000000000E+00 0.  1.
         23    2    1    2    0    0 -0.70515709776E+03  0.12820938422E+04  0.15655036610E+04  0.21445750540E+04  0.85961021594E+02 0.  0.
         13    1    3    3    0    0 -0.97302393129E+02  0.21929913444E+03  0.22186096243E+03  0.32677538574E+03  0.00000000000E+00 0. -1.
        -13    1    3    3    0    0 -0.60785470463E+03  0.10627947078E+04  0.13436426985E+04  0.18177996683E+04  0.00000000000E+00 0.  1.
         22    1    1    2    0    0  0.70515709776E+03 -0.12820938422E+04 -0.16090068553E+04  0.21748365946E+04  0.00000000000E+00 0.  1.
<mgrwt>
<rscale>  0 0.43191926E+04</rscale>
<asrwt>0</asrwt>
<pdfrwt beam="1">  1        2 0.32891604E+00 0.43191926E+04</pdfrwt>
<pdfrwt beam="2">  1       -2 0.33560883E+00 0.43191926E+04</pdfrwt>
<totfact> 0.82394481E-02</totfact>
</mgrwt>
</event>
<event>
 6    1  0.9562506E-007  0.3151332E+04  0.7818608E-02  0.8201790E-01
          2   -1    0    0  501    0  0.00000000000E+00  0.00000000000E+00  0.44632562848E+04  0.44632562848E+04  0.00000000000E+00 0. -1.
         -2   -1    0    0    0  501 -0.00000000000E+00 -0.00000000000E+00 -0.55625824885E+03  0.55625824885E+03  0.00000000000E+00 0.  1.
         23    2    1    2    0    0 -0.13633039342E+04 -0.39233130692E+03  0.30424530126E+04  0.33582019295E+04  0.92078194549E+02 0.  0.
         13    1    3    3    0    0 -0.72842332432E+03 -0.17900957057E+03  0.16905078991E+04  0.18494490863E+04  0.00000000000E+00 0.  1.
        -13    1    3    3    0    0 -0.63488060986E+03 -0.21332173635E+03  0.13519451135E+04  0.15087528432E+04  0.00000000000E+00 0. -1.
         22    1    1    2    0    0  0.13633039342E+04  0.39233130692E+03  0.86454502330E+03  0.16613126041E+04  0.00000000000E+00 0.  1.
<mgrwt>
<rscale>  0 0.31513319E+04</rscale>
<asrwt>0</asrwt>
<pdfrwt beam="1">  1        2 0.68665479E+00 0.31513319E+04</pdfrwt>
<pdfrwt beam="2">  1       -2 0.85578195E-01 0.31513319E+04</pdfrwt>
<totfact> 0.13373349E-01</totfact>
</mgrwt>
</event>
<event>
 6    1  0.9562506E-007  0.1737502E+04  0.7818608E-02  0.8740260E-01
          2   -1    0    0  501    0  0.00000000000E+00  0.00000000000E+00  0.27345159751E+04  0.27345159751E+04  0.00000000000E+00 0. -1.
         -2   -1    0    0    0  501 -0.00000000000E+00 -0.00000000000E+00 -0.27600084763E+03  0.27600084763E+03  0.00000000000E+00 0.  1.
         23    2    1    2    0    0 -0.53867338692E+03 -0.24049613566E+03  0.23319855363E+04  0.24071784877E+04  0.91347256882E+02 0.  0.
         13    1    3    3    0    0 -0.45203656450E+03 -0.16383046060E+03  0.19158107238E+04  0.19752235835E+04  0.00000000000E+00 0. -1.
        -13    1    3    3    0    0 -0.86636822427E+02 -0.76665675053E+02  0.41617481248E+03  0.43195490421E+03  0.00000000000E+00 0.  1.
         22    1    1    2    0    0  0.53867338692E+03  0.24049613566E+03  0.12652959121E+03  0.60333833501E+03  0.00000000000E+00 0.  1.
<mgrwt>
<rscale>  0 0.17375025E+04</rscale>
<asrwt>0</asrwt>
<pdfrwt beam="1">  1        2 0.42069475E+00 0.17375025E+04</pdfrwt>
<pdfrwt beam="2">  1       -2 0.42461671E-01 0.17375025E+04</pdfrwt>
<totfact> 0.12664875E+01</totfact>
</mgrwt>
</event>
<event>
 6    1  0.1124454E-006  0.3139936E+04  0.7818608E-02  0.8204862E-01
          2   -1    0    0  501    0  0.00000000000E+00  0.00000000000E+00  0.21866182262E+04  0.21866182262E+04  0.00000000000E+00 0. -1.
         -2   -1    0    0    0  501 -0.00000000000E+00 -0.00000000000E+00 -0.11272200075E+04  0.11272200075E+04  0.00000000000E+00 0.  1.
         23    2    1    2    0    0 -0.66820612666E+03  0.13437361403E+04  0.10123980663E+04  0.18123938435E+04  0.87723183589E+02 0.  0.
         11    1    3    3    0    0 -0.52497878910E+03  0.11233016826E+04  0.81791389369E+03  0.14853930579E+04  0.00000000000E+00 0. -1.
        -11    1    3    3    0    0 -0.14322733756E+03  0.22043445773E+03  0.19448417262E+03  0.32700078560E+03  0.00000000000E+00 0.  1.
         22    1    1    2    0    0  0.66820612666E+03 -0.13437361403E+04  0.47000152356E+02  0.15014443902E+04  0.00000000000E+00 0.  1.
<mgrwt>
<rscale>  0 0.31399362E+04</rscale>
<asrwt>0</asrwt>
<pdfrwt beam="1">  1        2 0.33640280E+00 0.31399362E+04</pdfrwt>
<pdfrwt beam="2">  1       -2 0.17341846E+00 0.31399362E+04</pdfrwt>
<totfact> 0.89628941E-01</totfact>
</mgrwt>
</event>
<event>
 6    1  0.9562506E-007  0.5065251E+03  0.7818608E-02  0.1012090E+00
          1   -1    0    0  501    0  0.00000000000E+00  0.00000000000E+00  0.11696623623E+04  0.11696623623E+04  0.00000000000E+00 0. -1.
         -1   -1    0    0    0  501 -0.00000000000E+00 -0.00000000000E+00 -0.54837970206E+02  0.54837970206E+02  0.00000000000E+00 0.  1.
         23    2    1    2    0    0  0.11987605719E+03 -0.12586005695E+03  0.99297106024E+03  0.10122286728E+04  0.91675168641E+02 0.  0.
         11    1    3    3    0    0  0.26653374242E+00 -0.18819925829E+02  0.31316339220E+03  0.31372849864E+03  0.00000000000E+00 0. -1.
        -11    1    3    3    0    0  0.11960952345E+03 -0.10704013112E+03  0.67980766804E+03  0.69850017416E+03  0.00000000000E+00 0.  1.
         22    1    1    2    0    0 -0.11987605719E+03  0.12586005695E+03  0.12185333183E+03  0.21227165967E+03  0.00000000000E+00 0.  1.
<mgrwt>
<rscale>  0 0.50652506E+03</rscale>
<asrwt>0</asrwt>
<pdfrwt beam="1">  1        1 0.17994804E+00 0.50652506E+03</pdfrwt>
<pdfrwt beam="2">  1       -1 0.84366117E-02 0.50652506E+03</pdfrwt>
<totfact> 0.94575968E+02</totfact>
</mgrwt>
</event>
<event>
 6    1  0.9562506E-007  0.2664365E+04  0.7818608E-02  0.8346661E-01
          1   -1    0    0  501    0  0.00000000000E+00  0.00000000000E+00  0.13775820256E+04  0.13775820256E+04  0.00000000000E+00 0. -1.
         -1   -1    0    0    0  501 -0.00000000000E+00 -0.00000000000E+00 -0.12882790357E+04  0.12882790357E+04  0.00000000000E+00 0.  1.
         23    2    1    2    0    0 -0.12230324318E+04  0.52377921432E+03  0.46913922557E+02  0.13347150034E+04  0.95447522321E+02 0.  0.
         13    1    3    3    0    0 -0.40064382928E+03  0.18676023968E+03  0.58392203882E+02  0.44587499878E+03  0.00000000000E+00 0.  1.
        -13    1    3    3    0    0 -0.82238860250E+03  0.33701897464E+03 -0.11478281325E+02  0.88884000457E+03  0.00000000000E+00 0. -1.
         22    1    1    2    0    0  0.12230324318E+04 -0.52377921432E+03  0.42389067357E+02  0.13311460579E+04  0.00000000000E+00 0.  1.
<mgrwt>
<rscale>  0 0.26643649E+04</rscale>
<asrwt>0</asrwt>
<pdfrwt beam="1">  1        1 0.21193570E+00 0.26643649E+04</pdfrwt>
<pdfrwt beam="2">  1       -1 0.19819677E+00 0.26643649E+04</pdfrwt>
<totfact> 0.10808845E+00</totfact>
</mgrwt>
</event>
<event>
 6    1  0.9562506E-007  0.2976936E+04  0.7818608E-02  0.8250348E-01
          1   -1    0    0  501    0  0.00000000000E+00  0.00000000000E+00  0.21356775436E+04  0.21356775436E+04  0.00000000000E+00 0. -1.
         -1   -1    0    0    0  501 -0.00000000000E+00 -0.00000000000E+00 -0.10373931157E+04  0.10373931157E+04  0.00000000000E+00 0.  1.
         23    2    1    2    0    0 -0.11364953316E+04  0.43136985715E+03 -0.36331031873E+03  0.12720286303E+04  0.91437716730E+02 0.  0.
         13    1    3    3    0    0 -0.62353075561E+03  0.23964068659E+03 -0.15215759110E+03  0.68510597311E+03  0.00000000000E+00 0. -1.
        -13    1    3    3    0    0 -0.51296457602E+03  0.19172917056E+03 -0.21115272763E+03  0.58692265716E+03  0.00000000000E+00 0.  1.
         22    1    1    2    0    0  0.11364953316E+04 -0.43136985715E+03  0.14615947467E+04  0.19010420290E+04  0.00000000000E+00 0. -1.
<mgrwt>
<rscale>  0 0.29769361E+04</rscale>
<asrwt>0</asrwt>
<pdfrwt beam="1">  1        1 0.32856577E+00 0.29769361E+04</pdfrwt>
<pdfrwt beam="2">  1       -1 0.15959894E+00 0.29769361E+04</pdfrwt>
<totfact> 0.60471475E-01</totfact>
</mgrwt>
</event>
<event>
 6    1  0.9562506E-007  0.4044253E+04  0.7818608E-02  0.7995678E-01
         -2   -1    0    0    0  501 -0.00000000000E+00  0.00000000000E+00  0.12503982762E+04  0.12503982762E+04  0.00000000000E+00 0.  1.
          2   -1    0    0  501    0  0.00000000000E+00 -0.00000000000E+00 -0.32701550818E+04  0.32701550818E+04  0.00000000000E+00 0. -1.
         23    2    1    2    0    0  0.13995592062E+04 -0.14151084833E+04 -0.61777179237E+03  0.20860390393E+04  0.92838005080E+02 0.  0.
         11    1    3    3    0    0  0.11905676047E+04 -0.11790053733E+04 -0.55004510903E+03  0.17635346647E+04  0.00000000000E+00 0. -1.
        -11    1    3    3    0    0  0.20899160141E+03 -0.23610310995E+03 -0.67726683339E+02  0.32250437459E+03  0.00000000000E+00 0.  1.
         22    1    1    2    0    0 -0.13995592062E+04  0.14151084833E+04 -0.14019850132E+04  0.24345143188E+04  0.00000000000E+00 0. -1.
<mgrwt>
<rscale>  0 0.40442533E+04</rscale>
<asrwt>0</asrwt>
<pdfrwt beam="1">  1        2 0.50310078E+00 0.40442533E+04</pdfrwt>
<pdfrwt beam="2">  1       -2 0.19236897E+00 0.40442533E+04</pdfrwt>
<totfact> 0.13680527E-01</totfact>
</mgrwt>
</event>
<event>
 6    1  0.9562506E-007  0.1180728E+04  0.7818608E-02  0.9129895E-01
         -1   -1    0    0    0  501 -0.00000000000E+00  0.00000000000E+00  0.33943514492E+03  0.33943514492E+03  0.00000000000E+00 0.  1.
          1   -1    0    0  501    0  0.00000000000E+00 -0.00000000000E+00 -0.10267923680E+04  0.10267923680E+04  0.00000000000E+00 0. -1.
         23    2    1    2    0    0  0.11607716957E+03 -0.16439836546E+03 -0.98381188754E+03  0.10079174517E+04  0.86666184677E+02 0.  0.
         11    1    3    3    0    0  0.11608343214E+03 -0.12296632652E+03 -0.88079110105E+03  0.89687738535E+03  0.00000000000E+00 0.  1.
        -11    1    3    3    0    0 -0.62625786032E-02 -0.41432038940E+02 -0.10302078649E+03  0.11104006637E+03  0.00000000000E+00 0. -1.
         22    1    1    2    0    0 -0.11607716957E+03  0.16439836546E+03  0.29645466447E+03  0.35831006119E+03  0.00000000000E+00 0.  1.
<mgrwt>
<rscale>  0 0.11807276E+04</rscale>
<asrwt>0</asrwt>
<pdfrwt beam="1">  1        1 0.15796806E+00 0.11807276E+04</pdfrwt>
<pdfrwt beam="2">  1       -1 0.52220792E-01 0.11807276E+04</pdfrwt>
<totfact> 0.52775202E+01</totfact>
</mgrwt>
</event>
<event>
 6    1  0.9562506E-007  0.1825941E+04  0.7818608E-02  0.8692625E-01
          1   -1    0    0  501    0  0.00000000000E+00  0.00000000000E+00  0.80476010543E+03  0.80476010543E+03  0.00000000000E+00 0. -1.
         -1   -1    0    0    0  501 -0.00000000000E+00 -0.00000000000E+00 -0.10357312444E+04  0.10357312444E+04  0.00000000000E+00 0.  1.
         23    2    1    2    0    0 -0.83252106101E+03 -0.25053964721E+02  0.25509172947E+03  0.87613864972E+03  0.93958101997E+02 0.  0.
         11    1    3    3    0    0 -0.79238473929E+03 -0.19161909484E+02  0.22021123763E+03  0.82263828200E+03  0.00000000000E+00 0. -1.
        -11    1    3    3    0    0 -0.40136321721E+02 -0.58920552370E+01  0.34880491838E+02  0.53500367728E+02  0.00000000000E+00 0.  1.
         22    1    1    2    0    0  0.83252106101E+03  0.25053964721E+02 -0.48606286847E+03  0.96435270014E+03  0.00000000000E+00 0.  1.
<mgrwt>
<rscale>  0 0.18259411E+04</rscale>
<asrwt>0</asrwt>
<pdfrwt beam="1">  1        1 0.12380925E+00 0.18259411E+04</pdfrwt>
<pdfrwt beam="2">  1       -1 0.15934327E+00 0.18259411E+04</pdfrwt>
<totfact> 0.60953415E+00</totfact>
</mgrwt>
</event>
<event>
 6    1  0.9562506E-007  0.1269146E+04  0.7818608E-02  0.9054397E-01
          2   -1    0    0  501    0  0.00000000000E+00  0.00000000000E+00  0.82939852303E+03  0.82939852303E+03  0.00000000000E+00 0. -1.
         -2   -1    0    0    0  501 -0.00000000000E+00 -0.00000000000E+00 -0.48551197193E+03  0.48551197193E+03  0.00000000000E+00 0.  1.
         23    2    1    2    0    0 -0.21363249434E+03  0.55070845453E+03  0.40405066637E+03  0.72116108207E+03  0.88869121590E+02 0.  0.
         13    1    3    3    0    0 -0.36582816169E+02  0.16548123462E+03  0.15372930453E+03  0.22881223857E+03  0.00000000000E+00 0. -1.
        -13    1    3    3    0    0 -0.17704967817E+03  0.38522721991E+03  0.25032136184E+03  0.49234884350E+03  0.00000000000E+00 0.  1.
         22    1    1    2    0    0  0.21363249434E+03 -0.55070845453E+03 -0.60164115273E+02  0.59374941288E+03  0.00000000000E+00 0.  1.
<mgrwt>
<rscale>  0 0.12691460E+04</rscale>
<asrwt>0</asrwt>
<pdfrwt beam="1">  1        2 0.12759977E+00 0.12691460E+04</pdfrwt>
<pdfrwt beam="2">  1       -2 0.74694150E-01 0.12691460E+04</pdfrwt>
<totfact> 0.51960502E+01</totfact>
</mgrwt>
</event>
<event>
 6    1  0.9562506E-007  0.1755245E+04  0.7818608E-02  0.8730469E-01
          2   -1    0    0  501    0  0.00000000000E+00  0.00000000000E+00  0.50317868539E+03  0.50317868539E+03  0.00000000000E+00 0. -1.
         -2   -1    0    0    0  501 -0.00000000000E+00 -0.00000000000E+00 -0.15307105287E+04  0.15307105287E+04  0.00000000000E+00 0.  1.
         23    2    1    2    0    0  0.57381270598E+03 -0.61939660098E+03 -0.78251158347E+03  0.11547145451E+04  0.90156150625E+02 0.  0.
         13    1    3    3    0    0  0.30611146364E+03 -0.26422732596E+03 -0.37020363595E+03  0.54824359552E+03  0.00000000000E+00 0. -1.
        -13    1    3    3    0    0  0.26770124233E+03 -0.35516927502E+03 -0.41230794753E+03  0.60647094956E+03  0.00000000000E+00 0.  1.
         22    1    1    2    0    0 -0.57381270598E+03  0.61939660098E+03 -0.24502025980E+03  0.87917466897E+03  0.00000000000E+00 0. -1.
<mgrwt>
<rscale>  0 0.17552446E+04</rscale>
<asrwt>0</asrwt>
<pdfrwt beam="1">  1        2 0.77412108E-01 0.17552446E+04</pdfrwt>
<pdfrwt beam="2">  1       -2 0.23549392E+00 0.17552446E+04</pdfrwt>
<totfact> 0.45736017E+00</totfact>
</mgrwt>
</event>
<event>
 6    1  0.9562506E-007  0.5002353E+04  0.7818608E-02  0.7828144E-01
          2   -1    0    0  501    0  0.00000000000E+00  0.00000000000E+00  0.27411292190E+04  0.27411292190E+04  0.00000000000E+00 0. -1.
         -2   -1    0    0    0  501 -0.00000000000E+00 -0.00000000000E+00 -0.22822289408E+04  0.22822289408E+04  0.00000000000E+00 0.  1.
         23    2    1    2    0    0 -0.42118356299E+02 -0.11033689621E+04 -0.20232304147E+04  0.23067113666E+04  0.90879014306E+02 0.  0.
         13    1    3    3    0    0  0.28662653116E+02 -0.33404303725E+03 -0.60126274885E+03  0.68842079542E+03  0.00000000000E+00 0.  1.
        -13    1    3    3    0    0 -0.70781009415E+02 -0.76932592489E+03 -0.14219676658E+04  0.16182905711E+04  0.00000000000E+00 0. -1.
         22    1    1    2    0    0  0.42118356299E+02  0.11033689621E+04  0.24821306928E+04  0.27166467932E+04  0.00000000000E+00 0. -1.
<mgrwt>
<rscale>  0 0.50023532E+04</rscale>
<asrwt>0</asrwt>
<pdfrwt beam="1">  1        2 0.42171219E+00 0.50023532E+04</pdfrwt>
<pdfrwt beam="2">  1       -2 0.35111214E+00 0.50023532E+04</pdfrwt>
<totfact> 0.27960395E-02</totfact>
</mgrwt>
</event>
<event>
 6    1  0.9562506E-007  0.2442013E+04  0.7818608E-02  0.8423940E-01
          1   -1    0    0  501    0  0.00000000000E+00  0.00000000000E+00  0.31075691020E+04  0.31075691020E+04  0.00000000000E+00 0. -1.
         -1   -1    0    0    0  501 -0.00000000000E+00 -0.00000000000E+00 -0.47975034435E+03  0.47975034435E+03  0.00000000000E+00 0.  1.
         23    2    1    2    0    0  0.92832065931E+03  0.55423389677E+03  0.48760453202E+03  0.11895139099E+04  0.90723224429E+02 0.  0.
         11    1    3    3    0    0  0.37138888989E+03  0.21653267914E+03  0.14578237624E+03  0.45394780525E+03  0.00000000000E+00 0. -1.
        -11    1    3    3    0    0  0.55693176942E+03  0.33770121764E+03  0.34182215579E+03  0.73556610469E+03  0.00000000000E+00 0.  1.
         22    1    1    2    0    0 -0.92832065931E+03 -0.55423389677E+03  0.21402142256E+04  0.23978055364E+04  0.00000000000E+00 0. -1.
<mgrwt>
<rscale>  0 0.24420134E+04</rscale>
<asrwt>0</asrwt>
<pdfrwt beam="1">  1        1 0.47808754E+00 0.24420134E+04</pdfrwt>
<pdfrwt beam="2">  1       -1 0.73807747E-01 0.24420134E+04</pdfrwt>
<totfact> 0.82263976E-01</totfact>
</mgrwt>
</event>
<event>
 6    1  0.9562506E-007  0.4833084E+04  0.7818608E-02  0.7854784E-01
          2   -1    0    0  501    0  0.00000000000E+00  0.00000000000E+00  0.31189236569E+04  0.31189236569E+04  0.00000000000E+00 0. -1.
         -2   -1    0    0    0  501 -0.00000000000E+00 -0.00000000000E+00 -0.18723363986E+04  0.18723363986E+04  0.00000000000E+00 0.  1.
         23    2    1    2    0    0  0.24475854242E+03 -0.19386212433E+04 -0.84278949305E+03  0.21305513533E+04  0.10390317930E+03 0.  0.
         11    1    3    3    0    0  0.16770743510E+03 -0.92565950642E+03 -0.41858526923E+03  0.10296528217E+04  0.00000000000E+00 0.  1.
        -11    1    3    3    0    0  0.77051107322E+02 -0.10129617369E+04 -0.42420422383E+03  0.11008985317E+04  0.00000000000E+00 0. -1.
         22    1    1    2    0    0 -0.24475854242E+03  0.19386212433E+04  0.20893767514E+04  0.28607087021E+04  0.00000000000E+00 0. -1.
<mgrwt>
<rscale>  0 0.48330836E+04</rscale>
<asrwt>0</asrwt>
<pdfrwt beam="1">  1        2 0.47983441E+00 0.48330836E+04</pdfrwt>
<pdfrwt beam="2">  1       -2 0.28805175E+00 0.48330836E+04</pdfrwt>
<totfact> 0.40568727E-02</totfact>
</mgrwt>
</event>
<event>
 6    1  0.9562506E-007  0.1223441E+04  0.7818608E-02  0.9092583E-01
          2   -1    0    0  501    0  0.00000000000E+00  0.00000000000E+00  0.65730535216E+03  0.65730535216E+03  0.00000000000E+00 0. -1.
         -2   -1    0    0    0  501 -0.00000000000E+00 -0.00000000000E+00 -0.56929680579E+03  0.56929680579E+03  0.00000000000E+00 0.  1.
         23    2    1    2    0    0 -0.19622739091E+03  0.42637462214E+03  0.43232534447E+03  0.64448999967E+03  0.90341844454E+02 0.  0.
         13    1    3    3    0    0 -0.19540503886E+03  0.35569000204E+03  0.34933978050E+03  0.53547809386E+03  0.00000000000E+00 0. -1.
        -13    1    3    3    0    0 -0.82235204544E+00  0.70684620101E+02  0.82985563968E+02  0.10901190581E+03  0.00000000000E+00 0.  1.
         22    1    1    2    0    0  0.19622739091E+03 -0.42637462214E+03 -0.34431679810E+03  0.58211215827E+03  0.00000000000E+00 0.  1.
<mgrwt>
<rscale>  0 0.12234408E+04</rscale>
<asrwt>0</asrwt>
<pdfrwt beam="1">  1        2 0.10112390E+00 0.12234408E+04</pdfrwt>
<pdfrwt beam="2">  1       -2 0.87584123E-01 0.12234408E+04</pdfrwt>
<totfact> 0.49177219E+01</totfact>
</mgrwt>
</event>
<event>
 6    1  0.9562506E-007  0.2668521E+04  0.7818608E-02  0.8345292E-01
          2   -1    0    0  501    0  0.00000000000E+00  0.00000000000E+00  0.17743439212E+04  0.17743439212E+04  0.00000000000E+00 0. -1.
         -2   -1    0    0    0  501 -0.00000000000E+00 -0.00000000000E+00 -0.10033289915E+04  0.10033289915E+04  0.00000000000E+00 0.  1.
         23    2    1    2    0    0 -0.90181513449E+03  0.91585179385E+03  0.18125834360E+02  0.12880766469E+04  0.82206187562E+02 0.  0.
         13    1    3    3    0    0 -0.56000399806E+03  0.61083305421E+03 -0.14338995361E+02  0.82881065676E+03  0.00000000000E+00 0. -1.
        -13    1    3    3    0    0 -0.34181113643E+03  0.30501873964E+03  0.32464829721E+02  0.45926599013E+03  0.00000000000E+00 0.  1.
         22    1    1    2    0    0  0.90181513449E+03 -0.91585179385E+03  0.75288909539E+03  0.14895962658E+04  0.00000000000E+00 0. -1.
<mgrwt>
<rscale>  0 0.26685207E+04</rscale>
<asrwt>0</asrwt>
<pdfrwt beam="1">  1        2 0.27297599E+00 0.26685207E+04</pdfrwt>
<pdfrwt beam="2">  1       -2 0.15435831E+00 0.26685207E+04</pdfrwt>
<totfact> 0.21774176E+00</totfact>
</mgrwt>
</event>
<event>
 6    1  0.9562506E-007  0.2120628E+04  0.7818608E-02  0.8552211E-01
          2   -1    0    0  501    0  0.00000000000E+00  0.00000000000E+00  0.10307746199E+04  0.10307746199E+04  0.00000000000E+00 0. -1.
         -2   -1    0    0    0  501 -0.00000000000E+00 -0.00000000000E+00 -0.10906999204E+04  0.10906999204E+04  0.00000000000E+00 0.  1.
         23    2    1    2    0    0  0.45011455063E+03  0.20580613547E+03 -0.96612861295E+03  0.10889224992E+04  0.85956025502E+02 0.  0.
         13    1    3    3    0    0  0.37926687486E+03  0.13822958366E+03 -0.75285403142E+03  0.85424819156E+03  0.00000000000E+00 0.  1.
        -13    1    3    3    0    0  0.70847675769E+02  0.67576551810E+02 -0.21327458153E+03  0.23467430759E+03  0.00000000000E+00 0. -1.
         22    1    1    2    0    0 -0.45011455063E+03 -0.20580613547E+03  0.90620331251E+03  0.10325520412E+04  0.00000000000E+00 0. -1.
<mgrwt>
<rscale>  0 0.21206280E+04</rscale>
<asrwt>0</asrwt>
<pdfrwt beam="1">  1        2 0.15858071E+00 0.21206280E+04</pdfrwt>
<pdfrwt beam="2">  1       -2 0.16779999E+00 0.21206280E+04</pdfrwt>
<totfact> 0.48936954E+00</totfact>
</mgrwt>
</event>
<event>
 6    1  0.9562506E-007  0.2141049E+04  0.7818608E-02  0.8543373E-01
          2   -1    0    0  501    0  0.00000000000E+00  0.00000000000E+00  0.11566218594E+04  0.11566218594E+04  0.00000000000E+00 0. -1.
         -2   -1    0    0    0  501 -0.00000000000E+00 -0.00000000000E+00 -0.99083603728E+03  0.99083603728E+03  0.00000000000E+00 0.  1.
         23    2    1    2    0    0 -0.10465385981E+03  0.63171894900E+03  0.94113030422E+03  0.11418832716E+04  0.90276771313E+02 0.  0.
         11    1    3    3    0    0 -0.31673097375E+01  0.21426241260E+03  0.36423062632E+03  0.42259006430E+03  0.00000000000E+00 0.  1.
        -11    1    3    3    0    0 -0.10148655007E+03  0.41745653640E+03  0.57689967791E+03  0.71929320725E+03  0.00000000000E+00 0. -1.
         22    1    1    2    0    0  0.10465385981E+03 -0.63171894900E+03 -0.77534448207E+03  0.10055746252E+04  0.00000000000E+00 0.  1.
<mgrwt>
<rscale>  0 0.21410489E+04</rscale>
<asrwt>0</asrwt>
<pdfrwt beam="1">  1        2 0.17794182E+00 0.21410489E+04</pdfrwt>
<pdfrwt beam="2">  1       -2 0.15243631E+00 0.21410489E+04</pdfrwt>
<totfact> 0.53034955E+00</totfact>
</mgrwt>
</event>
<event>
 6    1  0.9562506E-007  0.4644792E+04  0.7818608E-02  0.7885767E-01
          1   -1    0    0  501    0  0.00000000000E+00  0.00000000000E+00  0.22267873627E+04  0.22267873627E+04  0.00000000000E+00 0. -1.
         -1   -1    0    0    0  501 -0.00000000000E+00 -0.00000000000E+00 -0.24221094573E+04  0.24221094573E+04  0.00000000000E+00 0.  1.
         23    2    1    2    0    0  0.69395527748E+03  0.19799476372E+04 -0.10925242412E+04  0.23670689858E+04  0.87405908202E+02 0.  0.
         13    1    3    3    0    0  0.26972396186E+02  0.12517355250E+03 -0.82232666067E+02  0.15217798714E+03  0.00000000000E+00 0.  1.
        -13    1    3    3    0    0  0.66698288130E+03  0.18547740847E+04 -0.10102915751E+04  0.22148909987E+04  0.00000000000E+00 0. -1.
         22    1    1    2    0    0 -0.69395527748E+03 -0.19799476372E+04  0.89720214653E+03  0.22818278342E+04  0.00000000000E+00 0. -1.
<mgrwt>
<rscale>  0 0.46447918E+04</rscale>
<asrwt>0</asrwt>
<pdfrwt beam="1">  1        1 0.34258267E+00 0.46447918E+04</pdfrwt>
<pdfrwt beam="2">  1       -1 0.37263222E+00 0.46447918E+04</pdfrwt>
<totfact> 0.17016068E-02</totfact>
</mgrwt>
</event>
<event>
 6    1  0.9562506E-007  0.4539253E+04  0.7818608E-02  0.7903801E-01
         -1   -1    0    0    0  501 -0.00000000000E+00  0.00000000000E+00  0.32490180460E+04  0.32490180460E+04  0.00000000000E+00 0.  1.
          1   -1    0    0  501    0  0.00000000000E+00 -0.00000000000E+00 -0.15854651776E+04  0.15854651776E+04  0.00000000000E+00 0. -1.
         23    2    1    2    0    0  0.46643786091E+03  0.79434936371E+03 -0.13760548381E+04  0.16583581948E+04  0.89832038043E+02 0.  0.
         11    1    3    3    0    0  0.26766770098E+03  0.36932965453E+03 -0.69605671477E+03  0.83219309180E+03  0.00000000000E+00 0. -1.
        -11    1    3    3    0    0  0.19877015993E+03  0.42501970918E+03 -0.67999812334E+03  0.82616510300E+03  0.00000000000E+00 0.  1.
         22    1    1    2    0    0 -0.46643786091E+03 -0.79434936371E+03  0.30396077065E+04  0.31761250289E+04  0.00000000000E+00 0.  1.
<mgrwt>
<rscale>  0 0.45392532E+04</rscale>
<asrwt>0</asrwt>
<pdfrwt beam="1">  1        1 0.24391772E+00 0.45392532E+04</pdfrwt>
<pdfrwt beam="2">  1       -1 0.49984893E+00 0.45392532E+04</pdfrwt>
<totfact> 0.64107047E-03</totfact>
</mgrwt>
</event>
<event>
 6    1  0.9562506E-007  0.7808297E+03  0.7818608E-02  0.9588187E-01
         -2   -1    0    0    0  501 -0.00000000000E+00  0.00000000000E+00  0.42685273774E+02  0.42685273774E+02  0.00000000000E+00 0.  1.
          2   -1    0    0  501    0  0.00000000000E+00 -0.00000000000E+00 -0.35708745452E+04  0.35708745452E+04  0.00000000000E+00 0. -1.
         23    2    1    2    0    0  0.19985802900E+03 -0.30178664642E+03 -0.24006084188E+04  0.24293060493E+04  0.87113082744E+02 0.  0.
         11    1    3    3    0    0  0.43060994999E+02 -0.24355307262E+02 -0.46705335336E+03  0.46966612095E+03  0.00000000000E+00 0. -1.
        -11    1    3    3    0    0  0.15679703400E+03 -0.27743133915E+03 -0.19335550654E+04  0.19596399284E+04  0.00000000000E+00 0.  1.
         22    1    1    2    0    0 -0.19985802900E+03  0.30178664642E+03 -0.11275808527E+04  0.11842537697E+04  0.00000000000E+00 0. -1.
<mgrwt>
<rscale>  0 0.78082971E+03</rscale>
<asrwt>0</asrwt>
<pdfrwt beam="1">  1        2 0.54936546E+00 0.78082971E+03</pdfrwt>
<pdfrwt beam="2">  1       -2 0.65669635E-02 0.78082971E+03</pdfrwt>
<totfact> 0.10487083E+02</totfact>
</mgrwt>
</event>
<event>
 6    1  0.9562506E-007  0.1400125E+04  0.7818608E-02  0.8953728E-01
          2   -1    0    0  501    0  0.00000000000E+00  0.00000000000E+00  0.21903869457E+04  0.21903869457E+04  0.00000000000E+00 0. -1.
         -2   -1    0    0    0  501 -0.00000000000E+00 -0.00000000000E+00 -0.22374463937E+03  0.22374463937E+03  0.00000000000E+00 0.  1.
         23    2    1    2    0    0 -0.46104752713E+03  0.18999422430E+03  0.14456235742E+03  0.52504768864E+03  0.78193175013E+02 0.  0.
         13    1    3    3    0    0 -0.10268975457E+03  0.68786218281E+02  0.60082452450E+02  0.13742863825E+03  0.00000000000E+00 0. -1.
        -13    1    3    3    0    0 -0.35835777256E+03  0.12120800602E+03  0.84479904973E+02  0.38761905039E+03  0.00000000000E+00 0.  1.
         22    1    1    2    0    0  0.46104752713E+03 -0.18999422430E+03  0.18220799489E+04  0.18890838964E+04  0.00000000000E+00 0. -1.
<mgrwt>
<rscale>  0 0.14001248E+04</rscale>
<asrwt>0</asrwt>
<pdfrwt beam="1">  1        2 0.33698259E+00 0.14001248E+04</pdfrwt>
<pdfrwt beam="2">  1       -2 0.34422254E-01 0.14001248E+04</pdfrwt>
<totfact> 0.40306686E+01</totfact>
</mgrwt>
</event>
<event>
 6    1  0.9562506E-007  0.1052016E+04  0.7818608E-02  0.9253265E-01
          1   -1    0    0  501    0  0.00000000000E+00  0.00000000000E+00  0.64816220298E+03  0.64816220298E+03  0.00000000000E+00 0. -1.
         -1   -1    0    0    0  501 -0.00000000000E+00 -0.00000000000E+00 -0.42687561607E+03  0.42687561607E+03  0.00000000000E+00 0.  1.
         23    2    1    2    0    0 -0.19745427184E+03  0.47357093172E+03  0.20993088924E+03  0.56182580759E+03  0.91212076955E+02 0.  0.
         13    1    3    3    0    0 -0.95936167458E+01  0.36704681430E+02  0.44152445845E+02  0.58212624020E+02  0.00000000000E+00 0. -1.
        -13    1    3    3    0    0 -0.18786065509E+03  0.43686625028E+03  0.16577844340E+03  0.50361318357E+03  0.00000000000E+00 0.  1.
         22    1    1    2    0    0  0.19745427184E+03 -0.47357093172E+03  0.11355697669E+02  0.51321201146E+03  0.00000000000E+00 0.  1.
<mgrwt>
<rscale>  0 0.10520164E+04</rscale>
<asrwt>0</asrwt>
<pdfrwt beam="1">  1        1 0.99717263E-01 0.10520164E+04</pdfrwt>
<pdfrwt beam="2">  1       -1 0.65673171E-01 0.10520164E+04</pdfrwt>
<totfact> 0.71867778E+01</totfact>
</mgrwt>
</event>
<event>
 6    1  0.9562506E-007  0.3120358E+04  0.7818608E-02  0.8210173E-01
          2   -1    0    0  501    0  0.00000000000E+00  0.00000000000E+00  0.18422888592E+04  0.18422888592E+04  0.00000000000E+00 0. -1.
         -2   -1    0    0    0  501 -0.00000000000E+00 -0.00000000000E+00 -0.13212683224E+04  0.13212683224E+04  0.00000000000E+00 0.  1.
         23    2    1    2    0    0  0.40964650280E+03  0.75613349772E+03  0.15789564011E+04  0.18001876731E+04  0.89578000384E+02 0.  0.
         13    1    3    3    0    0  0.31695525428E+03  0.52953739666E+03  0.11920070210E+04  0.13422932711E+04  0.00000000000E+00 0.  1.
        -13    1    3    3    0    0  0.92691248512E+02  0.22659610106E+03  0.38694938015E+03  0.45789440198E+03  0.00000000000E+00 0. -1.
         22    1    1    2    0    0 -0.40964650280E+03 -0.75613349772E+03 -0.10579358643E+04  0.13633695085E+04  0.00000000000E+00 0.  1.
<mgrwt>
<rscale>  0 0.31203576E+04</rscale>
<asrwt>0</asrwt>
<pdfrwt beam="1">  1        2 0.28342905E+00 0.31203576E+04</pdfrwt>
<pdfrwt beam="2">  1       -2 0.20327205E+00 0.31203576E+04</pdfrwt>
<totfact> 0.87727088E-01</totfact>
</mgrwt>
</event>
<event>
 6    1  0.9562506E-007  0.2972677E+04  0.7818608E-02  0.8251576E-01
         -2   -1    0    0    0  501 -0.00000000000E+00  0.00000000000E+00  0.21041286995E+04  0.21041286995E+04  0.00000000000E+00 0.  1.
          2   -1    0    0  501    0  0.00000000000E+00 -0.00000000000E+00 -0.10499368297E+04  0.10499368297E+04  0.00000000000E+00 0. -1.
         23    2    1    2    0    0 -0.10132481883E+04 -0.10254801928E+04  0.90538710426E+03  0.17047814386E+04  0.90952889630E+02 0.  0.
         13    1    3    3    0    0 -0.92060185529E+03 -0.93690577455E+03  0.79307812548E+03  0.15343640766E+04  0.00000000000E+00 0. -1.
        -13    1    3    3    0    0 -0.92646333001E+02 -0.88574418235E+02  0.11230897877E+03  0.17041736208E+03  0.00000000000E+00 0.  1.
         22    1    1    2    0    0  0.10132481883E+04  0.10254801928E+04  0.14880476562E+03  0.14492840906E+04  0.00000000000E+00 0. -1.
<mgrwt>
<rscale>  0 0.29726771E+04</rscale>
<asrwt>0</asrwt>
<pdfrwt beam="1">  1        2 0.16152874E+00 0.29726771E+04</pdfrwt>
<pdfrwt beam="2">  1       -2 0.32371211E+00 0.29726771E+04</pdfrwt>
<totfact> 0.45607957E-01</totfact>
</mgrwt>
</event>
<event>
 6    1  0.9562506E-007  0.2882760E+04  0.7818608E-02  0.8278025E-01
          2   -1    0    0  501    0  0.00000000000E+00  0.00000000000E+00  0.11468981919E+04  0.11468981919E+04  0.00000000000E+00 0. -1.
         -2   -1    0    0    0  501 -0.00000000000E+00 -0.00000000000E+00 -0.18114742573E+04  0.18114742573E+04  0.00000000000E+00 0.  1.
         23    2    1    2    0    0 -0.55653529777E+03  0.10963410834E+04  0.43658338345E+03  0.13078430067E+04  0.90293802213E+02 0.  0.
         13    1    3    3    0    0 -0.17212138913E+03  0.31958965668E+03  0.17203672719E+03  0.40169634895E+03  0.00000000000E+00 0. -1.
        -13    1    3    3    0    0 -0.38441390864E+03  0.77675142669E+03  0.26454665626E+03  0.90614665775E+03  0.00000000000E+00 0.  1.
         22    1    1    2    0    0  0.55653529777E+03 -0.10963410834E+04 -0.11011594489E+04  0.16505294425E+04  0.00000000000E+00 0. -1.
<mgrwt>
<rscale>  0 0.28827602E+04</rscale>
<asrwt>0</asrwt>
<pdfrwt beam="1">  1        2 0.17644588E+00 0.28827602E+04</pdfrwt>
<pdfrwt beam="2">  1       -2 0.27868835E+00 0.28827602E+04</pdfrwt>
<totfact> 0.75594108E-01</totfact>
</mgrwt>
</event>
<event>
 6    1  0.9562506E-007  0.6916609E+03  0.7818608E-02  0.9731600E-01
         -1   -1    0    0    0  501 -0.00000000000E+00  0.00000000000E+00  0.49406263353E+03  0.49406263353E+03  0.00000000000E+00 0.  1.
          1   -1    0    0  501    0  0.00000000000E+00 -0.00000000000E+00 -0.24207194872E+03  0.24207194872E+03  0.00000000000E+00 0. -1.
         23    2    1    2    0    0 -0.67624579487E+02  0.10744380879E+03 -0.20489031494E+03  0.26194316126E+03  0.10255204910E+03 0.  0.
         11    1    3    3    0    0 -0.87833484771E+02  0.66654211230E+02 -0.17707042012E+03  0.20859395630E+03  0.00000000000E+00 0. -1.
        -11    1    3    3    0    0  0.20208905284E+02  0.40789597563E+02 -0.27819894822E+02  0.53349204962E+02  0.00000000000E+00 0.  1.
         22    1    1    2    0    0  0.67624579487E+02 -0.10744380879E+03  0.45688099976E+03  0.47419142099E+03  0.00000000000E+00 0.  1.
<mgrwt>
<rscale>  0 0.69166091E+03</rscale>
<asrwt>0</asrwt>
<pdfrwt beam="1">  1        1 0.37241838E-01 0.69166091E+03</pdfrwt>
<pdfrwt beam="2">  1       -1 0.76009636E-01 0.69166091E+03</pdfrwt>
<totfact> 0.20462968E+02</totfact>
</mgrwt>
</event>
<event>
 6    1  0.9562506E-007  0.3274829E+04  0.7818608E-02  0.8169330E-01
          1   -1    0    0  501    0  0.00000000000E+00  0.00000000000E+00  0.16644808966E+04  0.16644808966E+04  0.00000000000E+00 0. -1.
         -1   -1    0    0    0  501 -0.00000000000E+00 -0.00000000000E+00 -0.16107878468E+04  0.16107878468E+04  0.00000000000E+00 0.  1.
         23    2    1    2    0    0  0.98024307156E+03  0.56937023656E+03 -0.11528682838E+04  0.16197177181E+04  0.96546677665E+02 0.  0.
         13    1    3    3    0    0  0.49377426360E+03  0.28757371292E+03 -0.64980453297E+03  0.86530780351E+03  0.00000000000E+00 0. -1.
        -13    1    3    3    0    0  0.48646880796E+03  0.28179652364E+03 -0.50306375088E+03  0.75440991463E+03  0.00000000000E+00 0.  1.
         22    1    1    2    0    0 -0.98024307156E+03 -0.56937023656E+03  0.12065613336E+04  0.16555510253E+04  0.00000000000E+00 0. -1.
<mgrwt>
<rscale>  0 0.32748286E+04</rscale>
<asrwt>0</asrwt>
<pdfrwt beam="1">  1        1 0.25607398E+00 0.32748286E+04</pdfrwt>
<pdfrwt beam="2">  1       -1 0.24781351E+00 0.32748286E+04</pdfrwt>
<totfact> 0.30192046E-01</totfact>
</mgrwt>
</event>
<event>
 6    1  0.9562506E-007  0.1552368E+04  0.7818608E-02  0.8850357E-01
          1   -1    0    0  501    0  0.00000000000E+00  0.00000000000E+00  0.15665148889E+04  0.15665148889E+04  0.00000000000E+00 0. -1.
         -1   -1    0    0    0  501 -0.00000000000E+00 -0.00000000000E+00 -0.38458716254E+03  0.38458716254E+03  0.00000000000E+00 0.  1.
         23    2    1    2    0    0 -0.25288148508E+03 -0.49788915737E+03  0.12656821798E+04  0.13864273955E+04  0.91579932904E+02 0.  0.
         13    1    3    3    0    0 -0.23449397576E+03 -0.40428940806E+03  0.99169812545E+03  0.10963131497E+04  0.00000000000E+00 0. -1.
        -13    1    3    3    0    0 -0.18387509325E+02 -0.93599749312E+02  0.27398405440E+03  0.29011424583E+03  0.00000000000E+00 0.  1.
         22    1    1    2    0    0  0.25288148508E+03  0.49788915737E+03 -0.83754453514E+02  0.56467465590E+03  0.00000000000E+00 0. -1.
<mgrwt>
<rscale>  0 0.15523679E+04</rscale>
<asrwt>0</asrwt>
<pdfrwt beam="1">  1        1 0.24100229E+00 0.15523679E+04</pdfrwt>
<pdfrwt beam="2">  1       -1 0.59167257E-01 0.15523679E+04</pdfrwt>
<totfact> 0.16411425E+01</totfact>
</mgrwt>
</event>
<event>
 6    1  0.9562506E-007  0.2276934E+04  0.7818608E-02  0.8487071E-01
          2   -1    0    0  501    0  0.00000000000E+00  0.00000000000E+00  0.25760636608E+04  0.25760636608E+04  0.00000000000E+00 0. -1.
         -2   -1    0    0    0  501 -0.00000000000E+00 -0.00000000000E+00 -0.50313487146E+03  0.50313487146E+03  0.00000000000E+00 0.  1.
         23    2    1    2    0    0  0.28489062178E+03  0.73053618210E+03 -0.74854685586E+02  0.79275596029E+03  0.89515411494E+02 0.  0.
         13    1    3    3    0    0  0.14020526936E+03  0.32497330777E+03 -0.76745215859E+02  0.36215327760E+03  0.00000000000E+00 0.  1.
        -13    1    3    3    0    0  0.14468535241E+03  0.40556287433E+03  0.18905302729E+01  0.43060268270E+03  0.00000000000E+00 0. -1.
         22    1    1    2    0    0 -0.28489062178E+03 -0.73053618210E+03  0.21477834750E+04  0.22864425720E+04  0.00000000000E+00 0. -1.
<mgrwt>
<rscale>  0 0.22769343E+04</rscale>
<asrwt>0</asrwt>
<pdfrwt beam="1">  1        2 0.39631748E+00 0.22769343E+04</pdfrwt>
<pdfrwt beam="2">  1       -2 0.77405366E-01 0.22769343E+04</pdfrwt>
<totfact> 0.42498147E+00</totfact>
</mgrwt>
</event>
<event>
 6    1  0.9562506E-007  0.1492647E+04  0.7818608E-02  0.8889358E-01
          2   -1    0    0  501    0  0.00000000000E+00  0.00000000000E+00  0.11561761123E+04  0.11561761123E+04  0.00000000000E+00 0. -1.
         -2   -1    0    0    0  501 -0.00000000000E+00 -0.00000000000E+00 -0.48175914639E+03  0.48175914639E+03  0.00000000000E+00 0.  1.
         23    2    1    2    0    0  0.13938638577E+03  0.68951563946E+03  0.73605189602E+02  0.71282165911E+03  0.88524641532E+02 0.  0.
         11    1    3    3    0    0  0.12761227250E+03  0.48292647578E+03  0.79627336543E+02  0.50580963398E+03  0.00000000000E+00 0. -1.
        -11    1    3    3    0    0  0.11774113266E+02  0.20658916368E+03 -0.60221469406E+01  0.20701202513E+03  0.00000000000E+00 0.  1.
         22    1    1    2    0    0 -0.13938638577E+03 -0.68951563946E+03  0.60081177635E+03  0.92511359962E+03  0.00000000000E+00 0. -1.
<mgrwt>
<rscale>  0 0.14926465E+04</rscale>
<asrwt>0</asrwt>
<pdfrwt beam="1">  1        2 0.17787325E+00 0.14926465E+04</pdfrwt>
<pdfrwt beam="2">  1       -2 0.74116792E-01 0.14926465E+04</pdfrwt>
<totfact> 0.31901959E+01</totfact>
</mgrwt>
</event>
<event>
 6    1  0.9562506E-007  0.5692557E+03  0.7818608E-02  0.9971327E-01
          1   -1    0    0  501    0  0.00000000000E+00  0.00000000000E+00  0.27583780785E+03  0.27583780785E+03  0.00000000000E+00 0. -1.
         -1   -1    0    0    0  501 -0.00000000000E+00 -0.00000000000E+00 -0.29369798551E+03  0.29369798551E+03  0.00000000000E+00 0.  1.
         23    2    1    2    0    0 -0.24397637337E+03  0.19563402702E+02 -0.13982161830E+03  0.29607319904E+03  0.90565207204E+02 0.  0.
         13    1    3    3    0    0 -0.23291643140E+03  0.31123840350E+02 -0.10425847835E+03  0.25707700746E+03  0.00000000000E+00 0. -1.
        -13    1    3    3    0    0 -0.11059941971E+02 -0.11560437648E+02 -0.35563139945E+02  0.38996191581E+02  0.00000000000E+00 0.  1.
         22    1    1    2    0    0  0.24397637337E+03 -0.19563402702E+02  0.12196144064E+03  0.27346259432E+03  0.00000000000E+00 0. -1.
<mgrwt>
<rscale>  0 0.56925568E+03</rscale>
<asrwt>0</asrwt>
<pdfrwt beam="1">  1        1 0.42436586E-01 0.56925568E+03</pdfrwt>
<pdfrwt beam="2">  1       -1 0.45184305E-01 0.56925568E+03</pdfrwt>
<totfact> 0.48096150E+02</totfact>
</mgrwt>
</event>
<event>
 6    1  0.9562506E-007  0.3153044E+04  0.7818608E-02  0.8201329E-01
         -1   -1    0    0    0  501 -0.00000000000E+00  0.00000000000E+00  0.10113818627E+04  0.10113818627E+04  0.00000000000E+00 0.  1.
          1   -1    0    0  501    0  0.00000000000E+00 -0.00000000000E+00 -0.24574517480E+04  0.24574517480E+04  0.00000000000E+00 0. -1.
         23    2    1    2    0    0 -0.73151913386E+03  0.13773346767E+04 -0.47996686744E+03  0.16342965858E+04  0.91575550628E+02 0.  0.
         13    1    3    3    0    0 -0.93600292046E+02  0.22560475890E+03 -0.10039282988E+03  0.26407809868E+03  0.00000000000E+00 0. -1.
        -13    1    3    3    0    0 -0.63791884182E+03  0.11517299178E+04 -0.37957403757E+03  0.13702184871E+04  0.00000000000E+00 0.  1.
         22    1    1    2    0    0  0.73151913386E+03 -0.13773346767E+04 -0.96610301784E+03  0.18345370250E+04  0.00000000000E+00 0. -1.
<mgrwt>
<rscale>  0 0.31530443E+04</rscale>
<asrwt>0</asrwt>
<pdfrwt beam="1">  1        1 0.37806949E+00 0.31530443E+04</pdfrwt>
<pdfrwt beam="2">  1       -1 0.15559721E+00 0.31530443E+04</pdfrwt>
<totfact> 0.38448034E-01</totfact>
</mgrwt>
</event>
<event>
 6    1  0.9562506E-007  0.3006712E+04  0.7818608E-02  0.8241817E-01
         -2   -1    0    0    0  501 -0.00000000000E+00  0.00000000000E+00  0.85192647476E+03  0.85192647476E+03  0.00000000000E+00 0.  1.
          2   -1    0    0  501    0  0.00000000000E+00 -0.00000000000E+00 -0.26529049871E+04  0.26529049871E+04  0.00000000000E+00 0. -1.
         23    2    1    2    0    0 -0.42234306449E+02 -0.10331744106E+04 -0.21710747974E+04  0.24065581082E+04  0.93397286222E+02 0.  0.
         11    1    3    3    0    0  0.15348467220E+02 -0.83066374698E+02 -0.14010032945E+03  0.16359615021E+03  0.00000000000E+00 0. -1.
        -11    1    3    3    0    0 -0.57582773669E+02 -0.95010803586E+03 -0.20309744679E+04  0.22429619580E+04  0.00000000000E+00 0.  1.
         22    1    1    2    0    0  0.42234306449E+02  0.10331744106E+04  0.37009628500E+03  0.10982733537E+04  0.00000000000E+00 0.  1.
<mgrwt>
<rscale>  0 0.30067125E+04</rscale>
<asrwt>0</asrwt>
<pdfrwt beam="1">  1        2 0.40813922E+00 0.30067125E+04</pdfrwt>
<pdfrwt beam="2">  1       -2 0.13106561E+00 0.30067125E+04</pdfrwt>
<totfact> 0.10304414E+00</totfact>
</mgrwt>
</event>
<event>
 6    1  0.9562506E-007  0.6540611E+03  0.7818608E-02  0.9799189E-01
          2   -1    0    0  501    0  0.00000000000E+00  0.00000000000E+00  0.74792626125E+03  0.74792626125E+03  0.00000000000E+00 0. -1.
         -2   -1    0    0    0  501 -0.00000000000E+00 -0.00000000000E+00 -0.14299401935E+03  0.14299401935E+03  0.00000000000E+00 0.  1.
         23    2    1    2    0    0  0.80498314882E+02 -0.29257642866E+03  0.45014365287E+03  0.55027317199E+03  0.89946152153E+02 0.  0.
         13    1    3    3    0    0  0.10055022033E+03 -0.23912525297E+03  0.36784071359E+03  0.45010890237E+03  0.00000000000E+00 0.  1.
        -13    1    3    3    0    0 -0.20051905450E+02 -0.53451175691E+02  0.82302939279E+02  0.10016426962E+03  0.00000000000E+00 0. -1.
         22    1    1    2    0    0 -0.80498314882E+02  0.29257642866E+03  0.15478858903E+03  0.34064710861E+03  0.00000000000E+00 0. -1.
<mgrwt>
<rscale>  0 0.65406111E+03</rscale>
<asrwt>0</asrwt>
<pdfrwt beam="1">  1        2 0.11506558E+00 0.65406111E+03</pdfrwt>
<pdfrwt beam="2">  1       -2 0.21999080E-01 0.65406111E+03</pdfrwt>
<totfact> 0.68256520E+02</totfact>
</mgrwt>
</event>
<event>
 6    1  0.9562506E-007  0.1988412E+04  0.7818608E-02  0.8612057E-01
         -1   -1    0    0    0  501 -0.00000000000E+00  0.00000000000E+00  0.53041667537E+03  0.53041667537E+03  0.00000000000E+00 0.  1.
          1   -1    0    0  501    0  0.00000000000E+00 -0.00000000000E+00 -0.18635272234E+04  0.18635272234E+04  0.00000000000E+00 0. -1.
         23    2    1    2    0    0 -0.60380292376E+03 -0.77876239973E+03 -0.80619286028E+03  0.12764954232E+04  0.91895546052E+02 0.  0.
         11    1    3    3    0    0 -0.36950486590E+03 -0.50546936290E+03 -0.56341248280E+03  0.84229849135E+03  0.00000000000E+00 0.  1.
        -11    1    3    3    0    0 -0.23429805785E+03 -0.27329303683E+03 -0.24278037748E+03  0.43419693180E+03  0.00000000000E+00 0. -1.
         22    1    1    2    0    0  0.60380292376E+03  0.77876239973E+03 -0.52691768771E+03  0.11174484756E+04  0.00000000000E+00 0.  1.
<mgrwt>
<rscale>  0 0.19884123E+04</rscale>
<asrwt>0</asrwt>
<pdfrwt beam="1">  1        1 0.28669650E+00 0.19884123E+04</pdfrwt>
<pdfrwt beam="2">  1       -1 0.81602565E-01 0.19884123E+04</pdfrwt>
<totfact> 0.51203001E+00</totfact>
</mgrwt>
</event>
<event>
 6    1  0.9562506E-007  0.2879167E+04  0.7818608E-02  0.8279103E-01
         -2   -1    0    0    0  501 -0.00000000000E+00  0.00000000000E+00  0.20567361614E+04  0.20567361614E+04  0.00000000000E+00 0.  1.
          2   -1    0    0  501    0  0.00000000000E+00 -0.00000000000E+00 -0.10076160369E+04  0.10076160369E+04  0.00000000000E+00 0. -1.
         23    2    1    2    0    0  0.16668123647E+03  0.14277926705E+04  0.57145131466E+03  0.15495776156E+04  0.90882546413E+02 0.  0.
         11    1    3    3    0    0  0.10473860396E+03  0.11043039182E+04  0.47219534568E+03  0.12055810895E+04  0.00000000000E+00 0.  1.
        -11    1    3    3    0    0  0.61942632515E+02  0.32348875230E+03  0.99255968985E+02  0.34399652610E+03  0.00000000000E+00 0. -1.
         22    1    1    2    0    0 -0.16668123647E+03 -0.14277926705E+04  0.47766880976E+03  0.15147745827E+04  0.00000000000E+00 0. -1.
<mgrwt>
<rscale>  0 0.28791668E+04</rscale>
<asrwt>0</asrwt>
<pdfrwt beam="1">  1        2 0.15501785E+00 0.28791668E+04</pdfrwt>
<pdfrwt beam="2">  1       -2 0.31642095E+00 0.28791668E+04</pdfrwt>
<totfact> 0.54245131E-01</totfact>
</mgrwt>
</event>
<event>
 6    1  0.9562506E-007  0.1109170E+04  0.7818608E-02  0.9196300E-01
          2   -1    0    0  501    0  0.00000000000E+00  0.00000000000E+00  0.30658056873E+04  0.30658056873E+04  0.00000000000E+00 0. -1.
         -2   -1    0    0    0  501 -0.00000000000E+00 -0.00000000000E+00 -0.10032086085E+03  0.10032086085E+03  0.00000000000E+00 0.  1.
         23    2    1    2    0    0 -0.42086032752E+03 -0.77269138249E+02  0.24823307387E+04  0.25207337937E+04  0.95073799047E+02 0.  0.
         11    1    3    3    0    0 -0.37730071145E+03 -0.83395062965E+02  0.20441698361E+04  0.20803703714E+04  0.00000000000E+00 0. -1.
        -11    1    3    3    0    0 -0.43559616065E+02  0.61259247162E+01  0.43816090268E+03  0.44036342235E+03  0.00000000000E+00 0.  1.
         22    1    1    2    0    0  0.42086032752E+03  0.77269138249E+02  0.48315408770E+03  0.64539275442E+03  0.00000000000E+00 0.  1.
<mgrwt>
<rscale>  0 0.11091695E+04</rscale>
<asrwt>0</asrwt>
<pdfrwt beam="1">  1        2 0.47166234E+00 0.11091695E+04</pdfrwt>
<pdfrwt beam="2">  1       -2 0.15433981E-01 0.11091695E+04</pdfrwt>
<totfact> 0.53584294E+01</totfact>
</mgrwt>
</event>
<event>
 6    1  0.9562506E-007  0.1182140E+04  0.7818608E-02  0.9128634E-01
          2   -1    0    0  501    0  0.00000000000E+00  0.00000000000E+00  0.78835550508E+03  0.78835550508E+03  0.00000000000E+00 0. -1.
         -2   -1    0    0    0  501 -0.00000000000E+00 -0.00000000000E+00 -0.44315517948E+03  0.44315517948E+03  0.00000000000E+00 0.  1.
         23    2    1    2    0    0  0.25704979553E+03  0.45571830477E+03 -0.10512855052E+03  0.54118477069E+03  0.89861967516E+02 0.  0.
         11    1    3    3    0    0  0.12880164065E+03  0.30082463189E+03 -0.39310429379E+02  0.32959161343E+03  0.00000000000E+00 0. -1.
        -11    1    3    3    0    0  0.12824815488E+03  0.15489367288E+03 -0.65818121140E+02  0.21159315726E+03  0.00000000000E+00 0.  1.
         22    1    1    2    0    0 -0.25704979553E+03 -0.45571830477E+03  0.45032887613E+03  0.69032591387E+03  0.00000000000E+00 0. -1.
<mgrwt>
<rscale>  0 0.11821401E+04</rscale>
<asrwt>0</asrwt>
<pdfrwt beam="1">  1        2 0.12128546E+00 0.11821401E+04</pdfrwt>
<pdfrwt beam="2">  1       -2 0.68177720E-01 0.11821401E+04</pdfrwt>
<totfact> 0.68350228E+01</totfact>
</mgrwt>
</event>
<event>
 6    1  0.9562506E-007  0.4944021E+04  0.7818608E-02  0.7837201E-01
         -3   -1    0    0    0  501 -0.00000000000E+00  0.00000000000E+00  0.44480557291E+04  0.44480557291E+04  0.00000000000E+00 0.  1.
          3   -1    0    0  501    0  0.00000000000E+00 -0.00000000000E+00 -0.13738220185E+04  0.13738220185E+04  0.00000000000E+00 0. -1.
         23    2    1    2    0    0 -0.39317503592E+03 -0.14315537681E+04 -0.78865076665E+03  0.16835436282E+04  0.91740483908E+02 0.  0.
         11    1    3    3    0    0 -0.11067956075E+03 -0.57090069580E+03 -0.30258021245E+03  0.65553974296E+03  0.00000000000E+00 0. -1.
        -11    1    3    3    0    0 -0.28249547517E+03 -0.86065307227E+03 -0.48607055420E+03  0.10280038852E+04  0.00000000000E+00 0.  1.
         22    1    1    2    0    0  0.39317503592E+03  0.14315537681E+04  0.38628844773E+04  0.41383341195E+04  0.00000000000E+00 0.  1.
<mgrwt>
<rscale>  0 0.49440214E+04</rscale>
<asrwt>0</asrwt>
<pdfrwt beam="1">  1        3 0.21135724E+00 0.49440214E+04</pdfrwt>
<pdfrwt beam="2">  1       -3 0.68431626E+00 0.49440214E+04</pdfrwt>
<totfact> 0.69849924E-05</totfact>
</mgrwt>
</event>
<event>
 6    1  0.9562506E-007  0.4589129E+04  0.7818608E-02  0.7895216E-01
          1   -1    0    0  501    0  0.00000000000E+00  0.00000000000E+00  0.21776420406E+04  0.21776420406E+04  0.00000000000E+00 0. -1.
         -1   -1    0    0    0  501 -0.00000000000E+00 -0.00000000000E+00 -0.24177649225E+04  0.24177649225E+04  0.00000000000E+00 0.  1.
         23    2    1    2    0    0  0.16702301462E+04  0.10120444899E+04 -0.13244587089E+04  0.23616462382E+04  0.96329081253E+02 0.  0.
         11    1    3    3    0    0  0.13424347299E+04  0.80602515995E+03 -0.11067356073E+04  0.19174648020E+04  0.00000000000E+00 0. -1.
        -11    1    3    3    0    0  0.32779541629E+03  0.20601932995E+03 -0.21772310166E+03  0.44418143618E+03  0.00000000000E+00 0.  1.
         22    1    1    2    0    0 -0.16702301462E+04 -0.10120444899E+04  0.10843358269E+04  0.22337607249E+04  0.00000000000E+00 0. -1.
<mgrwt>
<rscale>  0 0.45891291E+04</rscale>
<asrwt>0</asrwt>
<pdfrwt beam="1">  1        1 0.33502186E+00 0.45891291E+04</pdfrwt>
<pdfrwt beam="2">  1       -1 0.37196383E+00 0.45891291E+04</pdfrwt>
<totfact> 0.18656451E-02</totfact>
</mgrwt>
</event>
<event>
 6    1  0.9562506E-007  0.4052161E+04  0.7818608E-02  0.7994106E-01
         -2   -1    0    0    0  501 -0.00000000000E+00  0.00000000000E+00  0.22922988468E+04  0.22922988468E+04  0.00000000000E+00 0.  1.
          2   -1    0    0  501    0  0.00000000000E+00 -0.00000000000E+00 -0.17907799733E+04  0.17907799733E+04  0.00000000000E+00 0. -1.
         23    2    1    2    0    0  0.25848215443E+03 -0.16340285562E+04  0.14277022601E+04  0.21871152096E+04  0.90977195867E+02 0.  0.
         11    1    3    3    0    0  0.76609868687E+01 -0.23898629427E+03  0.22153093075E+03  0.32595872875E+03  0.00000000000E+00 0. -1.
        -11    1    3    3    0    0  0.25082116756E+03 -0.13950422619E+04  0.12061713293E+04  0.18611564809E+04  0.00000000000E+00 0.  1.
         22    1    1    2    0    0 -0.25848215443E+03  0.16340285562E+04 -0.92618338662E+03  0.18959636104E+04  0.00000000000E+00 0. -1.
<mgrwt>
<rscale>  0 0.40521613E+04</rscale>
<asrwt>0</asrwt>
<pdfrwt beam="1">  1        2 0.27550461E+00 0.40521613E+04</pdfrwt>
<pdfrwt beam="2">  1       -2 0.35266136E+00 0.40521613E+04</pdfrwt>
<totfact> 0.10263754E-01</totfact>
</mgrwt>
</event>
<event>
 6    1  0.9562506E-007  0.2229447E+04  0.7818608E-02  0.8506270E-01
         -2   -1    0    0    0  501 -0.00000000000E+00  0.00000000000E+00  0.10365098333E+04  0.10365098333E+04  0.00000000000E+00 0.  1.
          2   -1    0    0  501    0  0.00000000000E+00 -0.00000000000E+00 -0.11988394809E+04  0.11988394809E+04  0.00000000000E+00 0. -1.
         23    2    1    2    0    0  0.67234745060E+03  0.12045046568E+03 -0.96228416773E+03  0.11834526257E+04  0.89497981647E+02 0.  0.
         11    1    3    3    0    0  0.32496065509E+03  0.25570715334E+02 -0.40402771380E+03  0.51912588296E+03  0.00000000000E+00 0. -1.
        -11    1    3    3    0    0  0.34738679551E+03  0.94879750347E+02 -0.55825645392E+03  0.66432674270E+03  0.00000000000E+00 0.  1.
         22    1    1    2    0    0 -0.67234745060E+03 -0.12045046568E+03  0.79995452012E+03  0.10518966885E+04  0.00000000000E+00 0.  1.
<mgrwt>
<rscale>  0 0.22294474E+04</rscale>
<asrwt>0</asrwt>
<pdfrwt beam="1">  1        2 0.18443684E+00 0.22294474E+04</pdfrwt>
<pdfrwt beam="2">  1       -2 0.15946305E+00 0.22294474E+04</pdfrwt>
<totfact> 0.43977152E+00</totfact>
</mgrwt>
</event>
<event>
 6    1  0.9562506E-007  0.8756468E+03  0.7818608E-02  0.9456547E-01
         -2   -1    0    0    0  501 -0.00000000000E+00  0.00000000000E+00  0.14991267326E+03  0.14991267326E+03  0.00000000000E+00 0.  1.
          2   -1    0    0  501    0  0.00000000000E+00 -0.00000000000E+00 -0.12786733299E+04  0.12786733299E+04  0.00000000000E+00 0. -1.
         23    2    1    2    0    0 -0.78145288534E+02  0.61467672255E+02 -0.12578259069E+04  0.12656663921E+04  0.99500971311E+02 0.  0.
         11    1    3    3    0    0 -0.14390507241E+02  0.73906165101E+02 -0.72312905142E+03  0.72703839854E+03  0.00000000000E+00 0. -1.
        -11    1    3    3    0    0 -0.63754781293E+02 -0.12438492846E+02 -0.53469685545E+03  0.53862799358E+03  0.00000000000E+00 0.  1.
         22    1    1    2    0    0  0.78145288534E+02 -0.61467672255E+02  0.12906525021E+03  0.16291961105E+03  0.00000000000E+00 0.  1.
<mgrwt>
<rscale>  0 0.87564682E+03</rscale>
<asrwt>0</asrwt>
<pdfrwt beam="1">  1        2 0.19671897E+00 0.87564682E+03</pdfrwt>
<pdfrwt beam="2">  1       -2 0.23063488E-01 0.87564682E+03</pdfrwt>
<totfact> 0.28294371E+02</totfact>
</mgrwt>
</event>
<event>
 6    1  0.9562506E-007  0.4287356E+04  0.7818608E-02  0.7948960E-01
         -1   -1    0    0    0  501 -0.00000000000E+00  0.00000000000E+00  0.19076700626E+04  0.19076700626E+04  0.00000000000E+00 0.  1.
          1   -1    0    0  501    0  0.00000000000E+00 -0.00000000000E+00 -0.24088836234E+04  0.24088836234E+04  0.00000000000E+00 0. -1.
         23    2    1    2    0    0  0.96210527242E+03  0.92878233467E+03  0.14348242591E+04  0.19635714038E+04  0.92783742755E+02 0.  0.
         11    1    3    3    0    0  0.34130436545E+03  0.39165752648E+03  0.56559713659E+03  0.76797422407E+03  0.00000000000E+00 0. -1.
        -11    1    3    3    0    0  0.62080090697E+03  0.53712480818E+03  0.86922712246E+03  0.11955971797E+04  0.00000000000E+00 0.  1.
         22    1    1    2    0    0 -0.96210527242E+03 -0.92878233467E+03 -0.19360378199E+04  0.23529822822E+04  0.00000000000E+00 0. -1.
<mgrwt>
<rscale>  0 0.42873559E+04</rscale>
<asrwt>0</asrwt>
<pdfrwt beam="1">  1        1 0.37059748E+00 0.42873559E+04</pdfrwt>
<pdfrwt beam="2">  1       -1 0.29348770E+00 0.42873559E+04</pdfrwt>
<totfact> 0.43590322E-02</totfact>
</mgrwt>
</event>
<event>
 6    1  0.9562506E-007  0.1191859E+04  0.7818608E-02  0.9120013E-01
          2   -1    0    0  501    0  0.00000000000E+00  0.00000000000E+00  0.10024071403E+04  0.10024071403E+04  0.00000000000E+00 0. -1.
         -2   -1    0    0    0  501 -0.00000000000E+00 -0.00000000000E+00 -0.35427891177E+03  0.35427891177E+03  0.00000000000E+00 0.  1.
         23    2    1    2    0    0  0.52450779163E+03 -0.21170526368E+03  0.52732035210E+03  0.77830720981E+03  0.88135219633E+02 0.  0.
         13    1    3    3    0    0  0.19385017780E+03 -0.37889369731E+02  0.20836966385E+03  0.28710871214E+03  0.00000000000E+00 0.  1.
        -13    1    3    3    0    0  0.33065761383E+03 -0.17381589395E+03  0.31895068825E+03  0.49119849767E+03  0.00000000000E+00 0. -1.
         22    1    1    2    0    0 -0.52450779163E+03  0.21170526368E+03  0.12080787639E+03  0.57837884224E+03  0.00000000000E+00 0.  1.
<mgrwt>
<rscale>  0 0.11918586E+04</rscale>
<asrwt>0</asrwt>
<pdfrwt beam="1">  1        2 0.15421648E+00 0.11918586E+04</pdfrwt>
<pdfrwt beam="2">  1       -2 0.54504448E-01 0.11918586E+04</pdfrwt>
<totfact> 0.78499630E+01</totfact>
</mgrwt>
</event>
<event>
 6    1  0.9562506E-007  0.1360123E+04  0.7818608E-02  0.8983200E-01
         -2   -1    0    0    0  501 -0.00000000000E+00  0.00000000000E+00  0.13530341286E+04  0.13530341286E+04  0.00000000000E+00 0.  1.
          2   -1    0    0  501    0  0.00000000000E+00 -0.00000000000E+00 -0.34181240302E+03  0.34181240302E+03  0.00000000000E+00 0. -1.
         23    2    1    2    0    0 -0.38609475725E+03  0.54600253021E+03  0.63910680932E+03  0.92956394627E+03  0.91889563630E+02 0.  0.
         13    1    3    3    0    0 -0.16103693020E+03  0.30588448405E+03  0.31558265016E+03  0.46807116932E+03  0.00000000000E+00 0.  1.
        -13    1    3    3    0    0 -0.22505782705E+03  0.24011804617E+03  0.32352415916E+03  0.46149277695E+03  0.00000000000E+00 0. -1.
         22    1    1    2    0    0  0.38609475725E+03 -0.54600253021E+03  0.37211491629E+03  0.76528258539E+03  0.00000000000E+00 0. -1.
<mgrwt>
<rscale>  0 0.13601233E+04</rscale>
<asrwt>0</asrwt>
<pdfrwt beam="1">  1        2 0.52586525E-01 0.13601233E+04</pdfrwt>
<pdfrwt beam="2">  1       -2 0.20815909E+00 0.13601233E+04</pdfrwt>
<totfact> 0.10892328E+01</totfact>
</mgrwt>
</event>
<event>
 6    1  0.9562506E-007  0.1772218E+04  0.7818608E-02  0.8721215E-01
         -2   -1    0    0    0  501 -0.00000000000E+00  0.00000000000E+00  0.74390496748E+03  0.74390496748E+03  0.00000000000E+00 0.  1.
          2   -1    0    0  501    0  0.00000000000E+00 -0.00000000000E+00 -0.10554960372E+04  0.10554960372E+04  0.00000000000E+00 0. -1.
         23    2    1    2    0    0 -0.71188567478E+03 -0.22514587682E+03  0.32380449670E+03  0.81899322949E+03  0.91807832306E+02 0.  0.
         13    1    3    3    0    0 -0.44966872621E+03 -0.15651498125E+03  0.25147259664E+03  0.53845832666E+03  0.00000000000E+00 0. -1.
        -13    1    3    3    0    0 -0.26221694857E+03 -0.68630895570E+02  0.72331900057E+02  0.28053490284E+03  0.00000000000E+00 0.  1.
         22    1    1    2    0    0  0.71188567478E+03  0.22514587682E+03 -0.63539556639E+03  0.98040777516E+03  0.00000000000E+00 0. -1.
<mgrwt>
<rscale>  0 0.17722175E+04</rscale>
<asrwt>0</asrwt>
<pdfrwt beam="1">  1        2 0.16238400E+00 0.17722175E+04</pdfrwt>
<pdfrwt beam="2">  1       -2 0.11444692E+00 0.17722175E+04</pdfrwt>
<totfact> 0.13111072E+01</totfact>
</mgrwt>
</event>
<event>
 6    1  0.9562506E-007  0.1430683E+04  0.7818608E-02  0.8931903E-01
          1   -1    0    0  501    0  0.00000000000E+00  0.00000000000E+00  0.30695439277E+04  0.30695439277E+04  0.00000000000E+00 0. -1.
         -1   -1    0    0    0  501 -0.00000000000E+00 -0.00000000000E+00 -0.16670662794E+03  0.16670662794E+03  0.00000000000E+00 0.  1.
         23    2    1    2    0    0 -0.67481055239E+03 -0.79035485226E+02  0.97304796984E+03  0.11903515485E+04  0.92187677393E+02 0.  0.
         11    1    3    3    0    0 -0.44849210574E+03 -0.52682172309E+02  0.71947866248E+03  0.84945283916E+03  0.00000000000E+00 0. -1.
        -11    1    3    3    0    0 -0.22631844665E+03 -0.26353312917E+02  0.25356930736E+03  0.34089870934E+03  0.00000000000E+00 0.  1.
         22    1    1    2    0    0  0.67481055239E+03  0.79035485226E+02  0.19297893299E+04  0.20458990071E+04  0.00000000000E+00 0. -1.
<mgrwt>
<rscale>  0 0.14306828E+04</rscale>
<asrwt>0</asrwt>
<pdfrwt beam="1">  1        1 0.47223748E+00 0.14306828E+04</pdfrwt>
<pdfrwt beam="2">  1       -1 0.25647176E-01 0.14306828E+04</pdfrwt>
<totfact> 0.69863453E+00</totfact>
</mgrwt>
</event>
<event>
 6    1  0.9562506E-007  0.5177605E+03  0.7818608E-02  0.1009244E+00
         -2   -1    0    0    0  501 -0.00000000000E+00  0.00000000000E+00  0.11129399527E+03  0.11129399527E+03  0.00000000000E+00 0.  1.
          2   -1    0    0  501    0  0.00000000000E+00 -0.00000000000E+00 -0.60217959799E+03  0.60217959799E+03  0.00000000000E+00 0. -1.
         23    2    1    2    0    0  0.15724512846E+03  0.17355593468E+03 -0.12984279477E+03  0.28312535978E+03  0.91940878346E+02 0.  0.
         13    1    3    3    0    0  0.96640952967E+02  0.83297732840E+02 -0.11796132832E+03  0.17376093078E+03  0.00000000000E+00 0. -1.
        -13    1    3    3    0    0  0.60604175488E+02  0.90258201844E+02 -0.11881466458E+02  0.10936442901E+03  0.00000000000E+00 0.  1.
         22    1    1    2    0    0 -0.15724512846E+03 -0.17355593468E+03 -0.36104280794E+03  0.43034823347E+03  0.00000000000E+00 0.  1.
<mgrwt>
<rscale>  0 0.51776046E+03</rscale>
<asrwt>0</asrwt>
<pdfrwt beam="1">  1        2 0.92643014E-01 0.51776046E+03</pdfrwt>
<pdfrwt beam="2">  1       -2 0.17122153E-01 0.51776046E+03</pdfrwt>
<totfact> 0.13816131E+03</totfact>
</mgrwt>
</event>
<event>
 6    1  0.9562506E-007  0.5406826E+03  0.7818608E-02  0.1003674E+00
          2   -1    0    0  501    0  0.00000000000E+00  0.00000000000E+00  0.22832326839E+03  0.22832326839E+03  0.00000000000E+00 0. -1.
         -2   -1    0    0    0  501 -0.00000000000E+00 -0.00000000000E+00 -0.32009181869E+03  0.32009181869E+03  0.00000000000E+00 0.  1.
         23    2    1    2    0    0 -0.39064282502E+02  0.14896657242E+03  0.16934553975E+03  0.24526887501E+03  0.88101369747E+02 0.  0.
         11    1    3    3    0    0  0.14273793723E+02 -0.44516346859E+00  0.33467355403E+02  0.36386855257E+02  0.00000000000E+00 0. -1.
        -11    1    3    3    0    0 -0.53338076225E+02  0.14941173589E+03  0.13587818435E+03  0.20888201976E+03  0.00000000000E+00 0.  1.
         22    1    1    2    0    0  0.39064282502E+02 -0.14896657242E+03 -0.26111409006E+03  0.30314621207E+03  0.00000000000E+00 0.  1.
<mgrwt>
<rscale>  0 0.54068257E+03</rscale>
<asrwt>0</asrwt>
<pdfrwt beam="1">  1        2 0.35126657E-01 0.54068257E+03</pdfrwt>
<pdfrwt beam="2">  1       -2 0.49244895E-01 0.54068257E+03</pdfrwt>
<totfact> 0.58571477E+02</totfact>
</mgrwt>
</event>
<event>
 6    1  0.9562506E-007  0.1346927E+04  0.7818608E-02  0.8993157E-01
          2   -1    0    0  501    0  0.00000000000E+00  0.00000000000E+00  0.62941733258E+03  0.62941733258E+03  0.00000000000E+00 0. -1.
         -2   -1    0    0    0  501 -0.00000000000E+00 -0.00000000000E+00 -0.72059226579E+03  0.72059226579E+03  0.00000000000E+00 0.  1.
         23    2    1    2    0    0  0.41381583530E+03  0.26851554582E+03  0.40919002180E+03  0.64736514198E+03  0.91109874422E+02 0.  0.
         11    1    3    3    0    0  0.28926025499E+03  0.21906839358E+03  0.33669810580E+03  0.49500310164E+03  0.00000000000E+00 0. -1.
        -11    1    3    3    0    0  0.12455558032E+03  0.49447152240E+02  0.72491915998E+02  0.15236204034E+03  0.00000000000E+00 0.  1.
         22    1    1    2    0    0 -0.41381583530E+03 -0.26851554582E+03 -0.50036495501E+03  0.70264445639E+03  0.00000000000E+00 0.  1.
<mgrwt>
<rscale>  0 0.13469273E+04</rscale>
<asrwt>0</asrwt>
<pdfrwt beam="1">  1        2 0.96833437E-01 0.13469273E+04</pdfrwt>
<pdfrwt beam="2">  1       -2 0.11086035E+00 0.13469273E+04</pdfrwt>
<totfact> 0.29468490E+01</totfact>
</mgrwt>
</event>
<event>
 6    1  0.9562506E-007  0.1286289E+04  0.7818608E-02  0.9040509E-01
          3   -1    0    0  501    0  0.00000000000E+00  0.00000000000E+00  0.48617776310E+03  0.48617776310E+03  0.00000000000E+00 0. -1.
         -3   -1    0    0    0  501 -0.00000000000E+00 -0.00000000000E+00 -0.85078943953E+03  0.85078943953E+03  0.00000000000E+00 0.  1.
         23    2    1    2    0    0  0.38971388788E+03 -0.29149001049E+03  0.24868552641E+03  0.55403885365E+03  0.90946246107E+02 0.  0.
         13    1    3    3    0    0  0.71211228942E+02 -0.45762564791E+02  0.74490509324E+01  0.84974936443E+02  0.00000000000E+00 0.  1.
        -13    1    3    3    0    0  0.31850265894E+03 -0.24572744570E+03  0.24123647548E+03  0.46906391720E+03  0.00000000000E+00 0. -1.
         22    1    1    2    0    0 -0.38971388788E+03  0.29149001049E+03 -0.61329720284E+03  0.78292834898E+03  0.00000000000E+00 0.  1.
<mgrwt>
<rscale>  0 0.12862891E+04</rscale>
<asrwt>0</asrwt>
<pdfrwt beam="1">  1        3 0.74796579E-01 0.12862891E+04</pdfrwt>
<pdfrwt beam="2">  1       -3 0.13089068E+00 0.12862891E+04</pdfrwt>
<totfact> 0.19808656E+00</totfact>
</mgrwt>
</event>
<event>
 6    1  0.9562506E-007  0.2284909E+04  0.7818608E-02  0.8483895E-01
         -2   -1    0    0    0  501 -0.00000000000E+00  0.00000000000E+00  0.40309312642E+03  0.40309312642E+03  0.00000000000E+00 0.  1.
          2   -1    0    0  501    0  0.00000000000E+00 -0.00000000000E+00 -0.32379668375E+04  0.32379668375E+04  0.00000000000E+00 0. -1.
         23    2    1    2    0    0  0.10502871879E+03  0.94822814908E+03 -0.42321259699E+03  0.10475532676E+04  0.89951608010E+02 0.  0.
         13    1    3    3    0    0  0.75742602307E+02  0.64939221351E+03 -0.24382159641E+03  0.69777944915E+03  0.00000000000E+00 0. -1.
        -13    1    3    3    0    0  0.29286116486E+02  0.29883593557E+03 -0.17939100057E+03  0.34977381848E+03  0.00000000000E+00 0.  1.
         22    1    1    2    0    0 -0.10502871879E+03 -0.94822814908E+03 -0.24116611141E+04  0.25935066963E+04  0.00000000000E+00 0. -1.
<mgrwt>
<rscale>  0 0.22849089E+04</rscale>
<asrwt>0</asrwt>
<pdfrwt beam="1">  1        2 0.49814874E+00 0.22849089E+04</pdfrwt>
<pdfrwt beam="2">  1       -2 0.62014327E-01 0.22849089E+04</pdfrwt>
<totfact> 0.26881833E+00</totfact>
</mgrwt>
</event>
<event>
 6    1  0.9562506E-007  0.1262910E+04  0.7818608E-02  0.9059506E-01
         -2   -1    0    0    0  501 -0.00000000000E+00  0.00000000000E+00  0.36831381636E+03  0.36831381636E+03  0.00000000000E+00 0.  1.
          2   -1    0    0  501    0  0.00000000000E+00 -0.00000000000E+00 -0.10825974411E+04  0.10825974411E+04  0.00000000000E+00 0. -1.
         23    2    1    2    0    0  0.62628409693E+03 -0.48121102216E+02 -0.35097955530E+03  0.72528238714E+03  0.91106982758E+02 0.  0.
         11    1    3    3    0    0  0.41911508539E+03 -0.14029261222E+01 -0.19790200186E+03  0.46349177484E+03  0.00000000000E+00 0. -1.
        -11    1    3    3    0    0  0.20716901153E+03 -0.46718176094E+02 -0.15307755344E+03  0.26179061230E+03  0.00000000000E+00 0.  1.
         22    1    1    2    0    0 -0.62628409693E+03  0.48121102216E+02 -0.36330406939E+03  0.72562887027E+03  0.00000000000E+00 0. -1.
<mgrwt>
<rscale>  0 0.12629103E+04</rscale>
<asrwt>0</asrwt>
<pdfrwt beam="1">  1        2 0.16655345E+00 0.12629103E+04</pdfrwt>
<pdfrwt beam="2">  1       -2 0.56663666E-01 0.12629103E+04</pdfrwt>
<totfact> 0.64114676E+01</totfact>
</mgrwt>
</event>
<event>
 6    1  0.9562506E-007  0.2649960E+04  0.7818608E-02  0.8351426E-01
         -1   -1    0    0    0  501 -0.00000000000E+00  0.00000000000E+00  0.91591113562E+03  0.91591113562E+03  0.00000000000E+00 0.  1.
          1   -1    0    0  501    0  0.00000000000E+00 -0.00000000000E+00 -0.19167498500E+04  0.19167498500E+04  0.00000000000E+00 0. -1.
         23    2    1    2    0    0  0.12242778332E+04 -0.18953833593E+03 -0.33789656366E+01  0.12421557376E+04  0.90324223929E+02 0.  0.
         13    1    3    3    0    0  0.77192693302E+03 -0.10101081442E+03  0.37529028740E+02  0.77941183115E+03  0.00000000000E+00 0.  1.
        -13    1    3    3    0    0  0.45235090018E+03 -0.88527521514E+02 -0.40907994377E+02  0.46274390645E+03  0.00000000000E+00 0. -1.
         22    1    1    2    0    0 -0.12242778332E+04  0.18953833593E+03 -0.99745974879E+03  0.15905052481E+04  0.00000000000E+00 0. -1.
<mgrwt>
<rscale>  0 0.26499604E+04</rscale>
<asrwt>0</asrwt>
<pdfrwt beam="1">  1        1 0.29488459E+00 0.26499604E+04</pdfrwt>
<pdfrwt beam="2">  1       -1 0.14090941E+00 0.26499604E+04</pdfrwt>
<totfact> 0.12264527E+00</totfact>
</mgrwt>
</event>
<event>
 6    1  0.9562506E-007  0.1826939E+04  0.7818608E-02  0.8692103E-01
         -2   -1    0    0    0  501 -0.00000000000E+00  0.00000000000E+00  0.27304916307E+03  0.27304916307E+03  0.00000000000E+00 0.  1.
          2   -1    0    0  501    0  0.00000000000E+00 -0.00000000000E+00 -0.30559568328E+04  0.30559568328E+04  0.00000000000E+00 0. -1.
         23    2    1    2    0    0  0.19425118990E+03  0.10098654694E+03 -0.30066295268E+04  0.30159831904E+04  0.91660710779E+02 0.  0.
         11    1    3    3    0    0  0.85561541938E+02 -0.46574826771E+01 -0.11252717531E+04  0.11285295689E+04  0.00000000000E+00 0. -1.
        -11    1    3    3    0    0  0.10868964796E+03  0.10564402962E+03 -0.18813577738E+04  0.18874536215E+04  0.00000000000E+00 0.  1.
         22    1    1    2    0    0 -0.19425118990E+03 -0.10098654694E+03  0.22372185704E+03  0.31302280549E+03  0.00000000000E+00 0.  1.
<mgrwt>
<rscale>  0 0.18269389E+04</rscale>
<asrwt>0</asrwt>
<pdfrwt beam="1">  1        2 0.47014717E+00 0.18269389E+04</pdfrwt>
<pdfrwt beam="2">  1       -2 0.42007566E-01 0.18269389E+04</pdfrwt>
<totfact> 0.81540306E+00</totfact>
</mgrwt>
</event>
<event>
 6    1  0.9562506E-007  0.1830252E+04  0.7818608E-02  0.8690375E-01
         -1   -1    0    0    0  501 -0.00000000000E+00  0.00000000000E+00  0.26190604831E+03  0.26190604831E+03  0.00000000000E+00 0.  1.
          1   -1    0    0  501    0  0.00000000000E+00 -0.00000000000E+00 -0.31975428366E+04  0.31975428366E+04  0.00000000000E+00 0. -1.
         23    2    1    2    0    0 -0.10733213191E+03 -0.76389855342E+03 -0.23941920467E+04  0.25169927349E+04  0.89641980647E+02 0.  0.
         13    1    3    3    0    0 -0.53748903276E+02 -0.54117016551E+03 -0.17918032684E+04  0.18725151656E+04  0.00000000000E+00 0. -1.
        -13    1    3    3    0    0 -0.53583228631E+02 -0.22272838791E+03 -0.60238877831E+03  0.64447756936E+03  0.00000000000E+00 0.  1.
         22    1    1    2    0    0  0.10733213191E+03  0.76389855342E+03 -0.54144474157E+03  0.94245614998E+03  0.00000000000E+00 0.  1.
<mgrwt>
<rscale>  0 0.18302522E+04</rscale>
<asrwt>0</asrwt>
<pdfrwt beam="1">  1        1 0.49192962E+00 0.18302522E+04</pdfrwt>
<pdfrwt beam="2">  1       -1 0.40293242E-01 0.18302522E+04</pdfrwt>
<totfact> 0.24243444E+00</totfact>
</mgrwt>
</event>
<event>
 6    1  0.9562506E-007  0.1669374E+04  0.7818608E-02  0.8779027E-01
          1   -1    0    0  501    0  0.00000000000E+00  0.00000000000E+00  0.60280209874E+03  0.60280209874E+03  0.00000000000E+00 0. -1.
         -1   -1    0    0    0  501 -0.00000000000E+00 -0.00000000000E+00 -0.11557735867E+04  0.11557735867E+04  0.00000000000E+00 0.  1.
         23    2    1    2    0    0  0.72586677916E+01 -0.77558495693E+03  0.40317651776E+02  0.78206315760E+03  0.91719985584E+02 0.  0.
         13    1    3    3    0    0 -0.50270866048E+01 -0.63277944250E+03 -0.13343754231E+01  0.63280081780E+03  0.00000000000E+00 0.  1.
        -13    1    3    3    0    0  0.12285754396E+02 -0.14280551443E+03  0.41652027199E+02  0.14926233980E+03  0.00000000000E+00 0. -1.
         22    1    1    2    0    0 -0.72586677916E+01  0.77558495693E+03 -0.59328913971E+03  0.97651252781E+03  0.00000000000E+00 0.  1.
<mgrwt>
<rscale>  0 0.16693744E+04</rscale>
<asrwt>0</asrwt>
<pdfrwt beam="1">  1        1 0.92738785E-01 0.16693744E+04</pdfrwt>
<pdfrwt beam="2">  1       -1 0.17781132E+00 0.16693744E+04</pdfrwt>
<totfact> 0.70032667E+00</totfact>
</mgrwt>
</event>
<event>
 6    1  0.9562506E-007  0.5570805E+03  0.7818608E-02  0.9998682E-01
         -1   -1    0    0    0  501 -0.00000000000E+00  0.00000000000E+00  0.27795162377E+03  0.27795162377E+03  0.00000000000E+00 0.  1.
          1   -1    0    0  501    0  0.00000000000E+00 -0.00000000000E+00 -0.27913008126E+03  0.27913008126E+03  0.00000000000E+00 0. -1.
         23    2    1    2    0    0  0.49801497770E+02  0.21466598752E+03  0.15716805264E+03  0.28572346829E+03  0.91511901855E+02 0.  0.
         11    1    3    3    0    0  0.63851470837E+02  0.12846053874E+03  0.13170594112E+03  0.19474489792E+03  0.00000000000E+00 0.  1.
        -11    1    3    3    0    0 -0.14049973067E+02  0.86205448777E+02  0.25462111526E+02  0.90978570363E+02  0.00000000000E+00 0. -1.
         22    1    1    2    0    0 -0.49801497770E+02 -0.21466598752E+03 -0.15834651014E+03  0.27135823675E+03  0.00000000000E+00 0. -1.
<mgrwt>
<rscale>  0 0.55708046E+03</rscale>
<asrwt>0</asrwt>
<pdfrwt beam="1">  1        1 0.42943089E-01 0.55708046E+03</pdfrwt>
<pdfrwt beam="2">  1       -1 0.42761788E-01 0.55708046E+03</pdfrwt>
<totfact> 0.52434856E+02</totfact>
</mgrwt>
</event>
<event>
 6    1  0.9562506E-007  0.1097963E+04  0.7818608E-02  0.9207179E-01
         -2   -1    0    0    0  501 -0.00000000000E+00  0.00000000000E+00  0.57698687283E+03  0.57698687283E+03  0.00000000000E+00 0.  1.
          2   -1    0    0  501    0  0.00000000000E+00 -0.00000000000E+00 -0.52233548964E+03  0.52233548964E+03  0.00000000000E+00 0. -1.
         23    2    1    2    0    0 -0.29923228012E+03 -0.72853834309E+02  0.47803012122E+03  0.57577943734E+03  0.90341159140E+02 0.  0.
         13    1    3    3    0    0 -0.19941103591E+03 -0.66818831916E+02  0.24940619288E+03  0.32624065747E+03  0.00000000000E+00 0.  1.
        -13    1    3    3    0    0 -0.99821244208E+02 -0.60350023927E+01  0.22862392834E+03  0.24953877987E+03  0.00000000000E+00 0. -1.
         22    1    1    2    0    0  0.29923228012E+03  0.72853834309E+02 -0.42337873803E+03  0.52354292513E+03  0.00000000000E+00 0. -1.
<mgrwt>
<rscale>  0 0.10979631E+04</rscale>
<asrwt>0</asrwt>
<pdfrwt beam="1">  1        2 0.80359306E-01 0.10979631E+04</pdfrwt>
<pdfrwt beam="2">  1       -2 0.88767211E-01 0.10979631E+04</pdfrwt>
<totfact> 0.63417737E+01</totfact>
</mgrwt>
</event>
<event>
 6    1  0.9562506E-007  0.1066652E+04  0.7818608E-02  0.9238318E-01
         -2   -1    0    0    0  501 -0.00000000000E+00  0.00000000000E+00  0.10098140875E+03  0.10098140875E+03  0.00000000000E+00 0.  1.
          2   -1    0    0  501    0  0.00000000000E+00 -0.00000000000E+00 -0.28167241202E+04  0.28167241202E+04  0.00000000000E+00 0. -1.
         23    2    1    2    0    0 -0.42990841845E+03 -0.89186218462E+01 -0.22126316739E+04  0.22558735969E+04  0.91246759391E+02 0.  0.
         11    1    3    3    0    0 -0.49417641086E+02 -0.17932199899E+02 -0.42051203941E+03  0.42378537295E+03  0.00000000000E+00 0. -1.
        -11    1    3    3    0    0 -0.38049077737E+03  0.90135780524E+01 -0.17921196345E+04  0.18320882240E+04  0.00000000000E+00 0.  1.
         22    1    1    2    0    0  0.42990841845E+03  0.89186218462E+01 -0.50311103756E+03  0.66183193198E+03  0.00000000000E+00 0. -1.
<mgrwt>
<rscale>  0 0.10666523E+04</rscale>
<asrwt>0</asrwt>
<pdfrwt beam="1">  1        2 0.43334216E+00 0.10666523E+04</pdfrwt>
<pdfrwt beam="2">  1       -2 0.15535602E-01 0.10666523E+04</pdfrwt>
<totfact> 0.75560859E+01</totfact>
</mgrwt>
</event>
<event>
 6    1  0.9562506E-007  0.2478459E+04  0.7818608E-02  0.8410700E-01
          2   -1    0    0  501    0  0.00000000000E+00  0.00000000000E+00  0.13636737515E+04  0.13636737515E+04  0.00000000000E+00 0. -1.
         -2   -1    0    0    0  501 -0.00000000000E+00 -0.00000000000E+00 -0.11261416019E+04  0.11261416019E+04  0.00000000000E+00 0.  1.
         23    2    1    2    0    0  0.68962265228E+03 -0.92100458553E+01 -0.91299370964E+03  0.11484078910E+04  0.98076209027E+02 0.  0.
         13    1    3    3    0    0  0.45239415771E+03 -0.17671374632E+02 -0.52185712772E+03  0.69087452780E+03  0.00000000000E+00 0.  1.
        -13    1    3    3    0    0  0.23722849457E+03  0.84613287763E+01 -0.39113658192E+03  0.45753336319E+03  0.00000000000E+00 0. -1.
         22    1    1    2    0    0 -0.68962265228E+03  0.92100458553E+01  0.11505258592E+04  0.13414074624E+04  0.00000000000E+00 0. -1.
<mgrwt>
<rscale>  0 0.24784590E+04</rscale>
<asrwt>0</asrwt>
<pdfrwt beam="1">  1        2 0.20979596E+00 0.24784590E+04</pdfrwt>
<pdfrwt beam="2">  1       -2 0.17325255E+00 0.24784590E+04</pdfrwt>
<totfact> 0.27422875E+00</totfact>
</mgrwt>
</event>
<event>
 6    1  0.9562506E-007  0.4562271E+04  0.7818608E-02  0.7899825E-01
         -2   -1    0    0    0  501 -0.00000000000E+00  0.00000000000E+00  0.18206586852E+04  0.18206586852E+04  0.00000000000E+00 0.  1.
          2   -1    0    0  501    0  0.00000000000E+00 -0.00000000000E+00 -0.28580746978E+04  0.28580746978E+04  0.00000000000E+00 0. -1.
         23    2    1    2    0    0  0.21903683063E+04  0.54355224555E+03 -0.18457974044E+03  0.22661637844E+04  0.90918954334E+02 0.  0.
         13    1    3    3    0    0  0.12115119547E+04  0.32613505597E+03 -0.14050251751E+03  0.12624841577E+04  0.00000000000E+00 0. -1.
        -13    1    3    3    0    0  0.97885635165E+03  0.21741718958E+03 -0.44077222933E+02  0.10036796267E+04  0.00000000000E+00 0.  1.
         22    1    1    2    0    0 -0.21903683063E+04 -0.54355224555E+03 -0.85283627213E+03  0.24125695986E+04  0.00000000000E+00 0. -1.
<mgrwt>
<rscale>  0 0.45622707E+04</rscale>
<asrwt>0</asrwt>
<pdfrwt beam="1">  1        2 0.43970380E+00 0.45622707E+04</pdfrwt>
<pdfrwt beam="2">  1       -2 0.28010134E+00 0.45622707E+04</pdfrwt>
<totfact> 0.67563254E-02</totfact>
</mgrwt>
</event>
<event>
 6    1  0.9562506E-007  0.1729793E+04  0.7818608E-02  0.8744553E-01
         -2   -1    0    0    0  501 -0.00000000000E+00  0.00000000000E+00  0.35512798602E+03  0.35512798602E+03  0.00000000000E+00 0.  1.
          2   -1    0    0  501    0  0.00000000000E+00 -0.00000000000E+00 -0.21064112431E+04  0.21064112431E+04  0.00000000000E+00 0. -1.
         23    2    1    2    0    0  0.15351914431E+03 -0.28705434428E+02 -0.20851319002E+04  0.20929648862E+04  0.91295366946E+02 0.  0.
         13    1    3    3    0    0  0.12590284948E+03  0.99268552094E+00 -0.18564680088E+04  0.18607326462E+04  0.00000000000E+00 0.  1.
        -13    1    3    3    0    0  0.27616294835E+02 -0.29698119949E+02 -0.22866389140E+03  0.23223224001E+03  0.00000000000E+00 0. -1.
         22    1    1    2    0    0 -0.15351914431E+03  0.28705434428E+02  0.33384864320E+03  0.36857434284E+03  0.00000000000E+00 0.  1.
<mgrwt>
<rscale>  0 0.17297926E+04</rscale>
<asrwt>0</asrwt>
<pdfrwt beam="1">  1        2 0.32406326E+00 0.17297926E+04</pdfrwt>
<pdfrwt beam="2">  1       -2 0.54635076E-01 0.17297926E+04</pdfrwt>
<totfact> 0.17443748E+01</totfact>
</mgrwt>
</event>
<event>
 6    1  0.9562506E-007  0.1654997E+04  0.7818608E-02  0.8787456E-01
          2   -1    0    0  501    0  0.00000000000E+00  0.00000000000E+00  0.86152914328E+03  0.86152914328E+03  0.00000000000E+00 0. -1.
         -2   -1    0    0    0  501 -0.00000000000E+00 -0.00000000000E+00 -0.79481229001E+03  0.79481229001E+03  0.00000000000E+00 0.  1.
         23    2    1    2    0    0  0.41344157165E+03  0.32264588598E+02 -0.68034961008E+03  0.80189234909E+03  0.90447834466E+02 0.  0.
         13    1    3    3    0    0  0.19364831718E+03  0.13797210349E+02 -0.40471771075E+03  0.44887243083E+03  0.00000000000E+00 0. -1.
        -13    1    3    3    0    0  0.21979325446E+03  0.18467378249E+02 -0.27563189933E+03  0.35301991827E+03  0.00000000000E+00 0.  1.
         22    1    1    2    0    0 -0.41344157165E+03 -0.32264588598E+02  0.74706646334E+03  0.85444908420E+03  0.00000000000E+00 0. -1.
<mgrwt>
<rscale>  0 0.16549972E+04</rscale>
<asrwt>0</asrwt>
<pdfrwt beam="1">  1        2 0.13254294E+00 0.16549972E+04</pdfrwt>
<pdfrwt beam="2">  1       -2 0.12227881E+00 0.16549972E+04</pdfrwt>
<totfact> 0.15073595E+01</totfact>
</mgrwt>
</event>
<event>
 6    1  0.9562506E-007  0.2338109E+04  0.7818608E-02  0.8463045E-01
         -2   -1    0    0    0  501 -0.00000000000E+00  0.00000000000E+00  0.84604238737E+03  0.84604238737E+03  0.00000000000E+00 0.  1.
          2   -1    0    0  501    0  0.00000000000E+00 -0.00000000000E+00 -0.16153904954E+04  0.16153904954E+04  0.00000000000E+00 0. -1.
         23    2    1    2    0    0 -0.21277369051E+03  0.70213127131E+03 -0.13410625194E+04  0.15313155065E+04  0.90650616050E+02 0.  0.
         13    1    3    3    0    0 -0.17006214448E+03  0.54845285463E+03 -0.11212282115E+04  0.12597120183E+04  0.00000000000E+00 0. -1.
        -13    1    3    3    0    0 -0.42711546024E+02  0.15367841669E+03 -0.21983430785E+03  0.27160348824E+03  0.00000000000E+00 0.  1.
         22    1    1    2    0    0  0.21277369051E+03 -0.70213127131E+03  0.57171441131E+03  0.93011737626E+03  0.00000000000E+00 0.  1.
<mgrwt>
<rscale>  0 0.23381093E+04</rscale>
<asrwt>0</asrwt>
<pdfrwt beam="1">  1        2 0.24852161E+00 0.23381093E+04</pdfrwt>
<pdfrwt beam="2">  1       -2 0.13016037E+00 0.23381093E+04</pdfrwt>
<totfact> 0.42786691E+00</totfact>
</mgrwt>
</event>
<event>
 6    1  0.9562506E-007  0.3391108E+04  0.7818608E-02  0.8140092E-01
          2   -1    0    0  501    0  0.00000000000E+00  0.00000000000E+00  0.12183063951E+04  0.12183063951E+04  0.00000000000E+00 0. -1.
         -2   -1    0    0    0  501 -0.00000000000E+00 -0.00000000000E+00 -0.23597535045E+04  0.23597535045E+04  0.00000000000E+00 0.  1.
         23    2    1    2    0    0 -0.53694544266E+03  0.11748281593E+04 -0.17280535088E+04  0.21593849262E+04  0.90789415747E+02 0.  0.
         13    1    3    3    0    0 -0.46636452900E+03  0.98508961887E+03 -0.15043893885E+04  0.18577095746E+04  0.00000000000E+00 0. -1.
        -13    1    3    3    0    0 -0.70580913657E+02  0.18973854042E+03 -0.22366412030E+03  0.30167535167E+03  0.00000000000E+00 0.  1.
         22    1    1    2    0    0  0.53694544266E+03 -0.11748281593E+04  0.58660639936E+03  0.14186749734E+04  0.00000000000E+00 0. -1.
<mgrwt>
<rscale>  0 0.33911077E+04</rscale>
<asrwt>0</asrwt>
<pdfrwt beam="1">  1        2 0.18743175E+00 0.33911077E+04</pdfrwt>
<pdfrwt beam="2">  1       -2 0.36303900E+00 0.33911077E+04</pdfrwt>
<totfact> 0.19683660E-01</totfact>
</mgrwt>
</event>
<event>
 6    1  0.9562506E-007  0.1342115E+04  0.7818608E-02  0.8996819E-01
          1   -1    0    0  501    0  0.00000000000E+00  0.00000000000E+00  0.46816999583E+03  0.46816999583E+03  0.00000000000E+00 0. -1.
         -1   -1    0    0    0  501 -0.00000000000E+00 -0.00000000000E+00 -0.96186886605E+03  0.96186886605E+03  0.00000000000E+00 0.  1.
         23    2    1    2    0    0  0.51494940087E+02  0.59962532461E+03  0.60368827215E+02  0.61199652061E+03  0.93236726540E+02 0.  0.
         11    1    3    3    0    0  0.35597650727E+02  0.10039099638E+03  0.34013097283E+02  0.11181429102E+03  0.00000000000E+00 0.  1.
        -11    1    3    3    0    0  0.15897289361E+02  0.49923432823E+03  0.26355729932E+02  0.50018222959E+03  0.00000000000E+00 0. -1.
         22    1    1    2    0    0 -0.51494940087E+02 -0.59962532461E+03 -0.55406769743E+03  0.81804234126E+03  0.00000000000E+00 0.  1.
<mgrwt>
<rscale>  0 0.13421150E+04</rscale>
<asrwt>0</asrwt>
<pdfrwt beam="1">  1        1 0.72026153E-01 0.13421150E+04</pdfrwt>
<pdfrwt beam="2">  1       -1 0.14797983E+00 0.13421150E+04</pdfrwt>
<totfact> 0.17197114E+01</totfact>
</mgrwt>
</event>
<event>
 6    1  0.9562506E-007  0.1799631E+04  0.7818608E-02  0.8706496E-01
         -1   -1    0    0    0  501 -0.00000000000E+00  0.00000000000E+00  0.72216872755E+03  0.72216872755E+03  0.00000000000E+00 0.  1.
          1   -1    0    0  501    0  0.00000000000E+00 -0.00000000000E+00 -0.11211612152E+04  0.11211612152E+04  0.00000000000E+00 0. -1.
         23    2    1    2    0    0  0.10102882285E+03 -0.74957447828E+02 -0.11102509121E+04  0.11210322283E+04  0.90723353830E+02 0.  0.
         13    1    3    3    0    0  0.43377009050E+01 -0.13657472817E+02 -0.49578567303E+03  0.49599271748E+03  0.00000000000E+00 0.  1.
        -13    1    3    3    0    0  0.96691121949E+02 -0.61299975011E+02 -0.61446523911E+03  0.62503951081E+03  0.00000000000E+00 0. -1.
         22    1    1    2    0    0 -0.10102882285E+03  0.74957447828E+02  0.71125842444E+03  0.72229771450E+03  0.00000000000E+00 0.  1.
<mgrwt>
<rscale>  0 0.17996306E+04</rscale>
<asrwt>0</asrwt>
<pdfrwt beam="1">  1        1 0.17248634E+00 0.17996306E+04</pdfrwt>
<pdfrwt beam="2">  1       -1 0.11110288E+00 0.17996306E+04</pdfrwt>
<totfact> 0.85978719E+00</totfact>
</mgrwt>
</event>
<event>
 6    1  0.9562506E-007  0.2230534E+04  0.7818608E-02  0.8505825E-01
         -1   -1    0    0    0  501 -0.00000000000E+00  0.00000000000E+00  0.90654485032E+03  0.90654485032E+03  0.00000000000E+00 0.  1.
          1   -1    0    0  501    0  0.00000000000E+00 -0.00000000000E+00 -0.13720456408E+04  0.13720456408E+04  0.00000000000E+00 0. -1.
         23    2    1    2    0    0  0.33889316442E+03 -0.73339350031E+03  0.54943658881E+03  0.98135786469E+03  0.92022226995E+02 0.  0.
         13    1    3    3    0    0  0.29077441058E+02 -0.84051380234E+02  0.29573081469E+02  0.93726726419E+02  0.00000000000E+00 0. -1.
        -13    1    3    3    0    0  0.30981572336E+03 -0.64934212008E+03  0.51986350735E+03  0.88763113827E+03  0.00000000000E+00 0.  1.
         22    1    1    2    0    0 -0.33889316442E+03  0.73339350031E+03 -0.10149373793E+04  0.12972326264E+04  0.00000000000E+00 0. -1.
<mgrwt>
<rscale>  0 0.22305344E+04</rscale>
<asrwt>0</asrwt>
<pdfrwt beam="1">  1        1 0.21108394E+00 0.22305344E+04</pdfrwt>
<pdfrwt beam="2">  1       -1 0.13946844E+00 0.22305344E+04</pdfrwt>
<totfact> 0.30950219E+00</totfact>
</mgrwt>
</event>
<event>
 6    1  0.9562506E-007  0.1695612E+04  0.7818608E-02  0.8763871E-01
         -2   -1    0    0    0  501 -0.00000000000E+00  0.00000000000E+00  0.62986620363E+03  0.62986620363E+03  0.00000000000E+00 0.  1.
          2   -1    0    0  501    0  0.00000000000E+00 -0.00000000000E+00 -0.11411545071E+04  0.11411545071E+04  0.00000000000E+00 0. -1.
         23    2    1    2    0    0  0.47467427733E+03  0.51063593038E+03  0.24210654004E+03  0.74453714379E+03  0.98261176486E+02 0.  0.
         13    1    3    3    0    0  0.36709553521E+03  0.35358245826E+03  0.21105632614E+03  0.55165610625E+03  0.00000000000E+00 0. -1.
        -13    1    3    3    0    0  0.10757874212E+03  0.15705347212E+03  0.31050213907E+02  0.19288103754E+03  0.00000000000E+00 0.  1.
         22    1    1    2    0    0 -0.47467427733E+03 -0.51063593038E+03 -0.75339484353E+03  0.10264835669E+04  0.00000000000E+00 0. -1.
<mgrwt>
<rscale>  0 0.16956116E+04</rscale>
<asrwt>0</asrwt>
<pdfrwt beam="1">  1        2 0.17556223E+00 0.16956116E+04</pdfrwt>
<pdfrwt beam="2">  1       -2 0.96902494E-01 0.16956116E+04</pdfrwt>
<totfact> 0.17410733E+01</totfact>
</mgrwt>
</event>
<event>
 6    1  0.9562506E-007  0.1825352E+04  0.7818608E-02  0.8692932E-01
         -1   -1    0    0    0  501 -0.00000000000E+00  0.00000000000E+00  0.15105096105E+04  0.15105096105E+04  0.00000000000E+00 0.  1.
          1   -1    0    0  501    0  0.00000000000E+00 -0.00000000000E+00 -0.55145477712E+03  0.55145477712E+03  0.00000000000E+00 0. -1.
         23    2    1    2    0    0 -0.45150052824E+02  0.88489688617E+03  0.24457291341E+03  0.92373530683E+03  0.91596837656E+02 0.  0.
         11    1    3    3    0    0 -0.15326428114E+02  0.65308049833E+03  0.21714427994E+03  0.68840444145E+03  0.00000000000E+00 0. -1.
        -11    1    3    3    0    0 -0.29823624710E+02  0.23181638784E+03  0.27428633475E+02  0.23533086537E+03  0.00000000000E+00 0.  1.
         22    1    1    2    0    0  0.45150052824E+02 -0.88489688617E+03  0.71448191997E+03  0.11382290808E+04  0.00000000000E+00 0. -1.
<mgrwt>
<rscale>  0 0.18253523E+04</rscale>
<asrwt>0</asrwt>
<pdfrwt beam="1">  1        1 0.84839197E-01 0.18253523E+04</pdfrwt>
<pdfrwt beam="2">  1       -1 0.23238609E+00 0.18253523E+04</pdfrwt>
<totfact> 0.33116027E+00</totfact>
</mgrwt>
</event>
<event>
 6    1  0.9562506E-007  0.1522424E+04  0.7818608E-02  0.8869676E-01
          2   -1    0    0  501    0  0.00000000000E+00  0.00000000000E+00  0.16132232561E+04  0.16132232561E+04  0.00000000000E+00 0. -1.
         -2   -1    0    0    0  501 -0.00000000000E+00 -0.00000000000E+00 -0.35918399571E+03  0.35918399571E+03  0.00000000000E+00 0.  1.
         23    2    1    2    0    0 -0.41670994527E+03 -0.58270472977E+03  0.30615668075E+03  0.78426863811E+03  0.90296195784E+02 0.  0.
         11    1    3    3    0    0 -0.17061684242E+03 -0.28144272472E+03  0.99772822994E+02  0.34391093385E+03  0.00000000000E+00 0. -1.
        -11    1    3    3    0    0 -0.24609310285E+03 -0.30126200505E+03  0.20638385776E+03  0.44035770426E+03  0.00000000000E+00 0.  1.
         22    1    1    2    0    0  0.41670994527E+03  0.58270472977E+03  0.94788257965E+03  0.11881386137E+04  0.00000000000E+00 0. -1.
<mgrwt>
<rscale>  0 0.15224243E+04</rscale>
<asrwt>0</asrwt>
<pdfrwt beam="1">  1        2 0.24818819E+00 0.15224243E+04</pdfrwt>
<pdfrwt beam="2">  1       -2 0.55259077E-01 0.15224243E+04</pdfrwt>
<totfact> 0.32552197E+01</totfact>
</mgrwt>
</event>
<event>
 6    1  0.9562506E-007  0.9189175E+03  0.7818608E-02  0.9402238E-01
          1   -1    0    0  501    0  0.00000000000E+00  0.00000000000E+00  0.39712122465E+03  0.39712122465E+03  0.00000000000E+00 0. -1.
         -1   -1    0    0    0  501 -0.00000000000E+00 -0.00000000000E+00 -0.53158156137E+03  0.53158156137E+03  0.00000000000E+00 0.  1.
         23    2    1    2    0    0 -0.27347208610E+03 -0.12778067618E+03  0.27612237807E+03  0.41910191400E+03  0.91038253320E+02 0.  0.
         11    1    3    3    0    0 -0.56403663740E+02 -0.61004024922E+02  0.42647643813E+02  0.93389966606E+02  0.00000000000E+00 0.  1.
        -11    1    3    3    0    0 -0.21706842236E+03 -0.66776651256E+02  0.23347473426E+03  0.32571194739E+03  0.00000000000E+00 0. -1.
         22    1    1    2    0    0  0.27347208610E+03  0.12778067618E+03 -0.41058271480E+03  0.50960087202E+03  0.00000000000E+00 0.  1.
<mgrwt>
<rscale>  0 0.91891745E+03</rscale>
<asrwt>0</asrwt>
<pdfrwt beam="1">  1        1 0.61095573E-01 0.91891745E+03</pdfrwt>
<pdfrwt beam="2">  1       -1 0.81781778E-01 0.91891745E+03</pdfrwt>
<totfact> 0.90830043E+01</totfact>
</mgrwt>
</event>
<event>
 6    1  0.9562506E-007  0.1423752E+04  0.7818608E-02  0.8936803E-01
         -1   -1    0    0    0  501 -0.00000000000E+00  0.00000000000E+00  0.89893534841E+03  0.89893534841E+03  0.00000000000E+00 0.  1.
          1   -1    0    0  501    0  0.00000000000E+00 -0.00000000000E+00 -0.56374195854E+03  0.56374195854E+03  0.00000000000E+00 0. -1.
         23    2    1    2    0    0  0.38725200960E+02  0.62546868228E+03 -0.17234522741E+03  0.65626168103E+03  0.90916460992E+02 0.  0.
         11    1    3    3    0    0  0.91974875895E+01  0.24510244026E+03 -0.11341234508E+03  0.27022612756E+03  0.00000000000E+00 0. -1.
        -11    1    3    3    0    0  0.29527713370E+02  0.38036624202E+03 -0.58932882324E+02  0.38603555347E+03  0.00000000000E+00 0.  1.
         22    1    1    2    0    0 -0.38725200960E+02 -0.62546868228E+03  0.50753861727E+03  0.80641562592E+03  0.00000000000E+00 0.  1.
<mgrwt>
<rscale>  0 0.14237522E+04</rscale>
<asrwt>0</asrwt>
<pdfrwt beam="1">  1        1 0.86729532E-01 0.14237522E+04</pdfrwt>
<pdfrwt beam="2">  1       -1 0.13829775E+00 0.14237522E+04</pdfrwt>
<totfact> 0.15778938E+01</totfact>
</mgrwt>
</event>
<event>
 6    1  0.9562506E-007  0.1298897E+04  0.7818608E-02  0.9030440E-01
         -1   -1    0    0    0  501 -0.00000000000E+00  0.00000000000E+00  0.39022049236E+03  0.39022049236E+03  0.00000000000E+00 0.  1.
          1   -1    0    0  501    0  0.00000000000E+00 -0.00000000000E+00 -0.10808853074E+04  0.10808853074E+04  0.00000000000E+00 0. -1.
         23    2    1    2    0    0  0.58513289267E+03  0.61643412351E+02 -0.44547754717E+02  0.59723643422E+03  0.92338743447E+02 0.  0.
         11    1    3    3    0    0  0.37495736174E+03  0.74644815664E+02 -0.55764393551E+02  0.38636063362E+03  0.00000000000E+00 0. -1.
        -11    1    3    3    0    0  0.21017553093E+03 -0.13001403313E+02  0.11216638834E+02  0.21087580060E+03  0.00000000000E+00 0.  1.
         22    1    1    2    0    0 -0.58513289267E+03 -0.61643412351E+02 -0.64611706031E+03  0.87386936552E+03  0.00000000000E+00 0. -1.
<mgrwt>
<rscale>  0 0.12988974E+04</rscale>
<asrwt>0</asrwt>
<pdfrwt beam="1">  1        1 0.16629005E+00 0.12988974E+04</pdfrwt>
<pdfrwt beam="2">  1       -1 0.60033921E-01 0.12988974E+04</pdfrwt>
<totfact> 0.36235767E+01</totfact>
</mgrwt>
</event>
<event>
 6    1  0.9562506E-007  0.2561515E+04  0.7818608E-02  0.8381392E-01
         -2   -1    0    0    0  501 -0.00000000000E+00  0.00000000000E+00  0.73188197573E+03  0.73188197573E+03  0.00000000000E+00 0.  1.
          2   -1    0    0  501    0  0.00000000000E+00 -0.00000000000E+00 -0.22412629837E+04  0.22412629837E+04  0.00000000000E+00 0. -1.
         23    2    1    2    0    0 -0.77479803989E+03 -0.39388083691E+03 -0.18449359040E+04  0.20414523038E+04  0.91021439893E+02 0.  0.
         13    1    3    3    0    0 -0.33476252341E+03 -0.16632845010E+03 -0.89979539989E+03  0.97435253479E+03  0.00000000000E+00 0. -1.
        -13    1    3    3    0    0 -0.44003551647E+03 -0.22755238681E+03 -0.94514050407E+03  0.10670997690E+04  0.00000000000E+00 0.  1.
         22    1    1    2    0    0  0.77479803989E+03  0.39388083691E+03  0.33555489603E+03  0.93169265562E+03  0.00000000000E+00 0.  1.
<mgrwt>
<rscale>  0 0.25615152E+04</rscale>
<asrwt>0</asrwt>
<pdfrwt beam="1">  1        2 0.34480968E+00 0.25615152E+04</pdfrwt>
<pdfrwt beam="2">  1       -2 0.11259723E+00 0.25615152E+04</pdfrwt>
<totfact> 0.26959597E+00</totfact>
</mgrwt>
</event>
<event>
 6    1  0.9562506E-007  0.3084885E+04  0.7818608E-02  0.8219898E-01
         -2   -1    0    0    0  501 -0.00000000000E+00  0.00000000000E+00  0.11672437735E+04  0.11672437735E+04  0.00000000000E+00 0.  1.
          2   -1    0    0  501    0  0.00000000000E+00 -0.00000000000E+00 -0.20382454104E+04  0.20382454104E+04  0.00000000000E+00 0. -1.
         23    2    1    2    0    0 -0.60753935809E+03  0.13601877477E+04 -0.25822002911E+02  0.14927301832E+04  0.91443114775E+02 0.  0.
         11    1    3    3    0    0 -0.37301344030E+03  0.93361970159E+03 -0.32350201324E+02  0.10058982599E+04  0.00000000000E+00 0.  1.
        -11    1    3    3    0    0 -0.23452591779E+03  0.42656804614E+03  0.65281984135E+01  0.48683192324E+03  0.00000000000E+00 0. -1.
         22    1    1    2    0    0  0.60753935809E+03 -0.13601877477E+04 -0.84517963407E+03  0.17127590007E+04  0.00000000000E+00 0. -1.
<mgrwt>
<rscale>  0 0.30848853E+04</rscale>
<asrwt>0</asrwt>
<pdfrwt beam="1">  1        2 0.31357621E+00 0.30848853E+04</pdfrwt>
<pdfrwt beam="2">  1       -2 0.17957597E+00 0.30848853E+04</pdfrwt>
<totfact> 0.98726891E-01</totfact>
</mgrwt>
</event>
<event>
 6    1  0.9562506E-007  0.5406641E+03  0.7818608E-02  0.1003678E+00
          2   -1    0    0  501    0  0.00000000000E+00  0.00000000000E+00  0.37737822255E+03  0.37737822255E+03  0.00000000000E+00 0. -1.
         -2   -1    0    0    0  501 -0.00000000000E+00 -0.00000000000E+00 -0.19365030926E+03  0.19365030926E+03  0.00000000000E+00 0.  1.
         23    2    1    2    0    0  0.17536005185E+03  0.19531808537E+03  0.98634855376E+02  0.29509170794E+03  0.91923768113E+02 0.  0.
         13    1    3    3    0    0  0.14283801230E+03  0.92958225219E+02  0.67089314127E+02  0.18315268348E+03  0.00000000000E+00 0.  1.
        -13    1    3    3    0    0  0.32522039553E+02  0.10235986015E+03  0.31545541249E+02  0.11193902447E+03  0.00000000000E+00 0. -1.
         22    1    1    2    0    0 -0.17536005185E+03 -0.19531808537E+03  0.85093057912E+02  0.27593682386E+03  0.00000000000E+00 0. -1.
<mgrwt>
<rscale>  0 0.54066407E+03</rscale>
<asrwt>0</asrwt>
<pdfrwt beam="1">  1        2 0.58058188E-01 0.54066407E+03</pdfrwt>
<pdfrwt beam="2">  1       -2 0.29792355E-01 0.54066407E+03</pdfrwt>
<totfact> 0.88487631E+02</totfact>
</mgrwt>
</event>
<event>
 6    1  0.9562506E-007  0.3400728E+04  0.7818608E-02  0.8137728E-01
          1   -1    0    0  501    0  0.00000000000E+00  0.00000000000E+00  0.21995486766E+04  0.21995486766E+04  0.00000000000E+00 0. -1.
         -1   -1    0    0    0  501 -0.00000000000E+00 -0.00000000000E+00 -0.13144688195E+04  0.13144688195E+04  0.00000000000E+00 0.  1.
         23    2    1    2    0    0  0.70428674096E+03 -0.15167970531E+04  0.75285385161E+03  0.18364666533E+04  0.95539170371E+02 0.  0.
         11    1    3    3    0    0  0.39234872745E+03 -0.73902684208E+03  0.35745084915E+03  0.90987323667E+03  0.00000000000E+00 0. -1.
        -11    1    3    3    0    0  0.31193801351E+03 -0.77777021101E+03  0.39540300245E+03  0.92659341664E+03  0.00000000000E+00 0.  1.
         22    1    1    2    0    0 -0.70428674096E+03  0.15167970531E+04  0.13222600554E+03  0.16775508428E+04  0.00000000000E+00 0.  1.
<mgrwt>
<rscale>  0 0.34007282E+04</rscale>
<asrwt>0</asrwt>
<pdfrwt beam="1">  1        1 0.33839210E+00 0.34007282E+04</pdfrwt>
<pdfrwt beam="2">  1       -1 0.20222597E+00 0.34007282E+04</pdfrwt>
<totfact> 0.26055555E-01</totfact>
</mgrwt>
</event>
<event>
 6    1  0.9562506E-007  0.2211208E+04  0.7818608E-02  0.8513778E-01
         -1   -1    0    0    0  501 -0.00000000000E+00  0.00000000000E+00  0.77978100289E+03  0.77978100289E+03  0.00000000000E+00 0.  1.
          1   -1    0    0  501    0  0.00000000000E+00 -0.00000000000E+00 -0.15675683251E+04  0.15675683251E+04  0.00000000000E+00 0. -1.
         23    2    1    2    0    0  0.47375279140E+03  0.50291111106E+02  0.66228376025E+03  0.82102136605E+03  0.92116237496E+02 0.  0.
         11    1    3    3    0    0  0.13154245212E+03  0.55546615897E+02  0.18438398424E+03  0.23320869814E+03  0.00000000000E+00 0. -1.
        -11    1    3    3    0    0  0.34221033928E+03 -0.52555047910E+01  0.47789977601E+03  0.58781266791E+03  0.00000000000E+00 0.  1.
         22    1    1    2    0    0 -0.47375279140E+03 -0.50291111106E+02 -0.14500710825E+04  0.15263279620E+04  0.00000000000E+00 0. -1.
<mgrwt>
<rscale>  0 0.22112078E+04</rscale>
<asrwt>0</asrwt>
<pdfrwt beam="1">  1        1 0.24116436E+00 0.22112078E+04</pdfrwt>
<pdfrwt beam="2">  1       -1 0.11996631E+00 0.22112078E+04</pdfrwt>
<totfact> 0.33146649E+00</totfact>
</mgrwt>
</event>
<event>
 6    1  0.9562506E-007  0.2148667E+04  0.7818608E-02  0.8540103E-01
          2   -1    0    0  501    0  0.00000000000E+00  0.00000000000E+00  0.29563419995E+04  0.29563419995E+04  0.00000000000E+00 0. -1.
         -2   -1    0    0    0  501 -0.00000000000E+00 -0.00000000000E+00 -0.39041233409E+03  0.39041233409E+03  0.00000000000E+00 0.  1.
         23    2    1    2    0    0 -0.86269129709E+02 -0.10271380830E+04  0.17464014565E+04  0.20299090544E+04  0.90320083595E+02 0.  0.
         11    1    3    3    0    0 -0.60001804153E+02 -0.71159612403E+03  0.12891624203E+04  0.14737398027E+04  0.00000000000E+00 0. -1.
        -11    1    3    3    0    0 -0.26267325555E+02 -0.31554195894E+03  0.45723903628E+03  0.55616925170E+03  0.00000000000E+00 0.  1.
         22    1    1    2    0    0  0.86269129709E+02  0.10271380830E+04  0.81952820891E+03  0.13168452792E+04  0.00000000000E+00 0.  1.
<mgrwt>
<rscale>  0 0.21486669E+04</rscale>
<asrwt>0</asrwt>
<pdfrwt beam="1">  1        2 0.45482183E+00 0.21486669E+04</pdfrwt>
<pdfrwt beam="2">  1       -2 0.60063438E-01 0.21486669E+04</pdfrwt>
<totfact> 0.44036320E+00</totfact>
</mgrwt>
</event>
<event>
 6    1  0.9562506E-007  0.2039397E+04  0.7818608E-02  0.8588419E-01
          2   -1    0    0  501    0  0.00000000000E+00  0.00000000000E+00  0.19193245207E+04  0.19193245207E+04  0.00000000000E+00 0. -1.
         -2   -1    0    0    0  501 -0.00000000000E+00 -0.00000000000E+00 -0.54174554078E+03  0.54174554078E+03  0.00000000000E+00 0.  1.
         23    2    1    2    0    0  0.11872555612E+03 -0.97556275903E+03  0.10025772597E+04  0.14091932889E+04  0.12184461185E+03 0.  0.
         13    1    3    3    0    0  0.92418570341E+02 -0.30233541765E+03  0.33898463005E+03  0.46352829074E+03  0.00000000000E+00 0. -1.
        -13    1    3    3    0    0  0.26306985775E+02 -0.67322734139E+03  0.66359262966E+03  0.94566499820E+03  0.00000000000E+00 0.  1.
         22    1    1    2    0    0 -0.11872555612E+03  0.97556275903E+03  0.37500172024E+03  0.10518767726E+04  0.00000000000E+00 0.  1.
<mgrwt>
<rscale>  0 0.20393975E+04</rscale>
<asrwt>0</asrwt>
<pdfrwt beam="1">  1        2 0.29528069E+00 0.20393975E+04</pdfrwt>
<pdfrwt beam="2">  1       -2 0.83345469E-01 0.20393975E+04</pdfrwt>
<totfact> 0.86437629E+00</totfact>
</mgrwt>
</event>
<event>
 6    1  0.9562506E-007  0.2643933E+04  0.7818608E-02  0.8353429E-01
          2   -1    0    0  501    0  0.00000000000E+00  0.00000000000E+00  0.17367522358E+04  0.17367522358E+04  0.00000000000E+00 0. -1.
         -2   -1    0    0    0  501 -0.00000000000E+00 -0.00000000000E+00 -0.10062434109E+04  0.10062434109E+04  0.00000000000E+00 0.  1.
         23    2    1    2    0    0 -0.69176936597E+03  0.21999164081E+03 -0.77860551312E+03  0.10683711328E+04  0.90824856379E+02 0.  0.
         13    1    3    3    0    0 -0.98060360946E+02  0.31012431482E+01 -0.83325884606E+02  0.12871928816E+03  0.00000000000E+00 0.  1.
        -13    1    3    3    0    0 -0.59370900503E+03  0.21689039767E+03 -0.69527962851E+03  0.93965184461E+03  0.00000000000E+00 0. -1.
         22    1    1    2    0    0  0.69176936597E+03 -0.21999164081E+03  0.15091143380E+04  0.16746245140E+04  0.00000000000E+00 0. -1.
<mgrwt>
<rscale>  0 0.26439331E+04</rscale>
<asrwt>0</asrwt>
<pdfrwt beam="1">  1        2 0.26719265E+00 0.26439331E+04</pdfrwt>
<pdfrwt beam="2">  1       -2 0.15480668E+00 0.26439331E+04</pdfrwt>
<totfact> 0.22716464E+00</totfact>
</mgrwt>
</event>
<event>
 6    1  0.9562506E-007  0.2024942E+04  0.7818608E-02  0.8595048E-01
          2   -1    0    0  501    0  0.00000000000E+00  0.00000000000E+00  0.20338842513E+04  0.20338842513E+04  0.00000000000E+00 0. -1.
         -2   -1    0    0    0  501 -0.00000000000E+00 -0.00000000000E+00 -0.50400965705E+03  0.50400965705E+03  0.00000000000E+00 0.  1.
         23    2    1    2    0    0  0.12549905795E+03 -0.15607282971E+03  0.20076970762E+04  0.20197982937E+04  0.92891634836E+02 0.  0.
         11    1    3    3    0    0  0.11287612071E+02 -0.82741000331E+02  0.88342949511E+03  0.88736754288E+03  0.00000000000E+00 0. -1.
        -11    1    3    3    0    0  0.11421144588E+03 -0.73331829380E+02  0.11242675811E+04  0.11324307508E+04  0.00000000000E+00 0.  1.
         22    1    1    2    0    0 -0.12549905795E+03  0.15607282971E+03 -0.47782248191E+03  0.51809561467E+03  0.00000000000E+00 0.  1.
<mgrwt>
<rscale>  0 0.20249418E+04</rscale>
<asrwt>0</asrwt>
<pdfrwt beam="1">  1        2 0.31290526E+00 0.20249418E+04</pdfrwt>
<pdfrwt beam="2">  1       -2 0.77539949E-01 0.20249418E+04</pdfrwt>
<totfact> 0.87931970E+00</totfact>
</mgrwt>
</event>
<event>
 6    1  0.9562506E-007  0.4458137E+03  0.7818608E-02  0.1028978E+00
          2   -1    0    0  501    0  0.00000000000E+00  0.00000000000E+00  0.40865640780E+03  0.40865640780E+03  0.00000000000E+00 0. -1.
         -2   -1    0    0    0  501 -0.00000000000E+00 -0.00000000000E+00 -0.12158737821E+03  0.12158737821E+03  0.00000000000E+00 0.  1.
         23    2    1    2    0    0  0.51955588093E+01  0.65716567110E+02  0.39082604011E+03  0.40731625346E+03  0.93892894704E+02 0.  0.
         13    1    3    3    0    0  0.48116472669E+02  0.31484426937E+02  0.24050776565E+03  0.24728616909E+03  0.00000000000E+00 0. -1.
        -13    1    3    3    0    0 -0.42920913859E+02  0.34232140173E+02  0.15031827446E+03  0.16003008437E+03  0.00000000000E+00 0.  1.
         22    1    1    2    0    0 -0.51955588093E+01 -0.65716567110E+02 -0.10375701053E+03  0.12292753255E+03  0.00000000000E+00 0.  1.
<mgrwt>
<rscale>  0 0.44581369E+03</rscale>
<asrwt>0</asrwt>
<pdfrwt beam="1">  1        2 0.62870216E-01 0.44581369E+03</pdfrwt>
<pdfrwt beam="2">  1       -2 0.18705751E-01 0.44581369E+03</pdfrwt>
<totfact> 0.18507420E+03</totfact>
</mgrwt>
</event>
<event>
 6    1  0.9562506E-007  0.2174510E+04  0.7818608E-02  0.8529113E-01
          2   -1    0    0  501    0  0.00000000000E+00  0.00000000000E+00  0.80556076321E+03  0.80556076321E+03  0.00000000000E+00 0. -1.
         -2   -1    0    0    0  501 -0.00000000000E+00 -0.00000000000E+00 -0.14674545312E+04  0.14674545312E+04  0.00000000000E+00 0.  1.
         23    2    1    2    0    0 -0.23425977188E+03 -0.89829345711E+03 -0.91930307589E+03  0.13096522644E+04  0.90896273801E+02 0.  0.
         11    1    3    3    0    0 -0.18412943939E+03 -0.66379212205E+03 -0.62607868268E+03  0.93085882316E+03  0.00000000000E+00 0.  1.
        -11    1    3    3    0    0 -0.50130332490E+02 -0.23450133505E+03 -0.29322439321E+03  0.37879344127E+03  0.00000000000E+00 0. -1.
         22    1    1    2    0    0  0.23425977188E+03  0.89829345711E+03  0.25740930788E+03  0.96336303000E+03  0.00000000000E+00 0. -1.
<mgrwt>
<rscale>  0 0.21745103E+04</rscale>
<asrwt>0</asrwt>
<pdfrwt beam="1">  1        2 0.12393243E+00 0.21745103E+04</pdfrwt>
<pdfrwt beam="2">  1       -2 0.22576223E+00 0.21745103E+04</pdfrwt>
<totfact> 0.28403871E+00</totfact>
</mgrwt>
</event>
<event>
 6    1  0.9562506E-007  0.2356565E+04  0.7818608E-02  0.8455946E-01
         -2   -1    0    0    0  501 -0.00000000000E+00  0.00000000000E+00  0.61588094935E+03  0.61588094935E+03  0.00000000000E+00 0.  1.
          2   -1    0    0  501    0  0.00000000000E+00 -0.00000000000E+00 -0.22542492275E+04  0.22542492275E+04  0.00000000000E+00 0. -1.
         23    2    1    2    0    0 -0.50895126106E+03 -0.26397898256E+03  0.43086951666E+03  0.72293169026E+03  0.90914240017E+02 0.  0.
         13    1    3    3    0    0 -0.13847791651E+03 -0.11879786660E+03  0.14296545777E+03  0.23179341791E+03  0.00000000000E+00 0.  1.
        -13    1    3    3    0    0 -0.37047334454E+03 -0.14518111597E+03  0.28790405889E+03  0.49113827236E+03  0.00000000000E+00 0. -1.
         22    1    1    2    0    0  0.50895126106E+03  0.26397898256E+03 -0.20692377948E+04  0.21471984866E+04  0.00000000000E+00 0. -1.
<mgrwt>
<rscale>  0 0.23565646E+04</rscale>
<asrwt>0</asrwt>
<pdfrwt beam="1">  1        2 0.34680757E+00 0.23565646E+04</pdfrwt>
<pdfrwt beam="2">  1       -2 0.94750915E-01 0.23565646E+04</pdfrwt>
<totfact> 0.40719892E+00</totfact>
</mgrwt>
</event>
<event>
 6    1  0.9562506E-007  0.2719551E+04  0.7818608E-02  0.8328689E-01
          3   -1    0    0  501    0  0.00000000000E+00  0.00000000000E+00  0.13252823102E+04  0.13252823102E+04  0.00000000000E+00 0. -1.
         -3   -1    0    0    0  501 -0.00000000000E+00 -0.00000000000E+00 -0.13951662210E+04  0.13951662210E+04  0.00000000000E+00 0.  1.
         23    2    1    2    0    0  0.41960347652E+03 -0.90163365991E+03 -0.96028530328E+03  0.13855983622E+04  0.93405692546E+02 0.  0.
         13    1    3    3    0    0  0.16940709950E+03 -0.36818964195E+03 -0.32849559409E+03  0.52170080807E+03  0.00000000000E+00 0.  1.
        -13    1    3    3    0    0  0.25019637702E+03 -0.53344401796E+03 -0.63178970919E+03  0.86389755412E+03  0.00000000000E+00 0. -1.
         22    1    1    2    0    0 -0.41960347652E+03  0.90163365991E+03  0.89040139247E+03  0.13348501691E+04  0.00000000000E+00 0.  1.
<mgrwt>
<rscale>  0 0.27195508E+04</rscale>
<asrwt>0</asrwt>
<pdfrwt beam="1">  1        3 0.20388959E+00 0.27195508E+04</pdfrwt>
<pdfrwt beam="2">  1       -3 0.21464096E+00 0.27195508E+04</pdfrwt>
<totfact> 0.37631530E-02</totfact>
</mgrwt>
</event>
<event>
 6    1  0.9562506E-007  0.9588869E+03  0.7818608E-02  0.9354823E-01
          2   -1    0    0  501    0  0.00000000000E+00  0.00000000000E+00  0.66563826737E+03  0.66563826737E+03  0.00000000000E+00 0. -1.
         -2   -1    0    0    0  501 -0.00000000000E+00 -0.00000000000E+00 -0.34533176552E+03  0.34533176552E+03  0.00000000000E+00 0.  1.
         23    2    1    2    0    0 -0.34007989350E+03 -0.27114791110E+03 -0.39290358794E+02  0.44662490281E+03  0.93565740869E+02 0.  0.
         13    1    3    3    0    0 -0.17841033141E+03 -0.19163923762E+03  0.17898925762E+01  0.26183782665E+03  0.00000000000E+00 0. -1.
        -13    1    3    3    0    0 -0.16166956209E+03 -0.79508673473E+02 -0.41080251371E+02  0.18478707616E+03  0.00000000000E+00 0.  1.
         22    1    1    2    0    0  0.34007989350E+03  0.27114791110E+03  0.35959686064E+03  0.56434513007E+03  0.00000000000E+00 0. -1.
<mgrwt>
<rscale>  0 0.95888693E+03</rscale>
<asrwt>0</asrwt>
<pdfrwt beam="1">  1        2 0.10240589E+00 0.95888693E+03</pdfrwt>
<pdfrwt beam="2">  1       -2 0.53127964E-01 0.95888693E+03</pdfrwt>
<totfact> 0.14593324E+02</totfact>
</mgrwt>
</event>
<event>
 6    1  0.9562506E-007  0.2064109E+04  0.7818608E-02  0.8577220E-01
          1   -1    0    0  501    0  0.00000000000E+00  0.00000000000E+00  0.85290539728E+03  0.85290539728E+03  0.00000000000E+00 0. -1.
         -1   -1    0    0    0  501 -0.00000000000E+00 -0.00000000000E+00 -0.12488334357E+04  0.12488334357E+04  0.00000000000E+00 0.  1.
         23    2    1    2    0    0  0.28226070565E+02  0.26679437016E+03  0.81408900950E+03  0.86233687910E+03  0.94382364146E+02 0.  0.
         13    1    3    3    0    0  0.53733714773E+02  0.16578714162E+03  0.59027015460E+03  0.61546043239E+03  0.00000000000E+00 0. -1.
        -13    1    3    3    0    0 -0.25507644208E+02  0.10100722855E+03  0.22381885490E+03  0.24687644671E+03  0.00000000000E+00 0.  1.
         22    1    1    2    0    0 -0.28226070565E+02 -0.26679437016E+03 -0.12100170479E+04  0.12394019539E+04  0.00000000000E+00 0.  1.
<mgrwt>
<rscale>  0 0.20641093E+04</rscale>
<asrwt>0</asrwt>
<pdfrwt beam="1">  1        1 0.13121622E+00 0.20641093E+04</pdfrwt>
<pdfrwt beam="2">  1       -1 0.19212822E+00 0.20641093E+04</pdfrwt>
<totfact> 0.31364892E+00</totfact>
</mgrwt>
</event>
<event>
 6    1  0.9562506E-007  0.5569181E+03  0.7818608E-02  0.9999052E-01
         -2   -1    0    0    0  501 -0.00000000000E+00  0.00000000000E+00  0.68220436428E+02  0.68220436428E+02  0.00000000000E+00 0.  1.
          2   -1    0    0  501    0  0.00000000000E+00 -0.00000000000E+00 -0.11366012432E+04  0.11366012432E+04  0.00000000000E+00 0. -1.
         23    2    1    2    0    0 -0.90405977113E+02  0.12164252232E+03 -0.10349010347E+04  0.10496087966E+04  0.87683124391E+02 0.  0.
         13    1    3    3    0    0 -0.87362927062E+01  0.63195286435E+02 -0.59391488022E+03  0.59733144232E+03  0.00000000000E+00 0. -1.
        -13    1    3    3    0    0 -0.81669684407E+02  0.58447235887E+02 -0.44098615446E+03  0.45227735425E+03  0.00000000000E+00 0.  1.
         22    1    1    2    0    0  0.90405977113E+02 -0.12164252232E+03 -0.33479772111E+02  0.15521288308E+03  0.00000000000E+00 0.  1.
<mgrwt>
<rscale>  0 0.55691807E+03</rscale>
<asrwt>0</asrwt>
<pdfrwt beam="1">  1        2 0.17486172E+00 0.55691807E+03</pdfrwt>
<pdfrwt beam="2">  1       -2 0.10495452E-01 0.55691807E+03</pdfrwt>
<totfact> 0.13260771E+03</totfact>
</mgrwt>
</event>
<event>
 6    1  0.9562506E-007  0.1882371E+04  0.7818608E-02  0.8663681E-01
          3   -1    0    0  501    0  0.00000000000E+00  0.00000000000E+00  0.34865054524E+03  0.34865054524E+03  0.00000000000E+00 0. -1.
         -3   -1    0    0    0  501 -0.00000000000E+00 -0.00000000000E+00 -0.25407399686E+04  0.25407399686E+04  0.00000000000E+00 0.  1.
         23    2    1    2    0    0 -0.90382347993E+03 -0.10806288701E+03 -0.14520288349E+04  0.17162476645E+04  0.92432884363E+02 0.  0.
         13    1    3    3    0    0 -0.67328755760E+03 -0.78982488723E+02 -0.10020827738E+04  0.12098447232E+04  0.00000000000E+00 0.  1.
        -13    1    3    3    0    0 -0.23053592232E+03 -0.29080398289E+02 -0.44994606104E+03  0.50640294124E+03  0.00000000000E+00 0. -1.
         22    1    1    2    0    0  0.90382347993E+03  0.10806288701E+03 -0.74006058850E+03  0.11731428494E+04  0.00000000000E+00 0.  1.
<mgrwt>
<rscale>  0 0.18823712E+04</rscale>
<asrwt>0</asrwt>
<pdfrwt beam="1">  1        3 0.53638543E-01 0.18823712E+04</pdfrwt>
<pdfrwt beam="2">  1       -3 0.39088309E+00 0.18823712E+04</pdfrwt>
<totfact> 0.10044335E-01</totfact>
</mgrwt>
</event>
<event>
 6    1  0.9562506E-007  0.1012860E+04  0.7818608E-02  0.9294552E-01
          4   -1    0    0  501    0  0.00000000000E+00  0.00000000000E+00  0.43846887145E+03  0.43846887145E+03  0.00000000000E+00 0. -1.
         -4   -1    0    0    0  501 -0.00000000000E+00 -0.00000000000E+00 -0.58492461675E+03  0.58492461675E+03  0.00000000000E+00 0.  1.
         23    2    1    2    0    0  0.33158583664E+03 -0.22309253240E+03 -0.38136895399E+03  0.55981646040E+03  0.90734476336E+02 0.  0.
         11    1    3    3    0    0  0.17826825289E+03 -0.15855864205E+03 -0.26634620152E+03  0.35757616254E+03  0.00000000000E+00 0. -1.
        -11    1    3    3    0    0  0.15331758376E+03 -0.64533890350E+02 -0.11502275248E+03  0.20224029786E+03  0.00000000000E+00 0.  1.
         22    1    1    2    0    0 -0.33158583664E+03  0.22309253240E+03  0.23491320869E+03  0.46357702779E+03  0.00000000000E+00 0.  1.
<mgrwt>
<rscale>  0 0.10128598E+04</rscale>
<asrwt>0</asrwt>
<pdfrwt beam="1">  1        4 0.67456750E-01 0.10128598E+04</pdfrwt>
<pdfrwt beam="2">  1       -4 0.89988402E-01 0.10128598E+04</pdfrwt>
<totfact> 0.42654790E+00</totfact>
</mgrwt>
</event>
<event>
 6    1  0.9562506E-007  0.2543006E+04  0.7818608E-02  0.8387822E-01
          2   -1    0    0  501    0  0.00000000000E+00  0.00000000000E+00  0.26948594444E+04  0.26948594444E+04  0.00000000000E+00 0. -1.
         -2   -1    0    0    0  501 -0.00000000000E+00 -0.00000000000E+00 -0.59992757327E+03  0.59992757327E+03  0.00000000000E+00 0.  1.
         23    2    1    2    0    0 -0.12901185412E+03 -0.65347620987E+03 -0.35186089701E+03  0.75894986485E+03  0.92323296897E+02 0.  0.
         13    1    3    3    0    0 -0.61319459166E+02 -0.23053212821E+03 -0.79880845704E+02  0.25156726282E+03  0.00000000000E+00 0. -1.
        -13    1    3    3    0    0 -0.67692394949E+02 -0.42294408166E+03 -0.27198005130E+03  0.50738260204E+03  0.00000000000E+00 0.  1.
         22    1    1    2    0    0  0.12901185412E+03  0.65347620987E+03  0.24467927681E+04  0.25358371528E+04  0.00000000000E+00 0. -1.
<mgrwt>
<rscale>  0 0.25430065E+04</rscale>
<asrwt>0</asrwt>
<pdfrwt beam="1">  1        2 0.41459376E+00 0.25430065E+04</pdfrwt>
<pdfrwt beam="2">  1       -2 0.92296551E-01 0.25430065E+04</pdfrwt>
<totfact> 0.23689514E+00</totfact>
</mgrwt>
</event>
<event>
 6    1  0.9562506E-007  0.1729466E+04  0.7818608E-02  0.8744735E-01
          1   -1    0    0  501    0  0.00000000000E+00  0.00000000000E+00  0.20317631455E+04  0.20317631455E+04  0.00000000000E+00 0. -1.
         -1   -1    0    0    0  501 -0.00000000000E+00 -0.00000000000E+00 -0.36803678595E+03  0.36803678595E+03  0.00000000000E+00 0.  1.
         23    2    1    2    0    0 -0.68176523754E+01  0.32503634330E+03 -0.27545782320E+03  0.43355213438E+03  0.79970844765E+02 0.  0.
         13    1    3    3    0    0 -0.17765537677E+01  0.23725312466E+03 -0.15124196030E+03  0.28136512197E+03  0.00000000000E+00 0. -1.
        -13    1    3    3    0    0 -0.50410986077E+01  0.87783218634E+02 -0.12421586290E+03  0.15218701241E+03  0.00000000000E+00 0.  1.
         22    1    1    2    0    0  0.68176523754E+01 -0.32503634330E+03  0.19391841828E+04  0.19662477971E+04  0.00000000000E+00 0. -1.
<mgrwt>
<rscale>  0 0.17294665E+04</rscale>
<asrwt>0</asrwt>
<pdfrwt beam="1">  1        1 0.31257894E+00 0.17294665E+04</pdfrwt>
<pdfrwt beam="2">  1       -1 0.56621045E-01 0.17294665E+04</pdfrwt>
<totfact> 0.85004789E+00</totfact>
</mgrwt>
</event>
<event>
 6    1  0.9562506E-007  0.2362594E+04  0.7818608E-02  0.8453642E-01
         -2   -1    0    0    0  501 -0.00000000000E+00  0.00000000000E+00  0.15773115395E+04  0.15773115395E+04  0.00000000000E+00 0.  1.
          2   -1    0    0  501    0  0.00000000000E+00 -0.00000000000E+00 -0.88470990235E+03  0.88470990235E+03  0.00000000000E+00 0. -1.
         23    2    1    2    0    0 -0.27950571981E+02 -0.68931146347E+03  0.13436346164E+04  0.15134564899E+04  0.96255058929E+02 0.  0.
         11    1    3    3    0    0 -0.13419337507E+02 -0.91566093459E+02  0.25739369859E+03  0.27352503389E+03  0.00000000000E+00 0. -1.
        -11    1    3    3    0    0 -0.14531234474E+02 -0.59774537001E+03  0.10862409178E+04  0.12399314560E+04  0.00000000000E+00 0.  1.
         22    1    1    2    0    0  0.27950571981E+02  0.68931146347E+03 -0.65103297918E+03  0.94856495198E+03  0.00000000000E+00 0. -1.
<mgrwt>
<rscale>  0 0.23625945E+04</rscale>
<asrwt>0</asrwt>
<pdfrwt beam="1">  1        2 0.13610922E+00 0.23625945E+04</pdfrwt>
<pdfrwt beam="2">  1       -2 0.24266331E+00 0.23625945E+04</pdfrwt>
<totfact> 0.19315453E+00</totfact>
</mgrwt>
</event>
<event>
 6    1  0.9562506E-007  0.3609121E+04  0.7818608E-02  0.8088406E-01
         -1   -1    0    0    0  501 -0.00000000000E+00  0.00000000000E+00  0.18783872402E+04  0.18783872402E+04  0.00000000000E+00 0.  1.
          1   -1    0    0  501    0  0.00000000000E+00 -0.00000000000E+00 -0.17336354046E+04  0.17336354046E+04  0.00000000000E+00 0. -1.
         23    2    1    2    0    0 -0.17109427077E+04 -0.49966490873E+03  0.34707508753E+03  0.18181651621E+04  0.90958618977E+02 0.  0.
         13    1    3    3    0    0 -0.12759295388E+04 -0.40732323922E+03  0.23917280769E+03  0.13605557839E+04  0.00000000000E+00 0.  1.
        -13    1    3    3    0    0 -0.43501316893E+03 -0.92341669511E+02  0.10790227984E+03  0.45760937825E+03  0.00000000000E+00 0. -1.
         22    1    1    2    0    0  0.17109427077E+04  0.49966490873E+03 -0.20232325193E+03  0.17938574827E+04  0.00000000000E+00 0. -1.
<mgrwt>
<rscale>  0 0.36091210E+04</rscale>
<asrwt>0</asrwt>
<pdfrwt beam="1">  1        1 0.26671314E+00 0.36091210E+04</pdfrwt>
<pdfrwt beam="2">  1       -1 0.28898265E+00 0.36091210E+04</pdfrwt>
<totfact> 0.14225822E-01</totfact>
</mgrwt>
</event>
<event>
 6    1  0.9562506E-007  0.9066255E+03  0.7818608E-02  0.9417337E-01
         -2   -1    0    0    0  501 -0.00000000000E+00  0.00000000000E+00  0.22821646836E+03  0.22821646836E+03  0.00000000000E+00 0.  1.
          2   -1    0    0  501    0  0.00000000000E+00 -0.00000000000E+00 -0.90042784579E+03  0.90042784579E+03  0.00000000000E+00 0. -1.
         23    2    1    2    0    0  0.19802566674E+03  0.28048787047E+03  0.20365283365E+02  0.35563070416E+03  0.90392714332E+02 0.  0.
         13    1    3    3    0    0  0.60273545493E+02  0.34466309506E+02  0.24531596138E+02  0.73638481695E+02  0.00000000000E+00 0.  1.
        -13    1    3    3    0    0  0.13775212125E+03  0.24602156096E+03 -0.41663127735E+01  0.28199222246E+03  0.00000000000E+00 0. -1.
         22    1    1    2    0    0 -0.19802566674E+03 -0.28048787047E+03 -0.69257666080E+03  0.77301361000E+03  0.00000000000E+00 0. -1.
<mgrwt>
<rscale>  0 0.90662553E+03</rscale>
<asrwt>0</asrwt>
<pdfrwt beam="1">  1        2 0.13852736E+00 0.90662553E+03</pdfrwt>
<pdfrwt beam="2">  1       -2 0.35110226E-01 0.90662553E+03</pdfrwt>
<totfact> 0.22343436E+02</totfact>
</mgrwt>
</event>
<event>
 6    1  0.9562506E-007  0.2673930E+04  0.7818608E-02  0.8343514E-01
         -2   -1    0    0    0  501 -0.00000000000E+00  0.00000000000E+00  0.92727685044E+03  0.92727685044E+03  0.00000000000E+00 0.  1.
          2   -1    0    0  501    0  0.00000000000E+00 -0.00000000000E+00 -0.19276608862E+04  0.19276608862E+04  0.00000000000E+00 0. -1.
         23    2    1    2    0    0  0.74071995498E+03  0.42700733896E+03  0.59438325623E+03  0.10454394540E+04  0.93010093445E+02 0.  0.
         13    1    3    3    0    0  0.43896216424E+03  0.26126722708E+03  0.40919737953E+03  0.65451573014E+03  0.00000000000E+00 0. -1.
        -13    1    3    3    0    0  0.30175779074E+03  0.16574011188E+03  0.18518587669E+03  0.39092372387E+03  0.00000000000E+00 0.  1.
         22    1    1    2    0    0 -0.74071995498E+03 -0.42700733896E+03 -0.15947672920E+04  0.18094982826E+04  0.00000000000E+00 0. -1.
<mgrwt>
<rscale>  0 0.26739299E+04</rscale>
<asrwt>0</asrwt>
<pdfrwt beam="1">  1        2 0.29656322E+00 0.26739299E+04</pdfrwt>
<pdfrwt beam="2">  1       -2 0.14265798E+00 0.26739299E+04</pdfrwt>
<totfact> 0.22038204E+00</totfact>
</mgrwt>
</event>
<event>
 6    1  0.9562506E-007  0.2422038E+04  0.7818608E-02  0.8431299E-01
         -2   -1    0    0    0  501 -0.00000000000E+00  0.00000000000E+00  0.12355065690E+04  0.12355065690E+04  0.00000000000E+00 0.  1.
          2   -1    0    0  501    0  0.00000000000E+00 -0.00000000000E+00 -0.11870167545E+04  0.11870167545E+04  0.00000000000E+00 0. -1.
         23    2    1    2    0    0 -0.67185229769E+03  0.76561174623E+03  0.67623838942E+03  0.12260221204E+04  0.91022109518E+02 0.  0.
         11    1    3    3    0    0 -0.42087041907E+03  0.49804397257E+03  0.38174369429E+03  0.75558451307E+03  0.00000000000E+00 0.  1.
        -11    1    3    3    0    0 -0.25098187862E+03  0.26756777367E+03  0.29449469513E+03  0.47043760730E+03  0.00000000000E+00 0. -1.
         22    1    1    2    0    0  0.67185229769E+03 -0.76561174623E+03 -0.62774857495E+03  0.11965012032E+04  0.00000000000E+00 0. -1.
<mgrwt>
<rscale>  0 0.24220380E+04</rscale>
<asrwt>0</asrwt>
<pdfrwt beam="1">  1        2 0.18261796E+00 0.24220380E+04</pdfrwt>
<pdfrwt beam="2">  1       -2 0.19007793E+00 0.24220380E+04</pdfrwt>
<totfact> 0.26795975E+00</totfact>
</mgrwt>
</event>
<event>
 6    1  0.9562506E-007  0.5517449E+04  0.7818608E-02  0.7753293E-01
          2   -1    0    0  501    0  0.00000000000E+00  0.00000000000E+00  0.32718987073E+04  0.32718987073E+04  0.00000000000E+00 0. -1.
         -2   -1    0    0    0  501 -0.00000000000E+00 -0.00000000000E+00 -0.23260377790E+04  0.23260377790E+04  0.00000000000E+00 0.  1.
         23    2    1    2    0    0  0.23940223383E+04 -0.88196750817E+03 -0.58949745434E+03  0.26202637365E+04  0.95211127064E+02 0.  0.
         13    1    3    3    0    0  0.22388748294E+04 -0.84429472562E+03 -0.56688432649E+03  0.24590144215E+04  0.00000000000E+00 0. -1.
        -13    1    3    3    0    0  0.15514750887E+03 -0.37672782546E+02 -0.22613127849E+02  0.16124931505E+03  0.00000000000E+00 0.  1.
         22    1    1    2    0    0 -0.23940223383E+04  0.88196750817E+03  0.15353583827E+04  0.29776727498E+04  0.00000000000E+00 0. -1.
<mgrwt>
<rscale>  0 0.55174487E+04</rscale>
<asrwt>0</asrwt>
<pdfrwt beam="1">  1        2 0.50336903E+00 0.55174487E+04</pdfrwt>
<pdfrwt beam="2">  1       -2 0.35785197E+00 0.55174487E+04</pdfrwt>
<totfact> 0.11266156E-02</totfact>
</mgrwt>
</event>
<event>
 6    1  0.9562506E-007  0.1823400E+04  0.7818608E-02  0.8693954E-01
         -1   -1    0    0    0  501 -0.00000000000E+00  0.00000000000E+00  0.36198747505E+03  0.36198747505E+03  0.00000000000E+00 0.  1.
          1   -1    0    0  501    0  0.00000000000E+00 -0.00000000000E+00 -0.22962030957E+04  0.22962030957E+04  0.00000000000E+00 0. -1.
         23    2    1    2    0    0  0.76443480810E+01 -0.42549897367E+03  0.20217011436E+03  0.47983067822E+03  0.90867551789E+02 0.  0.
         13    1    3    3    0    0  0.28451083328E+02 -0.22250139934E+03  0.63556305450E+02  0.23314317664E+03  0.00000000000E+00 0. -1.
        -13    1    3    3    0    0 -0.20806735247E+02 -0.20299757433E+03  0.13861380891E+03  0.24668750158E+03  0.00000000000E+00 0.  1.
         22    1    1    2    0    0 -0.76443480810E+01  0.42549897367E+03 -0.21363857350E+04  0.21783598926E+04  0.00000000000E+00 0. -1.
<mgrwt>
<rscale>  0 0.18233999E+04</rscale>
<asrwt>0</asrwt>
<pdfrwt beam="1">  1        1 0.35326202E+00 0.18233999E+04</pdfrwt>
<pdfrwt beam="2">  1       -1 0.55690381E-01 0.18233999E+04</pdfrwt>
<totfact> 0.57527927E+00</totfact>
</mgrwt>
</event>
<event>
 6    1  0.9562506E-007  0.2641454E+04  0.7818608E-02  0.8354255E-01
         -1   -1    0    0    0  501 -0.00000000000E+00  0.00000000000E+00  0.12690275903E+04  0.12690275903E+04  0.00000000000E+00 0.  1.
          1   -1    0    0  501    0  0.00000000000E+00 -0.00000000000E+00 -0.13745323045E+04  0.13745323045E+04  0.00000000000E+00 0. -1.
         23    2    1    2    0    0 -0.11854140374E+04  0.48698841012E+02  0.52423870840E+03  0.13003716000E+04  0.92531385731E+02 0.  0.
         11    1    3    3    0    0 -0.67915723441E+03 -0.11642476266E+02  0.27411120873E+03  0.73248006871E+03  0.00000000000E+00 0. -1.
        -11    1    3    3    0    0 -0.50625680302E+03  0.60341317278E+02  0.25012749967E+03  0.56789153125E+03  0.00000000000E+00 0.  1.
         22    1    1    2    0    0  0.11854140374E+04 -0.48698841012E+02 -0.62974342257E+03  0.13431882949E+04  0.00000000000E+00 0. -1.
<mgrwt>
<rscale>  0 0.26414537E+04</rscale>
<asrwt>0</asrwt>
<pdfrwt beam="1">  1        1 0.21146651E+00 0.26414537E+04</pdfrwt>
<pdfrwt beam="2">  1       -1 0.19523501E+00 0.26414537E+04</pdfrwt>
<totfact> 0.11412311E+00</totfact>
</mgrwt>
</event>
<event>
 6    1  0.9562506E-007  0.2799338E+04  0.7818608E-02  0.8303474E-01
          2   -1    0    0  501    0  0.00000000000E+00  0.00000000000E+00  0.33126216521E+04  0.33126216521E+04  0.00000000000E+00 0. -1.
         -2   -1    0    0    0  501 -0.00000000000E+00 -0.00000000000E+00 -0.59139660832E+03  0.59139660832E+03  0.00000000000E+00 0.  1.
         23    2    1    2    0    0  0.16418116834E+03 -0.69879860075E+03  0.30353956876E+04  0.31204506923E+04  0.91162506389E+02 0.  0.
         13    1    3    3    0    0  0.73676533252E+02 -0.30472052468E+03  0.11338728889E+04  0.11764142799E+04  0.00000000000E+00 0. -1.
        -13    1    3    3    0    0  0.90504635090E+02 -0.39407807608E+03  0.19015227986E+04  0.19440364124E+04  0.00000000000E+00 0.  1.
         22    1    1    2    0    0 -0.16418116834E+03  0.69879860075E+03 -0.31417064376E+03  0.78356756815E+03  0.00000000000E+00 0.  1.
<mgrwt>
<rscale>  0 0.27993379E+04</rscale>
<asrwt>0</asrwt>
<pdfrwt beam="1">  1        2 0.50963409E+00 0.27993379E+04</pdfrwt>
<pdfrwt beam="2">  1       -2 0.90984096E-01 0.27993379E+04</pdfrwt>
<totfact> 0.97936378E-01</totfact>
</mgrwt>
</event>
<event>
 6    1  0.1243600E-006  0.3699905E+04  0.7818608E-02  0.8067983E-01
          2   -1    0    0  501    0  0.00000000000E+00  0.00000000000E+00  0.17421640978E+04  0.17421640978E+04  0.00000000000E+00 0. -1.
         -2   -1    0    0    0  501 -0.00000000000E+00 -0.00000000000E+00 -0.19644098360E+04  0.19644098360E+04  0.00000000000E+00 0.  1.
         23    2    1    2    0    0  0.16936584884E+04  0.74118727328E+03 -0.13086742687E+03  0.18555775413E+04  0.90576370824E+02 0.  0.
         11    1    3    3    0    0  0.97294914804E+03  0.37675743886E+03 -0.74180198061E+02  0.10459822724E+04  0.00000000000E+00 0.  1.
        -11    1    3    3    0    0  0.72070934033E+03  0.36442983441E+03 -0.56687228814E+02  0.80959526886E+03  0.00000000000E+00 0. -1.
         22    1    1    2    0    0 -0.16936584884E+04 -0.74118727328E+03 -0.91378311341E+02  0.18509963925E+04  0.00000000000E+00 0.  1.
<mgrwt>
<rscale>  0 0.36999050E+04</rscale>
<asrwt>0</asrwt>
<pdfrwt beam="1">  1        2 0.26802525E+00 0.36999050E+04</pdfrwt>
<pdfrwt beam="2">  1       -2 0.30221690E+00 0.36999050E+04</pdfrwt>
<totfact> 0.23136983E-01</totfact>
</mgrwt>
</event>
<event>
 6    1  0.9562506E-007  0.2441438E+04  0.7818608E-02  0.8424151E-01
         -2   -1    0    0    0  501 -0.00000000000E+00  0.00000000000E+00  0.12306641434E+04  0.12306641434E+04  0.00000000000E+00 0.  1.
          2   -1    0    0  501    0  0.00000000000E+00 -0.00000000000E+00 -0.12108545739E+04  0.12108545739E+04  0.00000000000E+00 0. -1.
         23    2    1    2    0    0  0.33956573238E+03 -0.10852728305E+04  0.44909153117E+03  0.12260332152E+04  0.91390581018E+02 0.  0.
         13    1    3    3    0    0  0.24810121799E+03 -0.90836930698E+03  0.37408020557E+03  0.10132250552E+04  0.00000000000E+00 0.  1.
        -13    1    3    3    0    0  0.91464514396E+02 -0.17690352352E+03  0.75011325599E+02  0.21280816007E+03  0.00000000000E+00 0. -1.
         22    1    1    2    0    0 -0.33956573238E+03  0.10852728305E+04 -0.42928196166E+03  0.12154855021E+04  0.00000000000E+00 0. -1.
<mgrwt>
<rscale>  0 0.24414384E+04</rscale>
<asrwt>0</asrwt>
<pdfrwt beam="1">  1        2 0.18628532E+00 0.24414384E+04</pdfrwt>
<pdfrwt beam="2">  1       -2 0.18933295E+00 0.24414384E+04</pdfrwt>
<totfact> 0.26189167E+00</totfact>
</mgrwt>
</event>
<event>
 6    1  0.9562506E-007  0.1745184E+04  0.7818608E-02  0.8736006E-01
          1   -1    0    0  501    0  0.00000000000E+00  0.00000000000E+00  0.19072785266E+04  0.19072785266E+04  0.00000000000E+00 0. -1.
         -1   -1    0    0    0  501 -0.00000000000E+00 -0.00000000000E+00 -0.39921622589E+03  0.39921622589E+03  0.00000000000E+00 0.  1.
         23    2    1    2    0    0  0.77551670418E+02  0.22449293922E+03  0.18626108488E+04  0.18797442232E+04  0.87794245262E+02 0.  0.
         11    1    3    3    0    0  0.54293819969E+02  0.63183984074E+02  0.85365538108E+03  0.85771064140E+03  0.00000000000E+00 0.  1.
        -11    1    3    3    0    0  0.23257850449E+02  0.16130895515E+03  0.10089554677E+04  0.10220335818E+04  0.00000000000E+00 0. -1.
         22    1    1    2    0    0 -0.77551670418E+02 -0.22449293922E+03 -0.35454854802E+03  0.42675052929E+03  0.00000000000E+00 0.  1.
<mgrwt>
<rscale>  0 0.17451837E+04</rscale>
<asrwt>0</asrwt>
<pdfrwt beam="1">  1        1 0.29342746E+00 0.17451837E+04</pdfrwt>
<pdfrwt beam="2">  1       -1 0.61417882E-01 0.17451837E+04</pdfrwt>
<totfact> 0.87811044E+00</totfact>
</mgrwt>
</event>
<event>
 6    1  0.9562506E-007  0.2983302E+04  0.7818608E-02  0.8248515E-01
         -1   -1    0    0    0  501 -0.00000000000E+00  0.00000000000E+00  0.46470560078E+03  0.46470560078E+03  0.00000000000E+00 0.  1.
          1   -1    0    0  501    0  0.00000000000E+00 -0.00000000000E+00 -0.47880257718E+04  0.47880257718E+04  0.00000000000E+00 0. -1.
         23    2    1    2    0    0  0.78270749217E+03  0.83444801923E+03 -0.38447118724E+04  0.40125699240E+04  0.99867401285E+02 0.  0.
         11    1    3    3    0    0  0.54010392818E+03  0.63999904416E+03 -0.28248299189E+04  0.29463494533E+04  0.00000000000E+00 0. -1.
        -11    1    3    3    0    0  0.24260356399E+03  0.19444897507E+03 -0.10198819535E+04  0.10662204707E+04  0.00000000000E+00 0.  1.
         22    1    1    2    0    0 -0.78270749217E+03 -0.83444801923E+03 -0.47860829861E+03  0.12401614486E+04  0.00000000000E+00 0.  1.
<mgrwt>
<rscale>  0 0.29833018E+04</rscale>
<asrwt>0</asrwt>
<pdfrwt beam="1">  1        1 0.73661930E+00 0.29833018E+04</pdfrwt>
<pdfrwt beam="2">  1       -1 0.71493175E-01 0.29833018E+04</pdfrwt>
<totfact> 0.26347819E-02</totfact>
</mgrwt>
</event>
<event>
 6    1  0.9562506E-007  0.2677804E+04  0.7818608E-02  0.8342243E-01
         -2   -1    0    0    0  501 -0.00000000000E+00  0.00000000000E+00  0.89100809581E+03  0.89100809581E+03  0.00000000000E+00 0.  1.
          2   -1    0    0  501    0  0.00000000000E+00 -0.00000000000E+00 -0.20119446125E+04  0.20119446125E+04  0.00000000000E+00 0. -1.
         23    2    1    2    0    0  0.97288900839E+02 -0.79245818183E+03 -0.17242221361E+04  0.19022486367E+04  0.90292862156E+02 0.  0.
         13    1    3    3    0    0  0.29178175973E+02 -0.68139456006E+02 -0.20031685366E+03  0.21359118258E+03  0.00000000000E+00 0. -1.
        -13    1    3    3    0    0  0.68110724866E+02 -0.72431872582E+03 -0.15239052825E+04  0.16886574541E+04  0.00000000000E+00 0.  1.
         22    1    1    2    0    0 -0.97288900839E+02  0.79245818183E+03  0.60328561948E+03  0.10007040716E+04  0.00000000000E+00 0.  1.
<mgrwt>
<rscale>  0 0.26778043E+04</rscale>
<asrwt>0</asrwt>
<pdfrwt beam="1">  1        2 0.30952994E+00 0.26778043E+04</pdfrwt>
<pdfrwt beam="2">  1       -2 0.13707817E+00 0.26778043E+04</pdfrwt>
<totfact> 0.21938250E+00</totfact>
</mgrwt>
</event>
<event>
 6    1  0.9562506E-007  0.1661529E+04  0.7818608E-02  0.8783615E-01
          2   -1    0    0  501    0  0.00000000000E+00  0.00000000000E+00  0.15146157429E+04  0.15146157429E+04  0.00000000000E+00 0. -1.
         -2   -1    0    0    0  501 -0.00000000000E+00 -0.00000000000E+00 -0.45567304740E+03  0.45567304740E+03  0.00000000000E+00 0.  1.
         23    2    1    2    0    0  0.82139139963E+03  0.10561385358E+03  0.51484140612E+03  0.97938802304E+03  0.91110420772E+02 0.  0.
         11    1    3    3    0    0  0.67350344943E+03  0.11602968756E+03  0.40019071830E+03  0.79197373429E+03  0.00000000000E+00 0.  1.
        -11    1    3    3    0    0  0.14788795020E+03 -0.10415833984E+02  0.11465068782E+03  0.18741428876E+03  0.00000000000E+00 0. -1.
         22    1    1    2    0    0 -0.82139139963E+03 -0.10561385358E+03  0.54410128938E+03  0.99090076726E+03  0.00000000000E+00 0. -1.
<mgrwt>
<rscale>  0 0.16615289E+04</rscale>
<asrwt>0</asrwt>
<pdfrwt beam="1">  1        2 0.23301780E+00 0.16615289E+04</pdfrwt>
<pdfrwt beam="2">  1       -2 0.70103546E-01 0.16615289E+04</pdfrwt>
<totfact> 0.22023979E+01</totfact>
</mgrwt>
</event>
<event>
 6    1  0.9562506E-007  0.2604746E+04  0.7818608E-02  0.8366591E-01
          2   -1    0    0  501    0  0.00000000000E+00  0.00000000000E+00  0.18444873852E+04  0.18444873852E+04  0.00000000000E+00 0. -1.
         -2   -1    0    0    0  501 -0.00000000000E+00 -0.00000000000E+00 -0.91959162126E+03  0.91959162126E+03  0.00000000000E+00 0.  1.
         23    2    1    2    0    0  0.65498922587E+03  0.10763591876E+04  0.11980735432E+03  0.12688441306E+04  0.89730923706E+02 0.  0.
         13    1    3    3    0    0  0.57113421591E+03  0.92001890123E+03  0.13263211565E+03  0.10909722037E+04  0.00000000000E+00 0.  1.
        -13    1    3    3    0    0  0.83855009957E+02  0.15634028642E+03 -0.12824761324E+02  0.17787192683E+03  0.00000000000E+00 0. -1.
         22    1    1    2    0    0 -0.65498922587E+03 -0.10763591876E+04  0.80508840965E+03  0.14952348759E+04  0.00000000000E+00 0. -1.
<mgrwt>
<rscale>  0 0.26047458E+04</rscale>
<asrwt>0</asrwt>
<pdfrwt beam="1">  1        2 0.28376729E+00 0.26047458E+04</pdfrwt>
<pdfrwt beam="2">  1       -2 0.14147563E+00 0.26047458E+04</pdfrwt>
<totfact> 0.25193504E+00</totfact>
</mgrwt>
</event>
<event>
 6    1  0.9562506E-007  0.2143597E+04  0.7818608E-02  0.8542278E-01
         -1   -1    0    0    0  501 -0.00000000000E+00  0.00000000000E+00  0.83015051140E+03  0.83015051140E+03  0.00000000000E+00 0.  1.
          1   -1    0    0  501    0  0.00000000000E+00 -0.00000000000E+00 -0.13837879312E+04  0.13837879312E+04  0.00000000000E+00 0. -1.
         23    2    1    2    0    0 -0.22919671601E+03  0.75563063305E+03 -0.10232062517E+04  0.12952417157E+04  0.84801417661E+02 0.  0.
         13    1    3    3    0    0 -0.12593315247E+03  0.49820964761E+03 -0.71643076956E+03  0.88167174131E+03  0.00000000000E+00 0. -1.
        -13    1    3    3    0    0 -0.10326356354E+03  0.25742098545E+03 -0.30677548211E+03  0.41356997440E+03  0.00000000000E+00 0.  1.
         22    1    1    2    0    0  0.22919671601E+03 -0.75563063305E+03  0.46956883182E+03  0.91869672692E+03  0.00000000000E+00 0.  1.
<mgrwt>
<rscale>  0 0.21435972E+04</rscale>
<asrwt>0</asrwt>
<pdfrwt beam="1">  1        1 0.21289045E+00 0.21435972E+04</pdfrwt>
<pdfrwt beam="2">  1       -1 0.12771547E+00 0.21435972E+04</pdfrwt>
<totfact> 0.38325975E+00</totfact>
</mgrwt>
</event>
<event>
 6    1  0.9562506E-007  0.2101967E+04  0.7818608E-02  0.8560377E-01
         -2   -1    0    0    0  501 -0.00000000000E+00  0.00000000000E+00  0.34467068152E+03  0.34467068152E+03  0.00000000000E+00 0.  1.
          2   -1    0    0  501    0  0.00000000000E+00 -0.00000000000E+00 -0.32046998259E+04  0.32046998259E+04  0.00000000000E+00 0. -1.
         23    2    1    2    0    0  0.66492091761E+03 -0.79803234034E+03 -0.11821308324E+04  0.15759678146E+04  0.85239689714E+02 0.  0.
         11    1    3    3    0    0  0.56408683976E+03 -0.65312111989E+03 -0.93676812694E+03  0.12736937166E+04  0.00000000000E+00 0. -1.
        -11    1    3    3    0    0  0.10083407784E+03 -0.14491122045E+03 -0.24536270547E+03  0.30227409797E+03  0.00000000000E+00 0.  1.
         22    1    1    2    0    0 -0.66492091761E+03  0.79803234034E+03 -0.16778983119E+04  0.19734026928E+04  0.00000000000E+00 0.  1.
<mgrwt>
<rscale>  0 0.21019668E+04</rscale>
<asrwt>0</asrwt>
<pdfrwt beam="1">  1        2 0.49303072E+00 0.21019668E+04</pdfrwt>
<pdfrwt beam="2">  1       -2 0.53026261E-01 0.21019668E+04</pdfrwt>
<totfact> 0.39899135E+00</totfact>
</mgrwt>
</event>
<event>
 6    1  0.9562506E-007  0.4498261E+03  0.7818608E-02  0.1027774E+00
          3   -1    0    0  501    0  0.00000000000E+00  0.00000000000E+00  0.17747450616E+03  0.17747450616E+03  0.00000000000E+00 0. -1.
         -3   -1    0    0    0  501 -0.00000000000E+00 -0.00000000000E+00 -0.28503178095E+03  0.28503178095E+03  0.00000000000E+00 0.  1.
         23    2    1    2    0    0 -0.20629308117E+03  0.19934955206E+02 -0.48066532786E+02  0.24688303660E+03  0.12524617523E+03 0.  0.
         13    1    3    3    0    0 -0.18842201532E+02 -0.39978881485E+02 -0.18368750332E+02  0.47861785509E+02  0.00000000000E+00 0.  1.
        -13    1    3    3    0    0 -0.18745087963E+03  0.59913836691E+02 -0.29697782454E+02  0.19902125109E+03  0.00000000000E+00 0. -1.
         22    1    1    2    0    0  0.20629308117E+03 -0.19934955206E+02 -0.59490742003E+02  0.21562325051E+03  0.00000000000E+00 0. -1.
<mgrwt>
<rscale>  0 0.44982608E+03</rscale>
<asrwt>0</asrwt>
<pdfrwt beam="1">  1        3 0.27303770E-01 0.44982608E+03</pdfrwt>
<pdfrwt beam="2">  1       -3 0.43851043E-01 0.44982608E+03</pdfrwt>
<totfact> 0.17329799E+02</totfact>
</mgrwt>
</event>
<event>
 6    1  0.9562506E-007  0.4590814E+04  0.7818608E-02  0.7894928E-01
          2   -1    0    0  501    0  0.00000000000E+00  0.00000000000E+00  0.21183418092E+04  0.21183418092E+04  0.00000000000E+00 0. -1.
         -2   -1    0    0    0  501 -0.00000000000E+00 -0.00000000000E+00 -0.24872730067E+04  0.24872730067E+04  0.00000000000E+00 0.  1.
         23    2    1    2    0    0  0.21360911160E+04  0.82354332166E+03 -0.33893805158E+03  0.23160715323E+04  0.90550987071E+02 0.  0.
         13    1    3    3    0    0  0.54350987168E+03  0.23137674731E+03 -0.12188468729E+03  0.60315342725E+03  0.00000000000E+00 0. -1.
        -13    1    3    3    0    0  0.15925812443E+04  0.59216657435E+03 -0.21705336429E+03  0.17129181050E+04  0.00000000000E+00 0.  1.
         22    1    1    2    0    0 -0.21360911160E+04 -0.82354332166E+03 -0.29993145901E+02  0.22895432836E+04  0.00000000000E+00 0. -1.
<mgrwt>
<rscale>  0 0.45908145E+04</rscale>
<asrwt>0</asrwt>
<pdfrwt beam="1">  1        2 0.32589874E+00 0.45908145E+04</pdfrwt>
<pdfrwt beam="2">  1       -2 0.38265738E+00 0.45908145E+04</pdfrwt>
<totfact> 0.41545965E-02</totfact>
</mgrwt>
</event>
<event>
 6    1  0.9562506E-007  0.7104969E+03  0.7818608E-02  0.9699448E-01
         -2   -1    0    0    0  501 -0.00000000000E+00  0.00000000000E+00  0.21544118413E+03  0.21544118413E+03  0.00000000000E+00 0.  1.
          2   -1    0    0  501    0  0.00000000000E+00 -0.00000000000E+00 -0.58578149443E+03  0.58578149443E+03  0.00000000000E+00 0. -1.
         23    2    1    2    0    0  0.33376642250E+03  0.94468560038E+02 -0.23235066173E+03  0.42790582020E+03  0.93766877563E+02 0.  0.
         11    1    3    3    0    0  0.11819110728E+03  0.56800049823E+02 -0.41519886199E+02  0.13754738983E+03  0.00000000000E+00 0.  1.
        -11    1    3    3    0    0  0.21557531523E+03  0.37668510216E+02 -0.19083077553E+03  0.29035843037E+03  0.00000000000E+00 0. -1.
         22    1    1    2    0    0 -0.33376642250E+03 -0.94468560038E+02 -0.13798964857E+03  0.37331685836E+03  0.00000000000E+00 0.  1.
<mgrwt>
<rscale>  0 0.71049689E+03</rscale>
<asrwt>0</asrwt>
<pdfrwt beam="1">  1        2 0.90120229E-01 0.71049689E+03</pdfrwt>
<pdfrwt beam="2">  1       -2 0.33144798E-01 0.71049689E+03</pdfrwt>
<totfact> 0.43678047E+02</totfact>
</mgrwt>
</event>
<event>
 6    1  0.9562506E-007  0.3055382E+04  0.7818608E-02  0.8228091E-01
          2   -1    0    0  501    0  0.00000000000E+00  0.00000000000E+00  0.25501916749E+04  0.25501916749E+04  0.00000000000E+00 0. -1.
         -2   -1    0    0    0  501 -0.00000000000E+00 -0.00000000000E+00 -0.91516248970E+03  0.91516248970E+03  0.00000000000E+00 0.  1.
         23    2    1    2    0    0  0.54209651200E+03  0.12440058392E+04  0.25621011050E+02  0.13602143053E+04  0.90040901071E+02 0.  0.
         13    1    3    3    0    0  0.29974794985E+03  0.57644590536E+03  0.57805166422E+01  0.64974774307E+03  0.00000000000E+00 0.  1.
        -13    1    3    3    0    0  0.24234856215E+03  0.66755993382E+03  0.19840494407E+02  0.71046656222E+03  0.00000000000E+00 0. -1.
         22    1    1    2    0    0 -0.54209651200E+03 -0.12440058392E+04  0.16094081742E+04  0.21051398593E+04  0.00000000000E+00 0. -1.
<mgrwt>
<rscale>  0 0.30553820E+04</rscale>
<asrwt>0</asrwt>
<pdfrwt beam="1">  1        2 0.39233718E+00 0.30553820E+04</pdfrwt>
<pdfrwt beam="2">  1       -2 0.14079423E+00 0.30553820E+04</pdfrwt>
<totfact> 0.98130355E-01</totfact>
</mgrwt>
</event>
<event>
 6    1  0.9562506E-007  0.1727749E+04  0.7818608E-02  0.8745694E-01
         -2   -1    0    0    0  501 -0.00000000000E+00  0.00000000000E+00  0.92486235316E+03  0.92486235316E+03  0.00000000000E+00 0.  1.
          2   -1    0    0  501    0  0.00000000000E+00 -0.00000000000E+00 -0.80690859639E+03  0.80690859639E+03  0.00000000000E+00 0. -1.
         23    2    1    2    0    0 -0.32313447534E+03  0.73592825212E+03  0.36987464543E+03  0.88947028140E+03  0.91344659090E+02 0.  0.
         11    1    3    3    0    0 -0.15519206439E+03  0.46441766342E+03  0.22532685367E+03  0.53901812023E+03  0.00000000000E+00 0.  1.
        -11    1    3    3    0    0 -0.16794241094E+03  0.27151058870E+03  0.14454779175E+03  0.35045216117E+03  0.00000000000E+00 0. -1.
         22    1    1    2    0    0  0.32313447534E+03 -0.73592825212E+03 -0.25192088866E+03  0.84230066814E+03  0.00000000000E+00 0. -1.
<mgrwt>
<rscale>  0 0.17277493E+04</rscale>
<asrwt>0</asrwt>
<pdfrwt beam="1">  1        2 0.12413978E+00 0.17277493E+04</pdfrwt>
<pdfrwt beam="2">  1       -2 0.14228652E+00 0.17277493E+04</pdfrwt>
<totfact> 0.11128823E+01</totfact>
</mgrwt>
</event>
<event>
 6    1  0.9562506E-007  0.2582268E+04  0.7818608E-02  0.8374249E-01
          2   -1    0    0  501    0  0.00000000000E+00  0.00000000000E+00  0.29487390355E+04  0.29487390355E+04  0.00000000000E+00 0. -1.
         -2   -1    0    0    0  501 -0.00000000000E+00 -0.00000000000E+00 -0.56533566882E+03  0.56533566882E+03  0.00000000000E+00 0.  1.
         23    2    1    2    0    0  0.82809240760E+03  0.89742274775E+03  0.62914501258E+03  0.13766634204E+04  0.90962093646E+02 0.  0.
         13    1    3    3    0    0  0.40308085209E+03  0.45803593352E+03  0.26576441715E+03  0.66550868900E+03  0.00000000000E+00 0.  1.
        -13    1    3    3    0    0  0.42501155551E+03  0.43938681423E+03  0.36338059544E+03  0.71115473139E+03  0.00000000000E+00 0. -1.
         22    1    1    2    0    0 -0.82809240760E+03 -0.89742274775E+03  0.17542583541E+04  0.21374112839E+04  0.00000000000E+00 0. -1.
<mgrwt>
<rscale>  0 0.25822683E+04</rscale>
<asrwt>0</asrwt>
<pdfrwt beam="1">  1        2 0.45365215E+00 0.25822683E+04</pdfrwt>
<pdfrwt beam="2">  1       -2 0.86974720E-01 0.25822683E+04</pdfrwt>
<totfact> 0.18981253E+00</totfact>
</mgrwt>
</event>
<event>
 6    1  0.9562506E-007  0.2131223E+04  0.7818608E-02  0.8547613E-01
         -2   -1    0    0    0  501 -0.00000000000E+00  0.00000000000E+00  0.91286806211E+03  0.91286806211E+03  0.00000000000E+00 0.  1.
          2   -1    0    0  501    0  0.00000000000E+00 -0.00000000000E+00 -0.12439124230E+04  0.12439124230E+04  0.00000000000E+00 0. -1.
         23    2    1    2    0    0  0.67578683946E+03  0.81893754740E+03 -0.23116219534E+03  0.10903270140E+04  0.89612934514E+02 0.  0.
         11    1    3    3    0    0  0.56568166593E+03  0.72516555382E+03 -0.21737578835E+03  0.94504659196E+03  0.00000000000E+00 0.  1.
        -11    1    3    3    0    0  0.11010517352E+03  0.93771993578E+02 -0.13786406992E+02  0.14528042206E+03  0.00000000000E+00 0. -1.
         22    1    1    2    0    0 -0.67578683946E+03 -0.81893754740E+03 -0.99882165515E+02  0.10664534710E+04  0.00000000000E+00 0. -1.
<mgrwt>
<rscale>  0 0.21312231E+04</rscale>
<asrwt>0</asrwt>
<pdfrwt beam="1">  1        2 0.19137114E+00 0.21312231E+04</pdfrwt>
<pdfrwt beam="2">  1       -2 0.14044124E+00 0.21312231E+04</pdfrwt>
<totfact> 0.58407908E+00</totfact>
</mgrwt>
</event>
<event>
 6    1  0.9562506E-007  0.1837611E+04  0.7818608E-02  0.8686550E-01
         -1   -1    0    0    0  501 -0.00000000000E+00  0.00000000000E+00  0.10399558196E+04  0.10399558196E+04  0.00000000000E+00 0.  1.
          1   -1    0    0  501    0  0.00000000000E+00 -0.00000000000E+00 -0.81176860188E+03  0.81176860188E+03  0.00000000000E+00 0. -1.
         23    2    1    2    0    0  0.80506819448E+03  0.43752944902E+03  0.13853959720E+03  0.93107057102E+03  0.90179663461E+02 0.  0.
         11    1    3    3    0    0  0.51209052095E+03  0.23531340906E+03  0.62206828262E+02  0.56699099782E+03  0.00000000000E+00 0.  1.
        -11    1    3    3    0    0  0.29297767353E+03  0.20221603996E+03  0.76332768934E+02  0.36407957320E+03  0.00000000000E+00 0. -1.
         22    1    1    2    0    0 -0.80506819448E+03 -0.43752944902E+03  0.89647620538E+02  0.92065385048E+03  0.00000000000E+00 0.  1.
<mgrwt>
<rscale>  0 0.18376109E+04</rscale>
<asrwt>0</asrwt>
<pdfrwt beam="1">  1        1 0.12488748E+00 0.18376109E+04</pdfrwt>
<pdfrwt beam="2">  1       -1 0.15999320E+00 0.18376109E+04</pdfrwt>
<totfact> 0.59366697E+00</totfact>
</mgrwt>
</event>
<event>
 6    1  0.9562506E-007  0.2861485E+04  0.7818608E-02  0.8284430E-01
          2   -1    0    0  501    0  0.00000000000E+00  0.00000000000E+00  0.37550548161E+04  0.37550548161E+04  0.00000000000E+00 0. -1.
         -2   -1    0    0    0  501 -0.00000000000E+00 -0.00000000000E+00 -0.54513832155E+03  0.54513832155E+03  0.00000000000E+00 0.  1.
         23    2    1    2    0    0 -0.60329624171E+02  0.63161244193E+03  0.35312948838E+04  0.35889561803E+04  0.89381023602E+02 0.  0.
         11    1    3    3    0    0 -0.83915239284E+02  0.51111047742E+03  0.28466455699E+04  0.28933832598E+04  0.00000000000E+00 0.  1.
        -11    1    3    3    0    0  0.23585615113E+02  0.12050196451E+03  0.68464931392E+03  0.69557292051E+03  0.00000000000E+00 0. -1.
         22    1    1    2    0    0  0.60329624171E+02 -0.63161244193E+03 -0.32137838929E+03  0.71123695732E+03  0.00000000000E+00 0.  1.
<mgrwt>
<rscale>  0 0.28614851E+04</rscale>
<asrwt>0</asrwt>
<pdfrwt beam="1">  1        2 0.57770073E+00 0.28614851E+04</pdfrwt>
<pdfrwt beam="2">  1       -2 0.83867436E-01 0.28614851E+04</pdfrwt>
<totfact> 0.57114773E-01</totfact>
</mgrwt>
</event>
<event>
 6    1  0.9562506E-007  0.1539200E+04  0.7818608E-02  0.8858796E-01
          2   -1    0    0  501    0  0.00000000000E+00  0.00000000000E+00  0.36309391266E+04  0.36309391266E+04  0.00000000000E+00 0. -1.
         -2   -1    0    0    0  501 -0.00000000000E+00 -0.00000000000E+00 -0.16312146331E+03  0.16312146331E+03  0.00000000000E+00 0.  1.
         23    2    1    2    0    0 -0.42395940514E+01 -0.51915207305E+03  0.31312397060E+04  0.31753348264E+04  0.92478722794E+02 0.  0.
         13    1    3    3    0    0 -0.39574259780E+02 -0.18494367975E+03  0.12683723725E+04  0.12823957120E+04  0.00000000000E+00 0. -1.
        -13    1    3    3    0    0  0.35334665728E+02 -0.33420839330E+03  0.18628673334E+04  0.18929391144E+04  0.00000000000E+00 0.  1.
         22    1    1    2    0    0  0.42395940514E+01  0.51915207305E+03  0.33657795730E+03  0.61872576352E+03  0.00000000000E+00 0.  1.
<mgrwt>
<rscale>  0 0.15391999E+04</rscale>
<asrwt>0</asrwt>
<pdfrwt beam="1">  1        2 0.55860596E+00 0.15391999E+04</pdfrwt>
<pdfrwt beam="2">  1       -2 0.25095613E-01 0.15391999E+04</pdfrwt>
<totfact> 0.91393435E+00</totfact>
</mgrwt>
</event>
<event>
 6    1  0.9562506E-007  0.7595719E+03  0.7818608E-02  0.9620452E-01
          1   -1    0    0  501    0  0.00000000000E+00  0.00000000000E+00  0.50580892355E+03  0.50580892355E+03  0.00000000000E+00 0. -1.
         -1   -1    0    0    0  501 -0.00000000000E+00 -0.00000000000E+00 -0.28516175942E+03  0.28516175942E+03  0.00000000000E+00 0.  1.
         23    2    1    2    0    0 -0.29073703861E+03 -0.13370731053E+03 -0.90249929463E+02  0.34480628131E+03  0.91327166587E+02 0.  0.
         13    1    3    3    0    0 -0.21686520494E+03 -0.12276027825E+03 -0.10189164742E+03  0.26922576185E+03  0.00000000000E+00 0. -1.
        -13    1    3    3    0    0 -0.73871833668E+02 -0.10947032284E+02  0.11641717959E+02  0.75580519464E+02  0.00000000000E+00 0.  1.
         22    1    1    2    0    0  0.29073703861E+03  0.13370731053E+03  0.31089709359E+03  0.44616440166E+03  0.00000000000E+00 0. -1.
<mgrwt>
<rscale>  0 0.75957189E+03</rscale>
<asrwt>0</asrwt>
<pdfrwt beam="1">  1        1 0.77816757E-01 0.75957189E+03</pdfrwt>
<pdfrwt beam="2">  1       -1 0.43871040E-01 0.75957189E+03</pdfrwt>
<totfact> 0.22670513E+02</totfact>
</mgrwt>
</event>
<event>
 6    1  0.9562506E-007  0.1610245E+04  0.7818608E-02  0.8814279E-01
         -2   -1    0    0    0  501 -0.00000000000E+00  0.00000000000E+00  0.72741360271E+03  0.72741360271E+03  0.00000000000E+00 0.  1.
          2   -1    0    0  501    0  0.00000000000E+00 -0.00000000000E+00 -0.89113304610E+03  0.89113304610E+03  0.00000000000E+00 0. -1.
         23    2    1    2    0    0  0.27431540636E+03  0.45902664430E+03  0.51950754667E+03  0.75093295466E+03  0.89765299567E+02 0.  0.
         13    1    3    3    0    0  0.24475666051E+03  0.40789342336E+03  0.49635155152E+03  0.68749380389E+03  0.00000000000E+00 0. -1.
        -13    1    3    3    0    0  0.29558745847E+02  0.51133220937E+02  0.23155995149E+02  0.63439150773E+02  0.00000000000E+00 0.  1.
         22    1    1    2    0    0 -0.27431540636E+03 -0.45902664430E+03 -0.68322699006E+03  0.86761369415E+03  0.00000000000E+00 0. -1.
<mgrwt>
<rscale>  0 0.16102451E+04</rscale>
<asrwt>0</asrwt>
<pdfrwt beam="1">  1        2 0.13709739E+00 0.16102451E+04</pdfrwt>
<pdfrwt beam="2">  1       -2 0.11190978E+00 0.16102451E+04</pdfrwt>
<totfact> 0.17952646E+01</totfact>
</mgrwt>
</event>
<event>
 6    1  0.9562506E-007  0.2561119E+04  0.7818608E-02  0.8381529E-01
          2   -1    0    0  501    0  0.00000000000E+00  0.00000000000E+00  0.30155397481E+04  0.30155397481E+04  0.00000000000E+00 0. -1.
         -2   -1    0    0    0  501 -0.00000000000E+00 -0.00000000000E+00 -0.54379407196E+03  0.54379407196E+03  0.00000000000E+00 0.  1.
         23    2    1    2    0    0 -0.46880586417E+02  0.10060413240E+04  0.23329703728E+04  0.25426846575E+04  0.90429927563E+02 0.  0.
         11    1    3    3    0    0  0.93006354493E+01  0.35907631203E+03  0.91964873531E+03  0.98730749822E+03  0.00000000000E+00 0. -1.
        -11    1    3    3    0    0 -0.56181221866E+02  0.64696501202E+03  0.14133216375E+04  0.15553771592E+04  0.00000000000E+00 0.  1.
         22    1    1    2    0    0  0.46880586417E+02 -0.10060413240E+04  0.13877530337E+03  0.10166491626E+04  0.00000000000E+00 0.  1.
<mgrwt>
<rscale>  0 0.25611190E+04</rscale>
<asrwt>0</asrwt>
<pdfrwt beam="1">  1        2 0.46392918E+00 0.25611190E+04</pdfrwt>
<pdfrwt beam="2">  1       -2 0.83660628E-01 0.25611190E+04</pdfrwt>
<totfact> 0.18873644E+00</totfact>
</mgrwt>
</event>
<event>
 6    1  0.9562506E-007  0.2256990E+04  0.7818608E-02  0.8495075E-01
          2   -1    0    0  501    0  0.00000000000E+00  0.00000000000E+00  0.11648488914E+04  0.11648488914E+04  0.00000000000E+00 0. -1.
         -2   -1    0    0    0  501 -0.00000000000E+00 -0.00000000000E+00 -0.10932756299E+04  0.10932756299E+04  0.00000000000E+00 0.  1.
         23    2    1    2    0    0  0.41582832843E+03  0.10468892187E+04  0.56725491550E+02  0.11315763904E+04  0.91417235229E+02 0.  0.
         11    1    3    3    0    0  0.12904125222E+03  0.42398855185E+03  0.47886206822E+02  0.44577014893E+03  0.00000000000E+00 0. -1.
        -11    1    3    3    0    0  0.28678707621E+03  0.62290066688E+03  0.88392847279E+01  0.68580624146E+03  0.00000000000E+00 0.  1.
         22    1    1    2    0    0 -0.41582832843E+03 -0.10468892187E+04  0.14847769928E+02  0.11265481309E+04  0.00000000000E+00 0. -1.
<mgrwt>
<rscale>  0 0.22569899E+04</rscale>
<asrwt>0</asrwt>
<pdfrwt beam="1">  1        2 0.17920752E+00 0.22569899E+04</pdfrwt>
<pdfrwt beam="2">  1       -2 0.16819625E+00 0.22569899E+04</pdfrwt>
<totfact> 0.39721908E+00</totfact>
</mgrwt>
</event>
<event>
 6    1  0.9562506E-007  0.1806641E+04  0.7818608E-02  0.8702776E-01
         -1   -1    0    0    0  501 -0.00000000000E+00  0.00000000000E+00  0.86700624390E+03  0.86700624390E+03  0.00000000000E+00 0.  1.
          1   -1    0    0  501    0  0.00000000000E+00 -0.00000000000E+00 -0.94115570202E+03  0.94115570202E+03  0.00000000000E+00 0. -1.
         23    2    1    2    0    0  0.39000311697E+03  0.11093813539E+03 -0.84252467790E+03  0.93936382237E+03  0.90259940029E+02 0.  0.
         13    1    3    3    0    0  0.27982358693E+03  0.37169592713E+02 -0.59485396651E+03  0.65843303372E+03  0.00000000000E+00 0. -1.
        -13    1    3    3    0    0  0.11017953003E+03  0.73768542676E+02 -0.24767071139E+03  0.28093078864E+03  0.00000000000E+00 0.  1.
         22    1    1    2    0    0 -0.39000311697E+03 -0.11093813539E+03  0.76837521978E+03  0.86879812356E+03  0.00000000000E+00 0.  1.
<mgrwt>
<rscale>  0 0.18066409E+04</rscale>
<asrwt>0</asrwt>
<pdfrwt beam="1">  1        1 0.14479319E+00 0.18066409E+04</pdfrwt>
<pdfrwt beam="2">  1       -1 0.13338558E+00 0.18066409E+04</pdfrwt>
<totfact> 0.75492070E+00</totfact>
</mgrwt>
</event>
<event>
 6    1  0.9562506E-007  0.3651401E+04  0.7818608E-02  0.8078818E-01
          2   -1    0    0  501    0  0.00000000000E+00  0.00000000000E+00  0.21523836304E+04  0.21523836304E+04  0.00000000000E+00 0. -1.
         -2   -1    0    0    0  501 -0.00000000000E+00 -0.00000000000E+00 -0.15486003516E+04  0.15486003516E+04  0.00000000000E+00 0.  1.
         23    2    1    2    0    0 -0.32437889378E+03 -0.15413738042E+04  0.12353719871E+04  0.20039397376E+04  0.92604829133E+02 0.  0.
         11    1    3    3    0    0 -0.11431096290E+03 -0.35813843788E+03  0.28157860384E+03  0.46969846398E+03  0.00000000000E+00 0.  1.
        -11    1    3    3    0    0 -0.21006793088E+03 -0.11832353663E+04  0.95379338325E+03  0.15342412736E+04  0.00000000000E+00 0. -1.
         22    1    1    2    0    0  0.32437889378E+03  0.15413738042E+04 -0.63158870824E+03  0.16970442444E+04  0.00000000000E+00 0.  1.
<mgrwt>
<rscale>  0 0.36514009E+04</rscale>
<asrwt>0</asrwt>
<pdfrwt beam="1">  1        2 0.33113594E+00 0.36514009E+04</pdfrwt>
<pdfrwt beam="2">  1       -2 0.23824621E+00 0.36514009E+04</pdfrwt>
<totfact> 0.33857781E-01</totfact>
</mgrwt>
</event>
<event>
 6    1  0.9562506E-007  0.2313699E+04  0.7818608E-02  0.8472539E-01
         -2   -1    0    0    0  501 -0.00000000000E+00  0.00000000000E+00  0.77127923369E+03  0.77127923369E+03  0.00000000000E+00 0.  1.
          2   -1    0    0  501    0  0.00000000000E+00 -0.00000000000E+00 -0.17351695195E+04  0.17351695195E+04  0.00000000000E+00 0. -1.
         23    2    1    2    0    0  0.38715139341E+03  0.10428468317E+04 -0.81978994332E+03  0.13847622442E+04  0.89973363577E+02 0.  0.
         13    1    3    3    0    0  0.17682075060E+03  0.56729534440E+03 -0.47657768986E+03  0.76171902962E+03  0.00000000000E+00 0.  1.
        -13    1    3    3    0    0  0.21033064281E+03  0.47555148725E+03 -0.34321225346E+03  0.62304321460E+03  0.00000000000E+00 0. -1.
         22    1    1    2    0    0 -0.38715139341E+03 -0.10428468317E+04 -0.14410034250E+03  0.11216865090E+04  0.00000000000E+00 0. -1.
<mgrwt>
<rscale>  0 0.23136985E+04</rscale>
<asrwt>0</asrwt>
<pdfrwt beam="1">  1        2 0.26694915E+00 0.23136985E+04</pdfrwt>
<pdfrwt beam="2">  1       -2 0.11865835E+00 0.23136985E+04</pdfrwt>
<totfact> 0.46363254E+00</totfact>
</mgrwt>
</event>
<event>
 6    1  0.9562506E-007  0.3421206E+04  0.7818608E-02  0.8132721E-01
          2   -1    0    0  501    0  0.00000000000E+00  0.00000000000E+00  0.14868821015E+04  0.14868821015E+04  0.00000000000E+00 0. -1.
         -2   -1    0    0    0  501 -0.00000000000E+00 -0.00000000000E+00 -0.19679850810E+04  0.19679850810E+04  0.00000000000E+00 0.  1.
         23    2    1    2    0    0  0.99099043664E+03 -0.47198775078E+03 -0.15640497375E+04  0.19129177141E+04  0.90377635010E+02 0.  0.
         13    1    3    3    0    0  0.65981963094E+03 -0.36071496435E+03 -0.10629514728E+04  0.13020534031E+04  0.00000000000E+00 0. -1.
        -13    1    3    3    0    0  0.33117080570E+03 -0.11127278643E+03 -0.50109826471E+03  0.61086431099E+03  0.00000000000E+00 0.  1.
         22    1    1    2    0    0 -0.99099043664E+03  0.47198775078E+03  0.10829467580E+04  0.15419494684E+04  0.00000000000E+00 0. -1.
<mgrwt>
<rscale>  0 0.34212055E+04</rscale>
<asrwt>0</asrwt>
<pdfrwt beam="1">  1        2 0.22875109E+00 0.34212055E+04</pdfrwt>
<pdfrwt beam="2">  1       -2 0.30276694E+00 0.34212055E+04</pdfrwt>
<totfact> 0.32637927E-01</totfact>
</mgrwt>
</event>
<event>
 6    1  0.9562506E-007  0.3512185E+04  0.7818608E-02  0.8110908E-01
         -1   -1    0    0    0  501 -0.00000000000E+00  0.00000000000E+00  0.84350513893E+03  0.84350513893E+03  0.00000000000E+00 0.  1.
          1   -1    0    0  501    0  0.00000000000E+00 -0.00000000000E+00 -0.36560075583E+04  0.36560075583E+04  0.00000000000E+00 0. -1.
         23    2    1    2    0    0 -0.34936198029E+03 -0.33313167193E+03 -0.35686892391E+04  0.36023789222E+04  0.92523022119E+02 0.  0.
         13    1    3    3    0    0 -0.14610883043E+03 -0.10264790817E+03 -0.15852865865E+04  0.15953112376E+04  0.00000000000E+00 0. -1.
        -13    1    3    3    0    0 -0.20325314986E+03 -0.23048376376E+03 -0.19834026526E+04  0.20070676846E+04  0.00000000000E+00 0.  1.
         22    1    1    2    0    0  0.34936198029E+03  0.33313167193E+03  0.75618681969E+03  0.89713377508E+03  0.00000000000E+00 0.  1.
<mgrwt>
<rscale>  0 0.35121852E+04</rscale>
<asrwt>0</asrwt>
<pdfrwt beam="1">  1        1 0.56246269E+00 0.35121852E+04</pdfrwt>
<pdfrwt beam="2">  1       -1 0.12977002E+00 0.35121852E+04</pdfrwt>
<totfact> 0.77671219E-02</totfact>
</mgrwt>
</event>
<event>
 6    1  0.9562506E-007  0.2639482E+04  0.7818608E-02  0.8354912E-01
         -2   -1    0    0    0  501 -0.00000000000E+00  0.00000000000E+00  0.61183477352E+03  0.61183477352E+03  0.00000000000E+00 0.  1.
          2   -1    0    0  501    0  0.00000000000E+00 -0.00000000000E+00 -0.28467103636E+04  0.28467103636E+04  0.00000000000E+00 0. -1.
         23    2    1    2    0    0 -0.79885257682E+03  0.10040835608E+04 -0.15148034350E+04  0.19872011443E+04  0.89385147765E+02 0.  0.
         11    1    3    3    0    0 -0.68379687749E+03  0.90083251337E+03 -0.13113964809E+04  0.17317153683E+04  0.00000000000E+00 0.  1.
        -11    1    3    3    0    0 -0.11505569934E+03  0.10325104748E+03 -0.20340695413E+03  0.25548577601E+03  0.00000000000E+00 0. -1.
         22    1    1    2    0    0  0.79885257682E+03 -0.10040835608E+04 -0.72007215511E+03  0.14713439928E+04  0.00000000000E+00 0.  1.
<mgrwt>
<rscale>  0 0.26394821E+04</rscale>
<asrwt>0</asrwt>
<pdfrwt beam="1">  1        2 0.43795544E+00 0.26394821E+04</pdfrwt>
<pdfrwt beam="2">  1       -2 0.94128428E-01 0.26394821E+04</pdfrwt>
<totfact> 0.18182264E+00</totfact>
</mgrwt>
</event>
<event>
 6    1  0.9562506E-007  0.4768389E+04  0.7818608E-02  0.7865264E-01
          2   -1    0    0  501    0  0.00000000000E+00  0.00000000000E+00  0.24248230679E+04  0.24248230679E+04  0.00000000000E+00 0. -1.
         -2   -1    0    0    0  501 -0.00000000000E+00 -0.00000000000E+00 -0.23442469872E+04  0.23442469872E+04  0.00000000000E+00 0.  1.
         23    2    1    2    0    0  0.11024925032E+04 -0.21173328587E+03 -0.20623665575E+04  0.23498710442E+04  0.90649890444E+02 0.  0.
         13    1    3    3    0    0  0.55112345769E+03 -0.14113214816E+03 -0.98216584817E+03  0.11350352867E+04  0.00000000000E+00 0.  1.
        -13    1    3    3    0    0  0.55136904552E+03 -0.70601137709E+02 -0.10802007093E+04  0.12148357574E+04  0.00000000000E+00 0. -1.
         22    1    1    2    0    0 -0.11024925032E+04  0.21173328587E+03  0.21429426382E+04  0.24191990110E+04  0.00000000000E+00 0. -1.
<mgrwt>
<rscale>  0 0.47683893E+04</rscale>
<asrwt>0</asrwt>
<pdfrwt beam="1">  1        2 0.37304970E+00 0.47683893E+04</pdfrwt>
<pdfrwt beam="2">  1       -2 0.36065338E+00 0.47683893E+04</pdfrwt>
<totfact> 0.38000744E-02</totfact>
</mgrwt>
</event>
<event>
 6    1  0.9562506E-007  0.1946933E+04  0.7818608E-02  0.8631841E-01
         -2   -1    0    0    0  501 -0.00000000000E+00  0.00000000000E+00  0.10690873282E+04  0.10690873282E+04  0.00000000000E+00 0.  1.
          2   -1    0    0  501    0  0.00000000000E+00 -0.00000000000E+00 -0.88639837060E+03  0.88639837060E+03  0.00000000000E+00 0. -1.
         23    2    1    2    0    0 -0.40565148667E+03  0.48317031210E+03 -0.65016156918E+03  0.91066672927E+03  0.92720799358E+02 0.  0.
         11    1    3    3    0    0 -0.40621782492E+03  0.45708278919E+03 -0.62591181389E+03  0.87504468241E+03  0.00000000000E+00 0.  1.
        -11    1    3    3    0    0  0.56633825300E+00  0.26087522910E+02 -0.24249755294E+02  0.35622046859E+02  0.00000000000E+00 0. -1.
         22    1    1    2    0    0  0.40565148667E+03 -0.48317031210E+03  0.83285052680E+03  0.10448189695E+04  0.00000000000E+00 0.  1.
<mgrwt>
<rscale>  0 0.19469332E+04</rscale>
<asrwt>0</asrwt>
<pdfrwt beam="1">  1        2 0.13636898E+00 0.19469332E+04</pdfrwt>
<pdfrwt beam="2">  1       -2 0.16447497E+00 0.19469332E+04</pdfrwt>
<totfact> 0.65252712E+00</totfact>
</mgrwt>
</event>
<event>
 6    1  0.9562506E-007  0.2929427E+04  0.7818608E-02  0.8264176E-01
          3   -1    0    0  501    0  0.00000000000E+00  0.00000000000E+00  0.14536152748E+04  0.14536152748E+04  0.00000000000E+00 0. -1.
         -3   -1    0    0    0  501 -0.00000000000E+00 -0.00000000000E+00 -0.14758964323E+04  0.14758964323E+04  0.00000000000E+00 0.  1.
         23    2    1    2    0    0  0.37912483125E+03 -0.13665894050E+04  0.34908216948E+03  0.14634922802E+04  0.93000289465E+02 0.  0.
         13    1    3    3    0    0  0.13329114525E+03 -0.34342753728E+03  0.72227525687E+02  0.37540087670E+03  0.00000000000E+00 0. -1.
        -13    1    3    3    0    0  0.24583368600E+03 -0.10231618677E+04  0.27685464379E+03  0.10880914035E+04  0.00000000000E+00 0.  1.
         22    1    1    2    0    0 -0.37912483125E+03  0.13665894050E+04 -0.37136332692E+03  0.14660194269E+04  0.00000000000E+00 0.  1.
<mgrwt>
<rscale>  0 0.29294270E+04</rscale>
<asrwt>0</asrwt>
<pdfrwt beam="1">  1        3 0.22363312E+00 0.29294270E+04</pdfrwt>
<pdfrwt beam="2">  1       -3 0.22706099E+00 0.29294270E+04</pdfrwt>
<totfact> 0.23519996E-02</totfact>
</mgrwt>
</event>
<event>
 6    1  0.9562506E-007  0.1135522E+04  0.7818608E-02  0.9171245E-01
          1   -1    0    0  501    0  0.00000000000E+00  0.00000000000E+00  0.16319964035E+04  0.16319964035E+04  0.00000000000E+00 0. -1.
         -1   -1    0    0    0  501 -0.00000000000E+00 -0.00000000000E+00 -0.19752031743E+03  0.19752031743E+03  0.00000000000E+00 0.  1.
         23    2    1    2    0    0  0.14661198780E+02  0.50610762242E+03  0.32073225089E+03  0.60608498740E+03  0.90055310623E+02 0.  0.
         13    1    3    3    0    0 -0.64734944822E+01  0.47812523919E+02  0.36404931008E+01  0.48385914938E+02  0.00000000000E+00 0. -1.
        -13    1    3    3    0    0  0.21134693262E+02  0.45829509850E+03  0.31709175779E+03  0.55769907246E+03  0.00000000000E+00 0.  1.
         22    1    1    2    0    0 -0.14661198780E+02 -0.50610762242E+03  0.11137438352E+04  0.12234317335E+04  0.00000000000E+00 0. -1.
<mgrwt>
<rscale>  0 0.11355218E+04</rscale>
<asrwt>0</asrwt>
<pdfrwt beam="1">  1        1 0.25107636E+00 0.11355218E+04</pdfrwt>
<pdfrwt beam="2">  1       -1 0.30387742E-01 0.11355218E+04</pdfrwt>
<totfact> 0.52622377E+01</totfact>
</mgrwt>
</event>
<event>
 6    1  0.9562506E-007  0.2670675E+04  0.7818608E-02  0.8344583E-01
         -1   -1    0    0    0  501 -0.00000000000E+00  0.00000000000E+00  0.17671004175E+04  0.17671004175E+04  0.00000000000E+00 0.  1.
          1   -1    0    0  501    0  0.00000000000E+00 -0.00000000000E+00 -0.10090690806E+04  0.10090690806E+04  0.00000000000E+00 0. -1.
         23    2    1    2    0    0  0.49267856507E+03  0.91599652934E+03 -0.48853625863E+03  0.11526817155E+04  0.90695374186E+02 0.  0.
         11    1    3    3    0    0  0.26600268818E+03  0.48259184979E+03 -0.30829222167E+03  0.63142411860E+03  0.00000000000E+00 0. -1.
        -11    1    3    3    0    0  0.22667587688E+03  0.43340467956E+03 -0.18024403696E+03  0.52125759686E+03  0.00000000000E+00 0.  1.
         22    1    1    2    0    0 -0.49267856507E+03 -0.91599652934E+03  0.12465675955E+04  0.16234877827E+04  0.00000000000E+00 0.  1.
<mgrwt>
<rscale>  0 0.26706751E+04</rscale>
<asrwt>0</asrwt>
<pdfrwt beam="1">  1        1 0.15524140E+00 0.26706751E+04</pdfrwt>
<pdfrwt beam="2">  1       -1 0.27186160E+00 0.26706751E+04</pdfrwt>
<totfact> 0.65478656E-01</totfact>
</mgrwt>
</event>
<event>
 6    1  0.9562506E-007  0.1262063E+04  0.7818608E-02  0.9060203E-01
          2   -1    0    0  501    0  0.00000000000E+00  0.00000000000E+00  0.27088566220E+04  0.27088566220E+04  0.00000000000E+00 0. -1.
         -2   -1    0    0    0  501 -0.00000000000E+00 -0.00000000000E+00 -0.14699952691E+03  0.14699952691E+03  0.00000000000E+00 0.  1.
         23    2    1    2    0    0 -0.42637138218E+03 -0.32605650639E+03  0.55999483318E+03  0.78328337176E+03  0.10878063423E+03 0.  0.
         13    1    3    3    0    0 -0.28440198699E+03 -0.15870761871E+03  0.29722553466E+03  0.44092586327E+03  0.00000000000E+00 0. -1.
        -13    1    3    3    0    0 -0.14196939519E+03 -0.16734888768E+03  0.26276929851E+03  0.34235750849E+03  0.00000000000E+00 0.  1.
         22    1    1    2    0    0  0.42637138218E+03  0.32605650639E+03  0.20018622620E+04  0.20725727772E+04  0.00000000000E+00 0. -1.
<mgrwt>
<rscale>  0 0.12620628E+04</rscale>
<asrwt>0</asrwt>
<pdfrwt beam="1">  1        2 0.41674713E+00 0.12620628E+04</pdfrwt>
<pdfrwt beam="2">  1       -2 0.22615314E-01 0.12620628E+04</pdfrwt>
<totfact> 0.44663037E+01</totfact>
</mgrwt>
</event>
<event>
 6    1  0.9562506E-007  0.1378573E+04  0.7818608E-02  0.8969477E-01
          2   -1    0    0  501    0  0.00000000000E+00  0.00000000000E+00  0.17003021795E+04  0.17003021795E+04  0.00000000000E+00 0. -1.
         -2   -1    0    0    0  501 -0.00000000000E+00 -0.00000000000E+00 -0.27943007917E+03  0.27943007917E+03  0.00000000000E+00 0.  1.
         23    2    1    2    0    0  0.58471090753E+03 -0.31982477967E+03  0.47895842214E+03  0.82587953312E+03  0.92201399183E+02 0.  0.
         11    1    3    3    0    0  0.41770790675E+03 -0.21317010437E+03  0.38415116036E+03  0.60621242379E+03  0.00000000000E+00 0. -1.
        -11    1    3    3    0    0  0.16700300079E+03 -0.10665467530E+03  0.94807261788E+02  0.21966710933E+03  0.00000000000E+00 0.  1.
         22    1    1    2    0    0 -0.58471090753E+03  0.31982477967E+03  0.94191367817E+03  0.11538527255E+04  0.00000000000E+00 0.  1.
<mgrwt>
<rscale>  0 0.13785726E+04</rscale>
<asrwt>0</asrwt>
<pdfrwt beam="1">  1        2 0.26158494E+00 0.13785726E+04</pdfrwt>
<pdfrwt beam="2">  1       -2 0.42989244E-01 0.13785726E+04</pdfrwt>
<totfact> 0.49018590E+01</totfact>
</mgrwt>
</event>
<event>
 6    1  0.9562506E-007  0.2214151E+04  0.7818608E-02  0.8512561E-01
         -1   -1    0    0    0  501 -0.00000000000E+00  0.00000000000E+00  0.94602930996E+03  0.94602930996E+03  0.00000000000E+00 0.  1.
          1   -1    0    0  501    0  0.00000000000E+00 -0.00000000000E+00 -0.12955376168E+04  0.12955376168E+04  0.00000000000E+00 0. -1.
         23    2    1    2    0    0 -0.33055579870E+03  0.10054779412E+04 -0.49707551070E+03  0.11729093081E+04  0.91537726345E+02 0.  0.
         13    1    3    3    0    0 -0.24289631099E+03  0.65966235141E+03 -0.36852432974E+03  0.79370222210E+03  0.00000000000E+00 0. -1.
        -13    1    3    3    0    0 -0.87659487714E+02  0.34581558981E+03 -0.12855118096E+03  0.37920708600E+03  0.00000000000E+00 0.  1.
         22    1    1    2    0    0  0.33055579870E+03 -0.10054779412E+04  0.14756720383E+03  0.10686576187E+04  0.00000000000E+00 0. -1.
<mgrwt>
<rscale>  0 0.22141514E+04</rscale>
<asrwt>0</asrwt>
<pdfrwt beam="1">  1        1 0.19931348E+00 0.22141514E+04</pdfrwt>
<pdfrwt beam="2">  1       -1 0.14554297E+00 0.22141514E+04</pdfrwt>
<totfact> 0.31392641E+00</totfact>
</mgrwt>
</event>
<event>
 6    1  0.9562506E-007  0.1737919E+04  0.7818608E-02  0.8740028E-01
         -1   -1    0    0    0  501 -0.00000000000E+00  0.00000000000E+00  0.13568562635E+04  0.13568562635E+04  0.00000000000E+00 0.  1.
          1   -1    0    0  501    0  0.00000000000E+00 -0.00000000000E+00 -0.55650024908E+03  0.55650024908E+03  0.00000000000E+00 0. -1.
         23    2    1    2    0    0 -0.70329063540E+03  0.13417610637E+03 -0.13586533841E+03  0.73474234042E+03  0.93626765729E+02 0.  0.
         11    1    3    3    0    0 -0.30443349472E+03  0.10170852074E+03 -0.42056193037E+02  0.32371762274E+03  0.00000000000E+00 0.  1.
        -11    1    3    3    0    0 -0.39885714068E+03  0.32467585628E+02 -0.93809145374E+02  0.41102471768E+03  0.00000000000E+00 0. -1.
         22    1    1    2    0    0  0.70329063540E+03 -0.13417610637E+03  0.93622135287E+03  0.11786141722E+04  0.00000000000E+00 0.  1.
<mgrwt>
<rscale>  0 0.17379193E+04</rscale>
<asrwt>0</asrwt>
<pdfrwt beam="1">  1        1 0.85615423E-01 0.17379193E+04</pdfrwt>
<pdfrwt beam="2">  1       -1 0.20874712E+00 0.17379193E+04</pdfrwt>
<totfact> 0.47436711E+00</totfact>
</mgrwt>
</event>
<event>
 6    1  0.9562506E-007  0.5487877E+03  0.7818608E-02  0.1001775E+00
         -2   -1    0    0    0  501 -0.00000000000E+00  0.00000000000E+00  0.84877644686E+02  0.84877644686E+02  0.00000000000E+00 0.  1.
          2   -1    0    0  501    0  0.00000000000E+00 -0.00000000000E+00 -0.88706481465E+03  0.88706481465E+03  0.00000000000E+00 0. -1.
         23    2    1    2    0    0  0.25658582506E+03 -0.45776755071E+02 -0.51298213239E+03  0.58262080481E+03  0.91457843418E+02 0.  0.
         11    1    3    3    0    0  0.82840267583E+02  0.23574980922E+02 -0.12383482778E+03  0.15084215005E+03  0.00000000000E+00 0. -1.
        -11    1    3    3    0    0  0.17374555747E+03 -0.69351735993E+02 -0.38914730461E+03  0.43177865476E+03  0.00000000000E+00 0.  1.
         22    1    1    2    0    0 -0.25658582506E+03  0.45776755071E+02 -0.28920503758E+03  0.38932165453E+03  0.00000000000E+00 0.  1.
<mgrwt>
<rscale>  0 0.54878765E+03</rscale>
<asrwt>0</asrwt>
<pdfrwt beam="1">  1        2 0.13647151E+00 0.54878765E+03</pdfrwt>
<pdfrwt beam="2">  1       -2 0.13058099E-01 0.54878765E+03</pdfrwt>
<totfact> 0.13308213E+03</totfact>
</mgrwt>
</event>
<event>
 6    1  0.9562506E-007  0.5367527E+03  0.7818608E-02  0.1004608E+00
         -1   -1    0    0    0  501 -0.00000000000E+00  0.00000000000E+00  0.39082674131E+03  0.39082674131E+03  0.00000000000E+00 0.  1.
          1   -1    0    0  501    0  0.00000000000E+00 -0.00000000000E+00 -0.18429101740E+03  0.18429101740E+03  0.00000000000E+00 0. -1.
         23    2    1    2    0    0  0.19370202514E+03 -0.50243184193E+02 -0.72854008482E+02  0.23145589777E+03  0.90660211566E+02 0.  0.
         13    1    3    3    0    0  0.12310783056E+03 -0.75064384322E+02 -0.56475596611E+02  0.15485377862E+03  0.00000000000E+00 0. -1.
        -13    1    3    3    0    0  0.70594194572E+02  0.24821200129E+02 -0.16378411870E+02  0.76602119152E+02  0.00000000000E+00 0.  1.
         22    1    1    2    0    0 -0.19370202514E+03  0.50243184193E+02  0.27938973239E+03  0.34366186094E+03  0.00000000000E+00 0.  1.
<mgrwt>
<rscale>  0 0.53675267E+03</rscale>
<asrwt>0</asrwt>
<pdfrwt beam="1">  1        1 0.28352464E-01 0.53675267E+03</pdfrwt>
<pdfrwt beam="2">  1       -1 0.60127191E-01 0.53675267E+03</pdfrwt>
<totfact> 0.46996840E+02</totfact>
</mgrwt>
</event>
<event>
 6    1  0.9562506E-007  0.1204540E+04  0.7818608E-02  0.9108892E-01
          1   -1    0    0  501    0  0.00000000000E+00  0.00000000000E+00  0.30683814460E+04  0.30683814460E+04  0.00000000000E+00 0. -1.
         -1   -1    0    0    0  501 -0.00000000000E+00 -0.00000000000E+00 -0.11821507688E+03  0.11821507688E+03  0.00000000000E+00 0.  1.
         23    2    1    2    0    0 -0.47819187375E+03  0.36023937645E+03  0.14581982814E+04  0.15789869151E+04  0.91747335138E+02 0.  0.
         11    1    3    3    0    0 -0.45819838120E+03  0.31571701408E+03  0.13232230660E+04  0.14354589064E+04  0.00000000000E+00 0. -1.
        -11    1    3    3    0    0 -0.19993492545E+02  0.44522362364E+02  0.13497521544E+03  0.14352800869E+03  0.00000000000E+00 0.  1.
         22    1    1    2    0    0  0.47819187375E+03 -0.36023937645E+03  0.14919680877E+04  0.16076096078E+04  0.00000000000E+00 0.  1.
<mgrwt>
<rscale>  0 0.12045397E+04</rscale>
<asrwt>0</asrwt>
<pdfrwt beam="1">  1        1 0.47205862E+00 0.12045397E+04</pdfrwt>
<pdfrwt beam="2">  1       -1 0.18186937E-01 0.12045397E+04</pdfrwt>
<totfact> 0.12808271E+01</totfact>
</mgrwt>
</event>
<event>
 6    1  0.9562506E-007  0.9010315E+03  0.7818608E-02  0.9424293E-01
          2   -1    0    0  501    0  0.00000000000E+00  0.00000000000E+00  0.11016300997E+04  0.11016300997E+04  0.00000000000E+00 0. -1.
         -2   -1    0    0    0  501 -0.00000000000E+00 -0.00000000000E+00 -0.18424008133E+03  0.18424008133E+03  0.00000000000E+00 0.  1.
         23    2    1    2    0    0  0.95532550036E+02 -0.80805888887E+02  0.10741500024E+04  0.10852966224E+04  0.91730426641E+02 0.  0.
         11    1    3    3    0    0  0.36094024834E+02 -0.53908975540E+02  0.24047214004E+03  0.24906988258E+03  0.00000000000E+00 0. -1.
        -11    1    3    3    0    0  0.59438525202E+02 -0.26896913347E+02  0.83367786237E+03  0.83622673984E+03  0.00000000000E+00 0.  1.
         22    1    1    2    0    0 -0.95532550036E+02  0.80805888887E+02 -0.15675998407E+03  0.20057355858E+03  0.00000000000E+00 0.  1.
<mgrwt>
<rscale>  0 0.90103145E+03</rscale>
<asrwt>0</asrwt>
<pdfrwt beam="1">  1        2 0.16948155E+00 0.90103145E+03</pdfrwt>
<pdfrwt beam="2">  1       -2 0.28344629E-01 0.90103145E+03</pdfrwt>
<totfact> 0.24795127E+02</totfact>
</mgrwt>
</event>
<event>
 6    1  0.9562506E-007  0.2161307E+04  0.7818608E-02  0.8534708E-01
          2   -1    0    0  501    0  0.00000000000E+00  0.00000000000E+00  0.12153899832E+04  0.12153899832E+04  0.00000000000E+00 0. -1.
         -2   -1    0    0    0  501 -0.00000000000E+00 -0.00000000000E+00 -0.96085411067E+03  0.96085411067E+03  0.00000000000E+00 0.  1.
         23    2    1    2    0    0  0.10754996260E+03  0.94102933389E+03  0.64745680690E+03  0.11508221991E+04  0.89934505991E+02 0.  0.
         11    1    3    3    0    0  0.11483831580E+03  0.86413938087E+03  0.57069449583E+03  0.10419294198E+04  0.00000000000E+00 0. -1.
        -11    1    3    3    0    0 -0.72883532048E+01  0.76889953014E+02  0.76762311072E+02  0.10889277923E+03  0.00000000000E+00 0.  1.
         22    1    1    2    0    0 -0.10754996260E+03 -0.94102933389E+03 -0.39292093436E+03  0.10254218948E+04  0.00000000000E+00 0.  1.
<mgrwt>
<rscale>  0 0.21613074E+04</rscale>
<asrwt>0</asrwt>
<pdfrwt beam="1">  1        2 0.18698307E+00 0.21613074E+04</pdfrwt>
<pdfrwt beam="2">  1       -2 0.14782371E+00 0.21613074E+04</pdfrwt>
<totfact> 0.52962524E+00</totfact>
</mgrwt>
</event>
<event>
 6    1  0.2191806E-006  0.3753175E+04  0.7818608E-02  0.8056279E-01
         -1   -1    0    0    0  501 -0.00000000000E+00  0.00000000000E+00  0.14179611090E+04  0.14179611090E+04  0.00000000000E+00 0.  1.
          1   -1    0    0  501    0  0.00000000000E+00 -0.00000000000E+00 -0.24835524776E+04  0.24835524776E+04  0.00000000000E+00 0. -1.
         23    2    1    2    0    0 -0.13086970573E+04  0.10258139389E+04 -0.14348915445E+04  0.21981742649E+04  0.89856159699E+02 0.  0.
         11    1    3    3    0    0 -0.58276198896E+03  0.51312064761E+03 -0.66031439902E+03  0.10192739771E+04  0.00000000000E+00 0.  1.
        -11    1    3    3    0    0 -0.72593506836E+03  0.51269329125E+03 -0.77457714545E+03  0.11789002878E+04  0.00000000000E+00 0. -1.
         22    1    1    2    0    0  0.13086970573E+04 -0.10258139389E+04  0.36930017591E+03  0.17033393217E+04  0.00000000000E+00 0.  1.
<mgrwt>
<rscale>  0 0.37531751E+04</rscale>
<asrwt>0</asrwt>
<pdfrwt beam="1">  1        1 0.38208499E+00 0.37531751E+04</pdfrwt>
<pdfrwt beam="2">  1       -1 0.21814787E+00 0.37531751E+04</pdfrwt>
<totfact> 0.12580670E-01</totfact>
</mgrwt>
</event>
<event>
 6    1  0.9562506E-007  0.1960332E+04  0.7818608E-02  0.8625395E-01
         -2   -1    0    0    0  501 -0.00000000000E+00  0.00000000000E+00  0.37665399969E+03  0.37665399969E+03  0.00000000000E+00 0.  1.
          2   -1    0    0  501    0  0.00000000000E+00 -0.00000000000E+00 -0.25506847165E+04  0.25506847165E+04  0.00000000000E+00 0. -1.
         23    2    1    2    0    0  0.85266509431E+03  0.26573843195E+03 -0.16847518481E+04  0.19089829391E+04  0.90401299716E+02 0.  0.
         11    1    3    3    0    0  0.60686868910E+03  0.18832627872E+03 -0.11078407564E+04  0.12771325439E+04  0.00000000000E+00 0.  1.
        -11    1    3    3    0    0  0.24579640522E+03  0.77412153233E+02 -0.57691109170E+03  0.63185039528E+03  0.00000000000E+00 0. -1.
         22    1    1    2    0    0 -0.85266509431E+03 -0.26573843195E+03 -0.48927886870E+03  0.10183557770E+04  0.00000000000E+00 0.  1.
<mgrwt>
<rscale>  0 0.19603322E+04</rscale>
<asrwt>0</asrwt>
<pdfrwt beam="1">  1        2 0.39241301E+00 0.19603322E+04</pdfrwt>
<pdfrwt beam="2">  1       -2 0.57946772E-01 0.19603322E+04</pdfrwt>
<totfact> 0.84566261E+00</totfact>
</mgrwt>
</event>
<event>
 6    1  0.9562506E-007  0.1648366E+04  0.7818608E-02  0.8791373E-01
          1   -1    0    0  501    0  0.00000000000E+00  0.00000000000E+00  0.40576245530E+03  0.40576245530E+03  0.00000000000E+00 0. -1.
         -1   -1    0    0    0  501 -0.00000000000E+00 -0.00000000000E+00 -0.16740779144E+04  0.16740779144E+04  0.00000000000E+00 0.  1.
         23    2    1    2    0    0  0.32750706381E+03 -0.65771509200E+03 -0.17146997640E+03  0.75964340258E+03  0.88352290205E+02 0.  0.
         13    1    3    3    0    0  0.98870273871E+02 -0.23615025103E+03 -0.99643163986E+02  0.27471991600E+03  0.00000000000E+00 0.  1.
        -13    1    3    3    0    0  0.22863678994E+03 -0.42156484097E+03 -0.71826812411E+02  0.48492348658E+03  0.00000000000E+00 0. -1.
         22    1    1    2    0    0 -0.32750706381E+03  0.65771509200E+03 -0.10968454827E+04  0.13201969671E+04  0.00000000000E+00 0.  1.
<mgrwt>
<rscale>  0 0.16483664E+04</rscale>
<asrwt>0</asrwt>
<pdfrwt beam="1">  1        1 0.62424993E-01 0.16483664E+04</pdfrwt>
<pdfrwt beam="2">  1       -1 0.25755045E+00 0.16483664E+04</pdfrwt>
<totfact> 0.35031576E+00</totfact>
</mgrwt>
</event>
<event>
 6    1  0.9562506E-007  0.3945343E+04  0.7818608E-02  0.8015664E-01
         -2   -1    0    0    0  501 -0.00000000000E+00  0.00000000000E+00  0.26550453065E+04  0.26550453065E+04  0.00000000000E+00 0.  1.
          2   -1    0    0  501    0  0.00000000000E+00 -0.00000000000E+00 -0.14656751102E+04  0.14656751102E+04  0.00000000000E+00 0. -1.
         23    2    1    2    0    0 -0.14752386584E+04  0.10993390565E+04  0.13352503426E+04  0.22751428710E+04  0.92228766658E+02 0.  0.
         11    1    3    3    0    0 -0.71889279874E+03  0.59227771784E+03  0.68545986943E+03  0.11564838882E+04  0.00000000000E+00 0.  1.
        -11    1    3    3    0    0 -0.75634585965E+03  0.50706133870E+03  0.64979047316E+03  0.11186589827E+04  0.00000000000E+00 0. -1.
         22    1    1    2    0    0  0.14752386584E+04 -0.10993390565E+04 -0.14588014626E+03  0.18455775458E+04  0.00000000000E+00 0. -1.
<mgrwt>
<rscale>  0 0.39453435E+04</rscale>
<asrwt>0</asrwt>
<pdfrwt beam="1">  1        2 0.22548848E+00 0.39453435E+04</pdfrwt>
<pdfrwt beam="2">  1       -2 0.40846851E+00 0.39453435E+04</pdfrwt>
<totfact> 0.68665786E-02</totfact>
</mgrwt>
</event>
<event>
 6    1  0.9562506E-007  0.2374496E+04  0.7818608E-02  0.8449114E-01
         -1   -1    0    0    0  501 -0.00000000000E+00  0.00000000000E+00  0.17878480961E+04  0.17878480961E+04  0.00000000000E+00 0.  1.
          1   -1    0    0  501    0  0.00000000000E+00 -0.00000000000E+00 -0.78841008338E+03  0.78841008338E+03  0.00000000000E+00 0. -1.
         23    2    1    2    0    0  0.86774551510E+03  0.41569631195E+03 -0.25097266195E+03  0.99850263501E+03  0.90744323960E+02 0.  0.
         11    1    3    3    0    0  0.65848136029E+03  0.31940710503E+03 -0.23021897213E+03  0.76721533856E+03  0.00000000000E+00 0.  1.
        -11    1    3    3    0    0  0.20926415481E+03  0.96289206921E+02 -0.20753689814E+02  0.23128729645E+03  0.00000000000E+00 0. -1.
         22    1    1    2    0    0 -0.86774551510E+03 -0.41569631195E+03  0.12504106746E+04  0.15777555444E+04  0.00000000000E+00 0.  1.
<mgrwt>
<rscale>  0 0.23744957E+04</rscale>
<asrwt>0</asrwt>
<pdfrwt beam="1">  1        1 0.12129386E+00 0.23744957E+04</pdfrwt>
<pdfrwt beam="2">  1       -1 0.27505355E+00 0.23744957E+04</pdfrwt>
<totfact> 0.97397451E-01</totfact>
</mgrwt>
</event>
<event>
 6    1  0.9562506E-007  0.1695148E+04  0.7818608E-02  0.8764136E-01
          1   -1    0    0  501    0  0.00000000000E+00  0.00000000000E+00  0.10291288944E+04  0.10291288944E+04  0.00000000000E+00 0. -1.
         -1   -1    0    0    0  501 -0.00000000000E+00 -0.00000000000E+00 -0.69804846147E+03  0.69804846147E+03  0.00000000000E+00 0.  1.
         23    2    1    2    0    0  0.46661247804E+03 -0.90730005746E+02  0.87583259454E+03  0.10041876906E+04  0.12389933680E+03 0.  0.
         11    1    3    3    0    0  0.49265643507E+02 -0.29350944902E+02  0.19505992870E+03  0.20331492169E+03  0.00000000000E+00 0.  1.
        -11    1    3    3    0    0  0.41734683453E+03 -0.61379060843E+02  0.68077266583E+03  0.80087276889E+03  0.00000000000E+00 0. -1.
         22    1    1    2    0    0 -0.46661247804E+03  0.90730005746E+02 -0.54475216158E+03  0.72298966531E+03  0.00000000000E+00 0.  1.
<mgrwt>
<rscale>  0 0.16951482E+04</rscale>
<asrwt>0</asrwt>
<pdfrwt beam="1">  1        1 0.15832752E+00 0.16951482E+04</pdfrwt>
<pdfrwt beam="2">  1       -1 0.10739207E+00 0.16951482E+04</pdfrwt>
<totfact> 0.11044040E+01</totfact>
</mgrwt>
</event>
<event>
 6    1  0.9562506E-007  0.8325579E+03  0.7818608E-02  0.9514051E-01
         -1   -1    0    0    0  501 -0.00000000000E+00  0.00000000000E+00  0.20750274963E+03  0.20750274963E+03  0.00000000000E+00 0.  1.
          1   -1    0    0  501    0  0.00000000000E+00 -0.00000000000E+00 -0.83511252834E+03  0.83511252834E+03  0.00000000000E+00 0. -1.
         23    2    1    2    0    0  0.22213310463E+03  0.31876331277E+03 -0.48752113965E+03  0.62960439126E+03  0.88157031202E+02 0.  0.
         11    1    3    3    0    0  0.77335760178E+02  0.10310767252E+03 -0.23105521601E+03  0.26457234319E+03  0.00000000000E+00 0.  1.
        -11    1    3    3    0    0  0.14479734445E+03  0.21565564025E+03 -0.25646592364E+03  0.36503204808E+03  0.00000000000E+00 0. -1.
         22    1    1    2    0    0 -0.22213310463E+03 -0.31876331277E+03 -0.14008863907E+03  0.41301088671E+03  0.00000000000E+00 0. -1.
<mgrwt>
<rscale>  0 0.83255786E+03</rscale>
<asrwt>0</asrwt>
<pdfrwt beam="1">  1        1 0.12847885E+00 0.83255786E+03</pdfrwt>
<pdfrwt beam="2">  1       -1 0.31923501E-01 0.83255786E+03</pdfrwt>
<totfact> 0.19019718E+02</totfact>
</mgrwt>
</event>
<event>
 6    1  0.9562506E-007  0.9989953E+03  0.7818608E-02  0.9309647E-01
         -2   -1    0    0    0  501 -0.00000000000E+00  0.00000000000E+00  0.17988326332E+03  0.17988326332E+03  0.00000000000E+00 0.  1.
          2   -1    0    0  501    0  0.00000000000E+00 -0.00000000000E+00 -0.13869988500E+04  0.13869988500E+04  0.00000000000E+00 0. -1.
         23    2    1    2    0    0  0.38063314756E+03  0.54005266133E+02 -0.10983465206E+04  0.11673462933E+04  0.92380340562E+02 0.  0.
         11    1    3    3    0    0  0.28765586461E+03  0.19270297018E+02 -0.70500234725E+03  0.76167286313E+03  0.00000000000E+00 0. -1.
        -11    1    3    3    0    0  0.92977282947E+02  0.34734969115E+02 -0.39334417332E+03  0.40567343012E+03  0.00000000000E+00 0.  1.
         22    1    1    2    0    0 -0.38063314756E+03 -0.54005266133E+02 -0.10876906613E+03  0.39953582009E+03  0.00000000000E+00 0.  1.
<mgrwt>
<rscale>  0 0.99899525E+03</rscale>
<asrwt>0</asrwt>
<pdfrwt beam="1">  1        2 0.21338444E+00 0.99899525E+03</pdfrwt>
<pdfrwt beam="2">  1       -2 0.27674348E-01 0.99899525E+03</pdfrwt>
<totfact> 0.17486236E+02</totfact>
</mgrwt>
</event>
<event>
 6    1  0.9562506E-007  0.2806297E+04  0.7818608E-02  0.8301316E-01
          1   -1    0    0  501    0  0.00000000000E+00  0.00000000000E+00  0.16164548204E+04  0.16164548204E+04  0.00000000000E+00 0. -1.
         -1   -1    0    0    0  501 -0.00000000000E+00 -0.00000000000E+00 -0.12179902958E+04  0.12179902958E+04  0.00000000000E+00 0.  1.
         23    2    1    2    0    0  0.68844291240E+03 -0.12197771230E+04  0.25271143307E+03  0.14262356726E+04  0.92061131428E+02 0.  0.
         11    1    3    3    0    0  0.17747944067E+03 -0.38025534659E+03  0.48235727868E+02  0.42239763957E+03  0.00000000000E+00 0. -1.
        -11    1    3    3    0    0  0.51096347173E+03 -0.83952177640E+03  0.20447570520E+03  0.10038380330E+04  0.00000000000E+00 0.  1.
         22    1    1    2    0    0 -0.68844291240E+03  0.12197771230E+04  0.14575309147E+03  0.14082094436E+04  0.00000000000E+00 0.  1.
<mgrwt>
<rscale>  0 0.28062974E+04</rscale>
<asrwt>0</asrwt>
<pdfrwt beam="1">  1        1 0.24868536E+00 0.28062974E+04</pdfrwt>
<pdfrwt beam="2">  1       -1 0.18738312E+00 0.28062974E+04</pdfrwt>
<totfact> 0.86732692E-01</totfact>
</mgrwt>
</event>
<event>
 6    1  0.9562506E-007  0.3230692E+04  0.7818608E-02  0.8180758E-01
         -2   -1    0    0    0  501 -0.00000000000E+00  0.00000000000E+00  0.13751812594E+04  0.13751812594E+04  0.00000000000E+00 0.  1.
          2   -1    0    0  501    0  0.00000000000E+00 -0.00000000000E+00 -0.18974531792E+04  0.18974531792E+04  0.00000000000E+00 0. -1.
         23    2    1    2    0    0 -0.93146205344E+03 -0.41025274702E+03 -0.15302293795E+04  0.18401864939E+04  0.93570855957E+02 0.  0.
         13    1    3    3    0    0 -0.46058234997E+03 -0.19918277946E+03 -0.83852458042E+03  0.97720691397E+03  0.00000000000E+00 0. -1.
        -13    1    3    3    0    0 -0.47087970347E+03 -0.21106996756E+03 -0.69170479910E+03  0.86297957997E+03  0.00000000000E+00 0.  1.
         22    1    1    2    0    0  0.93146205344E+03  0.41025274702E+03  0.10079574597E+04  0.14324479446E+04  0.00000000000E+00 0. -1.
<mgrwt>
<rscale>  0 0.32306916E+04</rscale>
<asrwt>0</asrwt>
<pdfrwt beam="1">  1        2 0.29191587E+00 0.32306916E+04</pdfrwt>
<pdfrwt beam="2">  1       -2 0.21156635E+00 0.32306916E+04</pdfrwt>
<totfact> 0.71596834E-01</totfact>
</mgrwt>
</event>
<event>
 6    1  0.9562506E-007  0.1065329E+04  0.7818608E-02  0.9239660E-01
          2   -1    0    0  501    0  0.00000000000E+00  0.00000000000E+00  0.45517664588E+03  0.45517664588E+03  0.00000000000E+00 0. -1.
         -2   -1    0    0    0  501 -0.00000000000E+00 -0.00000000000E+00 -0.62334342415E+03  0.62334342415E+03  0.00000000000E+00 0.  1.
         23    2    1    2    0    0 -0.51371242915E+03 -0.64186893875E+02 -0.19457452594E+03  0.56014010674E+03  0.88754018674E+02 0.  0.
         13    1    3    3    0    0 -0.11963440711E+03  0.19685952916E+02 -0.60601673857E+02  0.13554516214E+03  0.00000000000E+00 0.  1.
        -13    1    3    3    0    0 -0.39407802204E+03 -0.83872846791E+02 -0.13397285208E+03  0.42459494460E+03  0.00000000000E+00 0. -1.
         22    1    1    2    0    0  0.51371242915E+03  0.64186893875E+02  0.26407747668E+02  0.51837996329E+03  0.00000000000E+00 0. -1.
<mgrwt>
<rscale>  0 0.10653288E+04</rscale>
<asrwt>0</asrwt>
<pdfrwt beam="1">  1        2 0.70027176E-01 0.10653288E+04</pdfrwt>
<pdfrwt beam="2">  1       -2 0.95898988E-01 0.10653288E+04</pdfrwt>
<totfact> 0.62280255E+01</totfact>
</mgrwt>
</event>
<event>
 6    1  0.9562506E-007  0.2270610E+04  0.7818608E-02  0.8489600E-01
         -2   -1    0    0    0  501 -0.00000000000E+00  0.00000000000E+00  0.53903344880E+03  0.53903344880E+03  0.00000000000E+00 0.  1.
          2   -1    0    0  501    0  0.00000000000E+00 -0.00000000000E+00 -0.23911635571E+04  0.23911635571E+04  0.00000000000E+00 0. -1.
         23    2    1    2    0    0 -0.10992897946E+04 -0.18694994162E+02 -0.12833801009E+04  0.16923504377E+04  0.90542615875E+02 0.  0.
         13    1    3    3    0    0 -0.67767288096E+03 -0.25126473990E+02 -0.72617650010E+03  0.99358149267E+03  0.00000000000E+00 0. -1.
        -13    1    3    3    0    0 -0.42161691369E+03  0.64314798283E+01 -0.55720360077E+03  0.69876894504E+03  0.00000000000E+00 0.  1.
         22    1    1    2    0    0  0.10992897946E+04  0.18694994162E+02 -0.56875000743E+03  0.12378465682E+04  0.00000000000E+00 0.  1.
<mgrwt>
<rscale>  0 0.22706097E+04</rscale>
<asrwt>0</asrwt>
<pdfrwt beam="1">  1        2 0.36787132E+00 0.22706097E+04</pdfrwt>
<pdfrwt beam="2">  1       -2 0.82928222E-01 0.22706097E+04</pdfrwt>
<totfact> 0.46580250E+00</totfact>
</mgrwt>
</event>
<event>
 6    1  0.1016270E-006  0.1907632E+04  0.7818608E-02  0.8651067E-01
          2   -1    0    0  501    0  0.00000000000E+00  0.00000000000E+00  0.15520122995E+04  0.15520122995E+04  0.00000000000E+00 0. -1.
         -2   -1    0    0    0  501 -0.00000000000E+00 -0.00000000000E+00 -0.58618410800E+03  0.58618410800E+03  0.00000000000E+00 0.  1.
         23    2    1    2    0    0  0.85325762065E+03  0.50561501386E+02  0.95312663681E+03  0.12833476711E+04  0.89027110684E+02 0.  0.
         11    1    3    3    0    0  0.49953807603E+03  0.36906577025E+02  0.49302546120E+03  0.70283318805E+03  0.00000000000E+00 0. -1.
        -11    1    3    3    0    0  0.35371954462E+03  0.13654924361E+02  0.46010117561E+03  0.58051448303E+03  0.00000000000E+00 0.  1.
         22    1    1    2    0    0 -0.85325762065E+03 -0.50561501386E+02  0.12701554661E+02  0.85484873640E+03  0.00000000000E+00 0.  1.
<mgrwt>
<rscale>  0 0.19076320E+04</rscale>
<asrwt>0</asrwt>
<pdfrwt beam="1">  1        2 0.23877112E+00 0.19076320E+04</pdfrwt>
<pdfrwt beam="2">  1       -2 0.90182171E-01 0.19076320E+04</pdfrwt>
<totfact> 0.11682326E+01</totfact>
</mgrwt>
</event>
<event>
 6    1  0.9562506E-007  0.1156529E+04  0.7818608E-02  0.9151781E-01
          2   -1    0    0  501    0  0.00000000000E+00  0.00000000000E+00  0.68409223876E+03  0.68409223876E+03  0.00000000000E+00 0. -1.
         -2   -1    0    0    0  501 -0.00000000000E+00 -0.00000000000E+00 -0.48880797890E+03  0.48880797890E+03  0.00000000000E+00 0.  1.
         23    2    1    2    0    0 -0.55951204778E+03  0.12914842265E+03  0.12083893578E+03  0.59387072535E+03  0.91363796632E+02 0.  0.
         13    1    3    3    0    0 -0.32850863809E+03  0.11532969962E+03  0.95794632925E+02  0.36110313847E+03  0.00000000000E+00 0. -1.
        -13    1    3    3    0    0 -0.23100340969E+03  0.13818723036E+02  0.25044302852E+02  0.23276758688E+03  0.00000000000E+00 0.  1.
         22    1    1    2    0    0  0.55951204778E+03 -0.12914842265E+03  0.74445324081E+02  0.57902949231E+03  0.00000000000E+00 0.  1.
<mgrwt>
<rscale>  0 0.11565288E+04</rscale>
<asrwt>0</asrwt>
<pdfrwt beam="1">  1        2 0.10524496E+00 0.11565288E+04</pdfrwt>
<pdfrwt beam="2">  1       -2 0.75201227E-01 0.11565288E+04</pdfrwt>
<totfact> 0.66287673E+01</totfact>
</mgrwt>
</event>
<event>
 6    1  0.9562506E-007  0.5576287E+03  0.7818608E-02  0.9997435E-01
         -2   -1    0    0    0  501 -0.00000000000E+00  0.00000000000E+00  0.86394388089E+02  0.86394388089E+02  0.00000000000E+00 0.  1.
          2   -1    0    0  501    0  0.00000000000E+00 -0.00000000000E+00 -0.89979728983E+03  0.89979728983E+03  0.00000000000E+00 0. -1.
         23    2    1    2    0    0 -0.18945958939E+03  0.19166621771E+03 -0.47344828652E+03  0.55237142086E+03  0.91269006533E+02 0.  0.
         13    1    3    3    0    0 -0.19592553431E+03  0.16231542342E+03 -0.42002805859E+03  0.49107706287E+03  0.00000000000E+00 0.  1.
        -13    1    3    3    0    0  0.64659449259E+01  0.29350794291E+02 -0.53420227935E+02  0.61294357994E+02  0.00000000000E+00 0. -1.
         22    1    1    2    0    0  0.18945958939E+03 -0.19166621771E+03 -0.33995461521E+03  0.43382025705E+03  0.00000000000E+00 0. -1.
<mgrwt>
<rscale>  0 0.55762868E+03</rscale>
<asrwt>0</asrwt>
<pdfrwt beam="1">  1        2 0.13843036E+00 0.55762868E+03</pdfrwt>
<pdfrwt beam="2">  1       -2 0.13291444E-01 0.55762868E+03</pdfrwt>
<totfact> 0.12670119E+03</totfact>
</mgrwt>
</event>
<event>
 6    1  0.9562506E-007  0.3483110E+04  0.7818608E-02  0.8117804E-01
          2   -1    0    0  501    0  0.00000000000E+00  0.00000000000E+00  0.22867773487E+04  0.22867773487E+04  0.00000000000E+00 0. -1.
         -2   -1    0    0    0  501 -0.00000000000E+00 -0.00000000000E+00 -0.13263266136E+04  0.13263266136E+04  0.00000000000E+00 0.  1.
         23    2    1    2    0    0  0.80646927883E+03 -0.15415111904E+04  0.53524823766E+03  0.18221693986E+04  0.84623836202E+02 0.  0.
         13    1    3    3    0    0  0.25116653680E+03 -0.44510789806E+03  0.12083587972E+03  0.52517328565E+03  0.00000000000E+00 0. -1.
        -13    1    3    3    0    0  0.55530274203E+03 -0.10964032923E+04  0.41441235794E+03  0.12969961130E+04  0.00000000000E+00 0.  1.
         22    1    1    2    0    0 -0.80646927883E+03  0.15415111904E+04  0.42520249746E+03  0.17909345637E+04  0.00000000000E+00 0.  1.
<mgrwt>
<rscale>  0 0.34831099E+04</rscale>
<asrwt>0</asrwt>
<pdfrwt beam="1">  1        2 0.35181190E+00 0.34831099E+04</pdfrwt>
<pdfrwt beam="2">  1       -2 0.20405025E+00 0.34831099E+04</pdfrwt>
<totfact> 0.47491666E-01</totfact>
</mgrwt>
</event>
<event>
 6    1  0.9562506E-007  0.3062804E+04  0.7818608E-02  0.8226021E-01
         -4   -1    0    0    0  501 -0.00000000000E+00  0.00000000000E+00  0.15947636036E+04  0.15947636036E+04  0.00000000000E+00 0.  1.
          4   -1    0    0  501    0  0.00000000000E+00 -0.00000000000E+00 -0.14705576351E+04  0.14705576351E+04  0.00000000000E+00 0. -1.
         23    2    1    2    0    0  0.37796526836E+03 -0.14170102032E+04  0.49872587635E+03  0.15517027857E+04  0.90985576801E+02 0.  0.
         13    1    3    3    0    0  0.14023291946E+03 -0.38280650338E+03  0.15684991286E+03  0.43681573448E+03  0.00000000000E+00 0. -1.
        -13    1    3    3    0    0  0.23773234890E+03 -0.10342036998E+04  0.34187596349E+03  0.11148870512E+04  0.00000000000E+00 0.  1.
         22    1    1    2    0    0 -0.37796526836E+03  0.14170102032E+04 -0.37451990781E+03  0.15136184531E+04  0.00000000000E+00 0.  1.
<mgrwt>
<rscale>  0 0.30628038E+04</rscale>
<asrwt>0</asrwt>
<pdfrwt beam="1">  1        4 0.22623964E+00 0.30628038E+04</pdfrwt>
<pdfrwt beam="2">  1       -4 0.24534825E+00 0.30628038E+04</pdfrwt>
<totfact> 0.10149135E-02</totfact>
</mgrwt>
</event>
<event>
 6    1  0.1237760E-006  0.2595387E+04  0.7818608E-02  0.8369770E-01
         -1   -1    0    0    0  501 -0.00000000000E+00  0.00000000000E+00  0.15226776957E+04  0.15226776957E+04  0.00000000000E+00 0.  1.
          1   -1    0    0  501    0  0.00000000000E+00 -0.00000000000E+00 -0.11059518336E+04  0.11059518336E+04  0.00000000000E+00 0. -1.
         23    2    1    2    0    0 -0.11891859003E+02  0.30881334808E+03  0.14835319328E+04  0.15179620306E+04  0.88513447142E+02 0.  0.
         13    1    3    3    0    0 -0.99934513870E+01  0.41107425864E+02  0.38332150419E+03  0.38564888838E+03  0.00000000000E+00 0. -1.
        -13    1    3    3    0    0 -0.18984076162E+01  0.26770592222E+03  0.11002104286E+04  0.11323131422E+04  0.00000000000E+00 0.  1.
         22    1    1    2    0    0  0.11891859003E+02 -0.30881334808E+03 -0.10668060707E+04  0.11106674987E+04  0.00000000000E+00 0. -1.
<mgrwt>
<rscale>  0 0.25953868E+04</rscale>
<asrwt>0</asrwt>
<pdfrwt beam="1">  1        1 0.17014644E+00 0.25953868E+04</pdfrwt>
<pdfrwt beam="2">  1       -1 0.23425811E+00 0.25953868E+04</pdfrwt>
<totfact> 0.97798731E-01</totfact>
</mgrwt>
</event>
<event>
 6    1  0.9562506E-007  0.2822571E+04  0.7818608E-02  0.8296295E-01
         -2   -1    0    0    0  501 -0.00000000000E+00  0.00000000000E+00  0.10408815992E+04  0.10408815992E+04  0.00000000000E+00 0.  1.
          2   -1    0    0  501    0  0.00000000000E+00 -0.00000000000E+00 -0.19135005068E+04  0.19135005068E+04  0.00000000000E+00 0. -1.
         23    2    1    2    0    0  0.85521928052E+03 -0.56691262955E+03  0.57520814662E+03  0.11798418482E+04  0.91500970038E+02 0.  0.
         11    1    3    3    0    0  0.71741229136E+03 -0.43595029472E+03  0.48354473389E+03  0.96878716183E+03  0.00000000000E+00 0. -1.
        -11    1    3    3    0    0  0.13780698917E+03 -0.13096233483E+03  0.91663412724E+02  0.21105468637E+03  0.00000000000E+00 0.  1.
         22    1    1    2    0    0 -0.85521928052E+03  0.56691262955E+03 -0.14478270543E+04  0.17745402578E+04  0.00000000000E+00 0. -1.
<mgrwt>
<rscale>  0 0.28225715E+04</rscale>
<asrwt>0</asrwt>
<pdfrwt beam="1">  1        2 0.29438469E+00 0.28225715E+04</pdfrwt>
<pdfrwt beam="2">  1       -2 0.16013563E+00 0.28225715E+04</pdfrwt>
<totfact> 0.16292852E+00</totfact>
</mgrwt>
</event>
<event>
 6    1  0.9562506E-007  0.2097969E+04  0.7818608E-02  0.8562138E-01
         -2   -1    0    0    0  501 -0.00000000000E+00  0.00000000000E+00  0.34382443114E+03  0.34382443114E+03  0.00000000000E+00 0.  1.
          2   -1    0    0  501    0  0.00000000000E+00 -0.00000000000E+00 -0.32003800769E+04  0.32003800769E+04  0.00000000000E+00 0. -1.
         23    2    1    2    0    0  0.21820715815E+03  0.89619624415E+03 -0.22684878049E+04  0.24503096971E+04  0.84844675603E+02 0.  0.
         11    1    3    3    0    0  0.87153860444E+02  0.48086077035E+03 -0.11177542458E+04  0.12199169766E+04  0.00000000000E+00 0. -1.
        -11    1    3    3    0    0  0.13105329771E+03  0.41533547380E+03 -0.11507335591E+04  0.12303927205E+04  0.00000000000E+00 0.  1.
         22    1    1    2    0    0 -0.21820715815E+03 -0.89619624415E+03 -0.58806784088E+03  0.10938948109E+04  0.00000000000E+00 0.  1.
<mgrwt>
<rscale>  0 0.20979694E+04</rscale>
<asrwt>0</asrwt>
<pdfrwt beam="1">  1        2 0.49236618E+00 0.20979694E+04</pdfrwt>
<pdfrwt beam="2">  1       -2 0.52896065E-01 0.20979694E+04</pdfrwt>
<totfact> 0.40377280E+00</totfact>
</mgrwt>
</event>
<event>
 6    1  0.9562506E-007  0.3352074E+04  0.7818608E-02  0.8149770E-01
          1   -1    0    0  501    0  0.00000000000E+00  0.00000000000E+00  0.20787672697E+04  0.20787672697E+04  0.00000000000E+00 0. -1.
         -1   -1    0    0    0  501 -0.00000000000E+00 -0.00000000000E+00 -0.13513295616E+04  0.13513295616E+04  0.00000000000E+00 0.  1.
         23    2    1    2    0    0  0.11140699854E+04  0.14647567578E+03 -0.90687886143E+03  0.14467668775E+04  0.89989290931E+02 0.  0.
         11    1    3    3    0    0  0.36867580561E+03  0.75988700348E+02 -0.26220117200E+03  0.45874348695E+03  0.00000000000E+00 0.  1.
        -11    1    3    3    0    0  0.74539417982E+03  0.70486975433E+02 -0.64467768943E+03  0.98802339054E+03  0.00000000000E+00 0. -1.
         22    1    1    2    0    0 -0.11140699854E+04 -0.14647567578E+03  0.16343165695E+04  0.19833299537E+04  0.00000000000E+00 0. -1.
<mgrwt>
<rscale>  0 0.33520738E+04</rscale>
<asrwt>0</asrwt>
<pdfrwt beam="1">  1        1 0.31981035E+00 0.33520738E+04</pdfrwt>
<pdfrwt beam="2">  1       -1 0.20789686E+00 0.33520738E+04</pdfrwt>
<totfact> 0.28914914E-01</totfact>
</mgrwt>
</event>
<event>
 6    1  0.9562506E-007  0.2392295E+04  0.7818608E-02  0.8442394E-01
         -1   -1    0    0    0  501 -0.00000000000E+00  0.00000000000E+00  0.82821201208E+03  0.82821201208E+03  0.00000000000E+00 0.  1.
          1   -1    0    0  501    0  0.00000000000E+00 -0.00000000000E+00 -0.17275397523E+04  0.17275397523E+04  0.00000000000E+00 0. -1.
         23    2    1    2    0    0 -0.10446871192E+04 -0.55272935421E+03 -0.26906008994E+03  0.12163047789E+04  0.10061345423E+03 0.  0.
         13    1    3    3    0    0 -0.19919925364E+03 -0.15011828537E+03 -0.45718952851E+02  0.25358640520E+03  0.00000000000E+00 0. -1.
        -13    1    3    3    0    0 -0.84548786552E+03 -0.40261106884E+03 -0.22334113709E+03  0.96271837368E+03  0.00000000000E+00 0.  1.
         22    1    1    2    0    0  0.10446871192E+04  0.55272935421E+03 -0.63026765026E+03  0.13394469855E+04  0.00000000000E+00 0. -1.
<mgrwt>
<rscale>  0 0.23922953E+04</rscale>
<asrwt>0</asrwt>
<pdfrwt beam="1">  1        1 0.26577535E+00 0.23922953E+04</pdfrwt>
<pdfrwt beam="2">  1       -1 0.12741723E+00 0.23922953E+04</pdfrwt>
<totfact> 0.21831463E+00</totfact>
</mgrwt>
</event>
<event>
 6    1  0.9562506E-007  0.1316919E+04  0.7818608E-02  0.9016255E-01
         -1   -1    0    0    0  501 -0.00000000000E+00  0.00000000000E+00  0.53066438629E+03  0.53066438629E+03  0.00000000000E+00 0.  1.
          1   -1    0    0  501    0  0.00000000000E+00 -0.00000000000E+00 -0.81703004532E+03  0.81703004532E+03  0.00000000000E+00 0. -1.
         23    2    1    2    0    0 -0.34505723707E+03 -0.12053398145E+03  0.41306123712E+03  0.55852339780E+03  0.87953753451E+02 0.  0.
         11    1    3    3    0    0 -0.26249151856E+03 -0.12969362178E+03  0.32653871722E+03  0.43857697921E+03  0.00000000000E+00 0. -1.
        -11    1    3    3    0    0 -0.82565718507E+02  0.91596403393E+01  0.86522519903E+02  0.11994641860E+03  0.00000000000E+00 0.  1.
         22    1    1    2    0    0  0.34505723707E+03  0.12053398145E+03 -0.69942689616E+03  0.78917103381E+03  0.00000000000E+00 0. -1.
<mgrwt>
<rscale>  0 0.13169187E+04</rscale>
<asrwt>0</asrwt>
<pdfrwt beam="1">  1        1 0.12569693E+00 0.13169187E+04</pdfrwt>
<pdfrwt beam="2">  1       -1 0.81640675E-01 0.13169187E+04</pdfrwt>
<totfact> 0.31332395E+01</totfact>
</mgrwt>
</event>
<event>
 6    1  0.9562506E-007  0.2142456E+04  0.7818608E-02  0.8542768E-01
         -2   -1    0    0    0  501 -0.00000000000E+00  0.00000000000E+00  0.62378146150E+03  0.62378146150E+03  0.00000000000E+00 0.  1.
          2   -1    0    0  501    0  0.00000000000E+00 -0.00000000000E+00 -0.18396343576E+04  0.18396343576E+04  0.00000000000E+00 0. -1.
         23    2    1    2    0    0 -0.90797244568E+02  0.73613049946E+03 -0.14950208481E+04  0.16709090386E+04  0.81959912048E+02 0.  0.
         13    1    3    3    0    0  0.12602719152E+01  0.24946562353E+03 -0.45242777294E+03  0.51664840592E+03  0.00000000000E+00 0. -1.
        -13    1    3    3    0    0 -0.92057516483E+02  0.48666487593E+03 -0.10425930751E+04  0.11542606326E+04  0.00000000000E+00 0.  1.
         22    1    1    2    0    0  0.90797244568E+02 -0.73613049946E+03  0.27916795192E+03  0.79250678056E+03  0.00000000000E+00 0.  1.
<mgrwt>
<rscale>  0 0.21424564E+04</rscale>
<asrwt>0</asrwt>
<pdfrwt beam="1">  1        2 0.28302067E+00 0.21424564E+04</pdfrwt>
<pdfrwt beam="2">  1       -2 0.95966380E-01 0.21424564E+04</pdfrwt>
<totfact> 0.68560884E+00</totfact>
</mgrwt>
</event>
<event>
 6    1  0.9562506E-007  0.5700700E+03  0.7818608E-02  0.9969524E-01
          2   -1    0    0  501    0  0.00000000000E+00  0.00000000000E+00  0.20172314907E+04  0.20172314907E+04  0.00000000000E+00 0. -1.
         -2   -1    0    0    0  501 -0.00000000000E+00 -0.00000000000E+00 -0.40275476342E+02  0.40275476342E+02  0.00000000000E+00 0.  1.
         23    2    1    2    0    0  0.17421492326E+03  0.19175562985E+03  0.13757248809E+04  0.14028315231E+04  0.90533271161E+02 0.  0.
         11    1    3    3    0    0  0.13745529684E+03  0.16510601586E+03  0.12657556110E+04  0.12838579445E+04  0.00000000000E+00 0. -1.
        -11    1    3    3    0    0  0.36759626418E+02  0.26649613998E+02  0.10996926994E+03  0.11897357855E+03  0.00000000000E+00 0.  1.
         22    1    1    2    0    0 -0.17421492326E+03 -0.19175562985E+03  0.60123113342E+03  0.65467544391E+03  0.00000000000E+00 0.  1.
<mgrwt>
<rscale>  0 0.57007003E+03</rscale>
<asrwt>0</asrwt>
<pdfrwt beam="1">  1        2 0.31034323E+00 0.57007003E+03</pdfrwt>
<pdfrwt beam="2">  1       -2 0.61962287E-02 0.57007003E+03</pdfrwt>
<totfact> 0.99854632E+02</totfact>
</mgrwt>
</event>
<event>
 6    1  0.9562506E-007  0.2974001E+04  0.7818608E-02  0.8251194E-01
          2   -1    0    0  501    0  0.00000000000E+00  0.00000000000E+00  0.14739739391E+04  0.14739739391E+04  0.00000000000E+00 0. -1.
         -2   -1    0    0    0  501 -0.00000000000E+00 -0.00000000000E+00 -0.15001420533E+04  0.15001420533E+04  0.00000000000E+00 0.  1.
         23    2    1    2    0    0 -0.72846126131E+03  0.93431959247E+03  0.88327552512E+03  0.14805643049E+04  0.91028004708E+02 0.  0.
         11    1    3    3    0    0 -0.54155108392E+03  0.70187638106E+03  0.61068351536E+03  0.10764954188E+04  0.00000000000E+00 0.  1.
        -11    1    3    3    0    0 -0.18691017740E+03  0.23244321141E+03  0.27259200976E+03  0.40406888612E+03  0.00000000000E+00 0. -1.
         22    1    1    2    0    0  0.72846126131E+03 -0.93431959247E+03 -0.90944363936E+03  0.14935516875E+04  0.00000000000E+00 0.  1.
<mgrwt>
<rscale>  0 0.29740009E+04</rscale>
<asrwt>0</asrwt>
<pdfrwt beam="1">  1        2 0.22676522E+00 0.29740009E+04</pdfrwt>
<pdfrwt beam="2">  1       -2 0.23079108E+00 0.29740009E+04</pdfrwt>
<totfact> 0.95228124E-01</totfact>
</mgrwt>
</event>
<event>
 6    1  0.9562506E-007  0.3026805E+04  0.7818608E-02  0.8236118E-01
          2   -1    0    0  501    0  0.00000000000E+00  0.00000000000E+00  0.26048982253E+04  0.26048982253E+04  0.00000000000E+00 0. -1.
         -2   -1    0    0    0  501 -0.00000000000E+00 -0.00000000000E+00 -0.87926179953E+03  0.87926179953E+03  0.00000000000E+00 0.  1.
         23    2    1    2    0    0 -0.13538800270E+04  0.52931054372E+03  0.13428567011E+04  0.19809364563E+04  0.87660396061E+02 0.  0.
         13    1    3    3    0    0 -0.48519474017E+03  0.21877606135E+03  0.53573938114E+03  0.75517785018E+03  0.00000000000E+00 0.  1.
        -13    1    3    3    0    0 -0.86868528688E+03  0.31053448237E+03  0.80711731992E+03  0.12257586061E+04  0.00000000000E+00 0. -1.
         22    1    1    2    0    0  0.13538800270E+04 -0.52931054372E+03  0.38277972472E+03  0.15032235685E+04  0.00000000000E+00 0.  1.
<mgrwt>
<rscale>  0 0.30268052E+04</rscale>
<asrwt>0</asrwt>
<pdfrwt beam="1">  1        2 0.40075357E+00 0.30268052E+04</pdfrwt>
<pdfrwt beam="2">  1       -2 0.13527105E+00 0.30268052E+04</pdfrwt>
<totfact> 0.10131882E+00</totfact>
</mgrwt>
</event>
<event>
 6    1  0.9562506E-007  0.1807725E+04  0.7818608E-02  0.8702202E-01
         -1   -1    0    0    0  501 -0.00000000000E+00  0.00000000000E+00  0.44155035114E+03  0.44155035114E+03  0.00000000000E+00 0.  1.
          1   -1    0    0  501    0  0.00000000000E+00 -0.00000000000E+00 -0.18502250976E+04  0.18502250976E+04  0.00000000000E+00 0. -1.
         23    2    1    2    0    0  0.28019683963E+03 -0.51218428256E+03  0.16388905936E+03  0.61433694565E+03  0.98525381381E+02 0.  0.
         11    1    3    3    0    0  0.11161868282E+03 -0.21150243904E+03  0.11769470234E+03  0.26654090687E+03  0.00000000000E+00 0.  1.
        -11    1    3    3    0    0  0.16857815681E+03 -0.30068184351E+03  0.46194357025E+02  0.34779603878E+03  0.00000000000E+00 0. -1.
         22    1    1    2    0    0 -0.28019683963E+03  0.51218428256E+03 -0.15725638058E+04  0.16774385031E+04  0.00000000000E+00 0. -1.
<mgrwt>
<rscale>  0 0.18077251E+04</rscale>
<asrwt>0</asrwt>
<pdfrwt beam="1">  1        1 0.28465001E+00 0.18077251E+04</pdfrwt>
<pdfrwt beam="2">  1       -1 0.67930825E-01 0.18077251E+04</pdfrwt>
<totfact> 0.77919021E+00</totfact>
</mgrwt>
</event>
<event>
 6    1  0.9562506E-007  0.4479357E+04  0.7818608E-02  0.7914261E-01
          2   -1    0    0  501    0  0.00000000000E+00  0.00000000000E+00  0.16906250670E+04  0.16906250670E+04  0.00000000000E+00 0. -1.
         -2   -1    0    0    0  501 -0.00000000000E+00 -0.00000000000E+00 -0.29670446329E+04  0.29670446329E+04  0.00000000000E+00 0.  1.
         23    2    1    2    0    0 -0.11155222514E+04 -0.25777761662E+03  0.13619087201E+04  0.17816280906E+04  0.92542413721E+02 0.  0.
         11    1    3    3    0    0 -0.42984792560E+03 -0.53477198974E+02  0.51959640868E+03  0.67646838645E+03  0.00000000000E+00 0. -1.
        -11    1    3    3    0    0 -0.68567432578E+03 -0.20430041764E+03  0.84231231146E+03  0.11051597042E+04  0.00000000000E+00 0.  1.
         22    1    1    2    0    0  0.11155222514E+04  0.25777761662E+03 -0.26383282861E+04  0.28760416092E+04  0.00000000000E+00 0.  1.
<mgrwt>
<rscale>  0 0.44793571E+04</rscale>
<asrwt>0</asrwt>
<pdfrwt beam="1">  1        2 0.26009616E+00 0.44793571E+04</pdfrwt>
<pdfrwt beam="2">  1       -2 0.45646840E+00 0.44793571E+04</pdfrwt>
<totfact> 0.23733381E-02</totfact>
</mgrwt>
</event>
<event>
 6    1  0.9562506E-007  0.1657200E+04  0.7818608E-02  0.8786158E-01
          2   -1    0    0  501    0  0.00000000000E+00  0.00000000000E+00  0.99802105532E+03  0.99802105532E+03  0.00000000000E+00 0. -1.
         -2   -1    0    0    0  501 -0.00000000000E+00 -0.00000000000E+00 -0.68793927721E+03  0.68793927721E+03  0.00000000000E+00 0.  1.
         23    2    1    2    0    0 -0.19059563449E+02 -0.80573138685E+03  0.34159844748E+03  0.87938756137E+03  0.84063363282E+02 0.  0.
         11    1    3    3    0    0 -0.35033359301E+02 -0.45705851008E+03  0.15699796514E+03  0.48453914079E+03  0.00000000000E+00 0. -1.
        -11    1    3    3    0    0  0.15973795851E+02 -0.34867287678E+03  0.18460048234E+03  0.39484842058E+03  0.00000000000E+00 0.  1.
         22    1    1    2    0    0  0.19059563449E+02  0.80573138685E+03 -0.31516669370E+02  0.80657277116E+03  0.00000000000E+00 0.  1.
<mgrwt>
<rscale>  0 0.16571999E+04</rscale>
<asrwt>0</asrwt>
<pdfrwt beam="1">  1        2 0.15354170E+00 0.16571999E+04</pdfrwt>
<pdfrwt beam="2">  1       -2 0.10583681E+00 0.16571999E+04</pdfrwt>
<totfact> 0.17396817E+01</totfact>
</mgrwt>
</event>
<event>
 6    1  0.1358547E-006  0.2464929E+04  0.7818608E-02  0.8415587E-01
         -2   -1    0    0    0  501 -0.00000000000E+00  0.00000000000E+00  0.18890290415E+04  0.18890290415E+04  0.00000000000E+00 0.  1.
          2   -1    0    0  501    0  0.00000000000E+00 -0.00000000000E+00 -0.80410020748E+03  0.80410020748E+03  0.00000000000E+00 0. -1.
         23    2    1    2    0    0 -0.36776324154E+01 -0.22600749788E+03  0.18650585194E+04  0.18809129970E+04  0.91090655103E+02 0.  0.
         13    1    3    3    0    0  0.17002892418E+02 -0.82026254674E+02  0.10193623698E+04  0.10227986340E+04  0.00000000000E+00 0. -1.
        -13    1    3    3    0    0 -0.20680524833E+02 -0.14398124320E+03  0.84569614960E+03  0.85811436298E+03  0.00000000000E+00 0.  1.
         22    1    1    2    0    0  0.36776324154E+01  0.22600749788E+03 -0.78012968534E+03  0.81221625201E+03  0.00000000000E+00 0. -1.
<mgrwt>
<rscale>  0 0.24649289E+04</rscale>
<asrwt>0</asrwt>
<pdfrwt beam="1">  1        2 0.12370773E+00 0.24649289E+04</pdfrwt>
<pdfrwt beam="2">  1       -2 0.29061985E+00 0.24649289E+04</pdfrwt>
<totfact> 0.11101038E+00</totfact>
</mgrwt>
</event>
<event>
 6    1  0.9562506E-007  0.3811585E+03  0.7818608E-02  0.1050506E+00
         -1   -1    0    0    0  501 -0.00000000000E+00  0.00000000000E+00  0.51943658719E+02  0.51943658719E+02  0.00000000000E+00 0.  1.
          1   -1    0    0  501    0  0.00000000000E+00 -0.00000000000E+00 -0.69922776905E+03  0.69922776905E+03  0.00000000000E+00 0. -1.
         23    2    1    2    0    0  0.13009604044E+02  0.12703277647E+01 -0.69532579879E+03  0.70138320266E+03  0.91047059187E+02 0.  0.
         13    1    3    3    0    0 -0.34043516884E+02  0.21023423451E+02 -0.35602253004E+03  0.35826385147E+03  0.00000000000E+00 0. -1.
        -13    1    3    3    0    0  0.47053120927E+02 -0.19753095686E+02 -0.33930326875E+03  0.34311935119E+03  0.00000000000E+00 0.  1.
         22    1    1    2    0    0 -0.13009604044E+02 -0.12703277647E+01  0.48041688454E+02  0.49788225109E+02  0.00000000000E+00 0.  1.
<mgrwt>
<rscale>  0 0.38115849E+03</rscale>
<asrwt>0</asrwt>
<pdfrwt beam="1">  1        1 0.10757351E+00 0.38115849E+03</pdfrwt>
<pdfrwt beam="2">  1       -1 0.79913318E-02 0.38115849E+03</pdfrwt>
<totfact> 0.24431632E+03</totfact>
</mgrwt>
</event>
<event>
 6    1  0.9562506E-007  0.1787663E+04  0.7818608E-02  0.8712888E-01
         -1   -1    0    0    0  501 -0.00000000000E+00  0.00000000000E+00  0.70965285756E+03  0.70965285756E+03  0.00000000000E+00 0.  1.
          1   -1    0    0  501    0  0.00000000000E+00 -0.00000000000E+00 -0.11258108822E+04  0.11258108822E+04  0.00000000000E+00 0. -1.
         23    2    1    2    0    0 -0.11326646534E+03  0.60055880901E+03  0.45769328003E+03  0.76910719622E+03  0.92425999847E+02 0.  0.
         11    1    3    3    0    0 -0.26171053751E+02  0.30172800423E+03  0.18223931899E+03  0.35346270238E+03  0.00000000000E+00 0. -1.
        -11    1    3    3    0    0 -0.87095411592E+02  0.29883080478E+03  0.27545396104E+03  0.41564449384E+03  0.00000000000E+00 0.  1.
         22    1    1    2    0    0  0.11326646534E+03 -0.60055880901E+03 -0.87385130462E+03  0.10663565435E+04  0.00000000000E+00 0. -1.
<mgrwt>
<rscale>  0 0.17876632E+04</rscale>
<asrwt>0</asrwt>
<pdfrwt beam="1">  1        1 0.17320167E+00 0.17876632E+04</pdfrwt>
<pdfrwt beam="2">  1       -1 0.10917736E+00 0.17876632E+04</pdfrwt>
<totfact> 0.88989787E+00</totfact>
</mgrwt>
</event>
<event>
 6    1  0.9562506E-007  0.2578131E+04  0.7818608E-02  0.8375668E-01
          2   -1    0    0  501    0  0.00000000000E+00  0.00000000000E+00  0.91746706373E+03  0.91746706373E+03  0.00000000000E+00 0. -1.
         -2   -1    0    0    0  501 -0.00000000000E+00 -0.00000000000E+00 -0.18111705186E+04  0.18111705186E+04  0.00000000000E+00 0.  1.
         23    2    1    2    0    0 -0.11556112678E+04  0.51684808901E+02  0.15081554043E+03  0.11700713652E+04  0.90625330526E+02 0.  0.
         11    1    3    3    0    0 -0.10374335857E+04  0.18763050279E+02  0.13227391229E+03  0.10460004229E+04  0.00000000000E+00 0.  1.
        -11    1    3    3    0    0 -0.11817768209E+03  0.32921758622E+02  0.18541628139E+02  0.12407094224E+03  0.00000000000E+00 0. -1.
         22    1    1    2    0    0  0.11556112678E+04 -0.51684808901E+02 -0.10445189953E+04  0.15585662172E+04  0.00000000000E+00 0.  1.
<mgrwt>
<rscale>  0 0.25781306E+04</rscale>
<asrwt>0</asrwt>
<pdfrwt beam="1">  1        2 0.14114878E+00 0.25781306E+04</pdfrwt>
<pdfrwt beam="2">  1       -2 0.27864162E+00 0.25781306E+04</pdfrwt>
<totfact> 0.10854614E+00</totfact>
</mgrwt>
</event>
<event>
 6    1  0.9562506E-007  0.2065429E+04  0.7818608E-02  0.8576627E-01
          1   -1    0    0  501    0  0.00000000000E+00  0.00000000000E+00  0.10120321101E+04  0.10120321101E+04  0.00000000000E+00 0. -1.
         -1   -1    0    0    0  501 -0.00000000000E+00 -0.00000000000E+00 -0.10538193710E+04  0.10538193710E+04  0.00000000000E+00 0.  1.
         23    2    1    2    0    0  0.11978179491E+03 -0.39914503524E+03 -0.96381108782E+03  0.10540252237E+04  0.91503670196E+02 0.  0.
         11    1    3    3    0    0  0.50854824124E+02 -0.25616444466E+03 -0.68652889391E+03  0.73452594101E+03  0.00000000000E+00 0.  1.
        -11    1    3    3    0    0  0.68926970784E+02 -0.14298059059E+03 -0.27728219391E+03  0.31949928270E+03  0.00000000000E+00 0. -1.
         22    1    1    2    0    0 -0.11978179491E+03  0.39914503524E+03  0.92202382694E+03  0.10118262573E+04  0.00000000000E+00 0. -1.
<mgrwt>
<rscale>  0 0.20654288E+04</rscale>
<asrwt>0</asrwt>
<pdfrwt beam="1">  1        1 0.15569725E+00 0.20654288E+04</pdfrwt>
<pdfrwt beam="2">  1       -1 0.16212606E+00 0.20654288E+04</pdfrwt>
<totfact> 0.38467829E+00</totfact>
</mgrwt>
</event>
<event>
 6    1  0.9562506E-007  0.1068930E+04  0.7818608E-02  0.9236015E-01
         -2   -1    0    0    0  501 -0.00000000000E+00  0.00000000000E+00  0.10150110540E+03  0.10150110540E+03  0.00000000000E+00 0.  1.
          2   -1    0    0  501    0  0.00000000000E+00 -0.00000000000E+00 -0.28142828656E+04  0.28142828656E+04  0.00000000000E+00 0. -1.
         23    2    1    2    0    0 -0.69075688105E+02  0.45131062923E+03 -0.62892320083E+03  0.78249561023E+03  0.91116698521E+02 0.  0.
         11    1    3    3    0    0 -0.65160470820E+01  0.26633338130E+03 -0.31225630764E+03  0.41046306840E+03  0.00000000000E+00 0.  1.
        -11    1    3    3    0    0 -0.62559641023E+02  0.18497724794E+03 -0.31666689319E+03  0.37203254183E+03  0.00000000000E+00 0. -1.
         22    1    1    2    0    0  0.69075688105E+02 -0.45131062923E+03 -0.20838585594E+04  0.21332883608E+04  0.00000000000E+00 0. -1.
<mgrwt>
<rscale>  0 0.10689300E+04</rscale>
<asrwt>0</asrwt>
<pdfrwt beam="1">  1        2 0.43296659E+00 0.10689300E+04</pdfrwt>
<pdfrwt beam="2">  1       -2 0.15615555E-01 0.10689300E+04</pdfrwt>
<totfact> 0.75138132E+01</totfact>
</mgrwt>
</event>
<event>
 6    1  0.9562506E-007  0.1768999E+04  0.7818608E-02  0.8722961E-01
          2   -1    0    0  501    0  0.00000000000E+00  0.00000000000E+00  0.80355755796E+03  0.80355755796E+03  0.00000000000E+00 0. -1.
         -2   -1    0    0    0  501 -0.00000000000E+00 -0.00000000000E+00 -0.97359470998E+03  0.97359470998E+03  0.00000000000E+00 0.  1.
         23    2    1    2    0    0  0.51596366418E+03 -0.71234120149E+03 -0.15218362923E+03  0.89739818960E+03  0.92277644104E+02 0.  0.
         13    1    3    3    0    0  0.32466561319E+03 -0.45944730239E+03 -0.52621365520E+02  0.56503857582E+03  0.00000000000E+00 0. -1.
        -13    1    3    3    0    0  0.19129805099E+03 -0.25289389910E+03 -0.99562263713E+02  0.33235961378E+03  0.00000000000E+00 0.  1.
         22    1    1    2    0    0 -0.51596366418E+03  0.71234120149E+03 -0.17853522784E+02  0.87975407834E+03  0.00000000000E+00 0.  1.
<mgrwt>
<rscale>  0 0.17689990E+04</rscale>
<asrwt>0</asrwt>
<pdfrwt beam="1">  1        2 0.12362424E+00 0.17689990E+04</pdfrwt>
<pdfrwt beam="2">  1       -2 0.14978380E+00 0.17689990E+04</pdfrwt>
<totfact> 0.97433154E+00</totfact>
</mgrwt>
</event>
<event>
 6    1  0.9562506E-007  0.1721444E+04  0.7818608E-02  0.8749228E-01
          1   -1    0    0  501    0  0.00000000000E+00  0.00000000000E+00  0.26326991490E+04  0.26326991490E+04  0.00000000000E+00 0. -1.
         -1   -1    0    0    0  501 -0.00000000000E+00 -0.00000000000E+00 -0.28140027663E+03  0.28140027663E+03  0.00000000000E+00 0.  1.
         23    2    1    2    0    0  0.12866044167E+03 -0.46350519599E+03 -0.23691716644E+02  0.49088443849E+03  0.94950821780E+02 0.  0.
         11    1    3    3    0    0  0.42456135741E+02 -0.31441289816E+03 -0.17404971476E+01  0.31727121414E+03  0.00000000000E+00 0. -1.
        -11    1    3    3    0    0  0.86204305931E+02 -0.14909229783E+03 -0.21951219496E+02  0.17361322436E+03  0.00000000000E+00 0.  1.
         22    1    1    2    0    0 -0.12866044167E+03  0.46350519599E+03  0.23749905890E+04  0.24232149871E+04  0.00000000000E+00 0. -1.
<mgrwt>
<rscale>  0 0.17214439E+04</rscale>
<asrwt>0</asrwt>
<pdfrwt beam="1">  1        1 0.40503062E+00 0.17214439E+04</pdfrwt>
<pdfrwt beam="2">  1       -1 0.43292352E-01 0.17214439E+04</pdfrwt>
<totfact> 0.54832190E+00</totfact>
</mgrwt>
</event>
<event>
 6    1  0.9562506E-007  0.1861970E+04  0.7818608E-02  0.8674022E-01
          2   -1    0    0  501    0  0.00000000000E+00  0.00000000000E+00  0.33407268035E+03  0.33407268035E+03  0.00000000000E+00 0. -1.
         -2   -1    0    0    0  501 -0.00000000000E+00 -0.00000000000E+00 -0.25944435841E+04  0.25944435841E+04  0.00000000000E+00 0.  1.
         23    2    1    2    0    0 -0.45750330771E+03 -0.38446088455E+03 -0.15939301157E+02  0.60589002094E+03  0.98636746881E+02 0.  0.
         11    1    3    3    0    0 -0.13660719384E+03 -0.63393623273E+02  0.12122271994E+02  0.15108681729E+03  0.00000000000E+00 0.  1.
        -11    1    3    3    0    0 -0.32089611388E+03 -0.32106726128E+03 -0.28061573151E+02  0.45480320365E+03  0.00000000000E+00 0. -1.
         22    1    1    2    0    0  0.45750330771E+03  0.38446088455E+03 -0.22444316026E+04  0.23226262435E+04  0.00000000000E+00 0.  1.
<mgrwt>
<rscale>  0 0.18619696E+04</rscale>
<asrwt>0</asrwt>
<pdfrwt beam="1">  1        2 0.51395796E-01 0.18619696E+04</pdfrwt>
<pdfrwt beam="2">  1       -2 0.39914517E+00 0.18619696E+04</pdfrwt>
<totfact> 0.69045970E-01</totfact>
</mgrwt>
</event>
<event>
 6    1  0.9562506E-007  0.1734748E+04  0.7818608E-02  0.8741791E-01
          1   -1    0    0  501    0  0.00000000000E+00  0.00000000000E+00  0.19079215431E+04  0.19079215431E+04  0.00000000000E+00 0. -1.
         -1   -1    0    0    0  501 -0.00000000000E+00 -0.00000000000E+00 -0.39432296786E+03  0.39432296786E+03  0.00000000000E+00 0.  1.
         23    2    1    2    0    0  0.20312923959E+03  0.28233108196E+03 -0.29269260840E+03  0.46277171477E+03  0.86696996282E+02 0.  0.
         11    1    3    3    0    0  0.12564212314E+03  0.10927330411E+03 -0.16324258719E+03  0.23318391963E+03  0.00000000000E+00 0.  1.
        -11    1    3    3    0    0  0.77487116447E+02  0.17305777785E+03 -0.12945002120E+03  0.22958779514E+03  0.00000000000E+00 0. -1.
         22    1    1    2    0    0 -0.20312923959E+03 -0.28233108196E+03  0.18062911837E+04  0.18394727962E+04  0.00000000000E+00 0. -1.
<mgrwt>
<rscale>  0 0.17347476E+04</rscale>
<asrwt>0</asrwt>
<pdfrwt beam="1">  1        1 0.29352639E+00 0.17347476E+04</pdfrwt>
<pdfrwt beam="2">  1       -1 0.60665073E-01 0.17347476E+04</pdfrwt>
<totfact> 0.89983108E+00</totfact>
</mgrwt>
</event>
<event>
 6    1  0.9562506E-007  0.4117876E+04  0.7818608E-02  0.7981180E-01
          2   -1    0    0  501    0  0.00000000000E+00  0.00000000000E+00  0.37526655267E+04  0.37526655267E+04  0.00000000000E+00 0. -1.
         -2   -1    0    0    0  501 -0.00000000000E+00 -0.00000000000E+00 -0.11296570658E+04  0.11296570658E+04  0.00000000000E+00 0.  1.
         23    2    1    2    0    0  0.18462197508E+04  0.44402153209E+02  0.23552551634E+03  0.18639498968E+04  0.91312810630E+02 0.  0.
         11    1    3    3    0    0  0.89473819513E+03  0.26685930055E+02  0.68459834791E+02  0.89775014658E+03  0.00000000000E+00 0.  1.
        -11    1    3    3    0    0  0.95148155567E+03  0.17716223154E+02  0.16706568155E+03  0.96619975021E+03  0.00000000000E+00 0. -1.
         22    1    1    2    0    0 -0.18462197508E+04 -0.44402153209E+02  0.23874829446E+04  0.30183726957E+04  0.00000000000E+00 0. -1.
<mgrwt>
<rscale>  0 0.41178757E+04</rscale>
<asrwt>0</asrwt>
<pdfrwt beam="1">  1        2 0.57733315E+00 0.41178757E+04</pdfrwt>
<pdfrwt beam="2">  1       -2 0.17379340E+00 0.41178757E+04</pdfrwt>
<totfact> 0.83266872E-02</totfact>
</mgrwt>
</event>
<event>
 6    1  0.9562506E-007  0.2869420E+04  0.7818608E-02  0.8282034E-01
         -2   -1    0    0    0  501 -0.00000000000E+00  0.00000000000E+00  0.12740060679E+04  0.12740060679E+04  0.00000000000E+00 0.  1.
          2   -1    0    0  501    0  0.00000000000E+00 -0.00000000000E+00 -0.16156851464E+04  0.16156851464E+04  0.00000000000E+00 0. -1.
         23    2    1    2    0    0  0.93056958878E+03  0.10601857331E+04  0.84556698693E+02  0.14160459089E+04  0.89903462777E+02 0.  0.
         11    1    3    3    0    0  0.44202584174E+03  0.53268867270E+03  0.76666706792E+00  0.69220275538E+03  0.00000000000E+00 0.  1.
        -11    1    3    3    0    0  0.48854374705E+03  0.52749706042E+03  0.83790031625E+02  0.72384315354E+03  0.00000000000E+00 0. -1.
         22    1    1    2    0    0 -0.93056958878E+03 -0.10601857331E+04 -0.42623577713E+03  0.14736453054E+04  0.00000000000E+00 0. -1.
<mgrwt>
<rscale>  0 0.28694199E+04</rscale>
<asrwt>0</asrwt>
<pdfrwt beam="1">  1        2 0.24856694E+00 0.28694199E+04</pdfrwt>
<pdfrwt beam="2">  1       -2 0.19600094E+00 0.28694199E+04</pdfrwt>
<totfact> 0.13366355E+00</totfact>
</mgrwt>
</event>
<event>
 6    1  0.9562506E-007  0.2948185E+04  0.7818608E-02  0.8258684E-01
          2   -1    0    0  501    0  0.00000000000E+00  0.00000000000E+00  0.78412094559E+03  0.78412094559E+03  0.00000000000E+00 0. -1.
         -2   -1    0    0    0  501 -0.00000000000E+00 -0.00000000000E+00 -0.27711908021E+04  0.27711908021E+04  0.00000000000E+00 0.  1.
         23    2    1    2    0    0 -0.14426615402E+03 -0.85659245872E+03  0.43958363995E+03  0.97786910905E+03  0.91819684135E+02 0.  0.
         13    1    3    3    0    0 -0.33220085022E+01 -0.72381301841E+02  0.65387225115E+02  0.97599066619E+02  0.00000000000E+00 0. -1.
        -13    1    3    3    0    0 -0.14094414552E+03 -0.78421115688E+03  0.37419641484E+03  0.88027004243E+03  0.00000000000E+00 0.  1.
         22    1    1    2    0    0  0.14426615402E+03  0.85659245872E+03 -0.24266534964E+04  0.25774426386E+04  0.00000000000E+00 0.  1.
<mgrwt>
<rscale>  0 0.29481850E+04</rscale>
<asrwt>0</asrwt>
<pdfrwt beam="1">  1        2 0.12063399E+00 0.29481850E+04</pdfrwt>
<pdfrwt beam="2">  1       -2 0.42633704E+00 0.29481850E+04</pdfrwt>
<totfact> 0.15125513E-01</totfact>
</mgrwt>
</event>
<event>
 6    1  0.9562506E-007  0.6565596E+03  0.7818608E-02  0.9794548E-01
          2   -1    0    0  501    0  0.00000000000E+00  0.00000000000E+00  0.12034577391E+04  0.12034577391E+04  0.00000000000E+00 0. -1.
         -2   -1    0    0    0  501 -0.00000000000E+00 -0.00000000000E+00 -0.89548314486E+02  0.89548314486E+02  0.00000000000E+00 0.  1.
         23    2    1    2    0    0  0.89938909302E+02 -0.28152186141E+03  0.81921636144E+03  0.87564821270E+03  0.91108614859E+02 0.  0.
         11    1    3    3    0    0  0.87120326675E+02 -0.15860380452E+03  0.40540074025E+03  0.44395368939E+03  0.00000000000E+00 0.  1.
        -11    1    3    3    0    0  0.28185826271E+01 -0.12291805689E+03  0.41381562119E+03  0.43169452331E+03  0.00000000000E+00 0. -1.
         22    1    1    2    0    0 -0.89938909302E+02  0.28152186141E+03  0.29469306314E+03  0.41735784085E+03  0.00000000000E+00 0.  1.
<mgrwt>
<rscale>  0 0.65655955E+03</rscale>
<asrwt>0</asrwt>
<pdfrwt beam="1">  1        2 0.18514733E+00 0.65655955E+03</pdfrwt>
<pdfrwt beam="2">  1       -2 0.13776665E-01 0.65655955E+03</pdfrwt>
<totfact> 0.77045786E+02</totfact>
</mgrwt>
</event>
<event>
 6    1  0.9562506E-007  0.2886661E+04  0.7818608E-02  0.8276857E-01
         -2   -1    0    0    0  501 -0.00000000000E+00  0.00000000000E+00  0.70091925848E+03  0.70091925848E+03  0.00000000000E+00 0.  1.
          2   -1    0    0  501    0  0.00000000000E+00 -0.00000000000E+00 -0.29721009096E+04  0.29721009096E+04  0.00000000000E+00 0. -1.
         23    2    1    2    0    0  0.22421706913E+03  0.87964872634E+03  0.28767838946E+03  0.95791061538E+03  0.10382059262E+03 0.  0.
         11    1    3    3    0    0  0.15163993662E+02  0.12891164589E+03  0.83755642843E+01  0.13007040104E+03  0.00000000000E+00 0. -1.
        -11    1    3    3    0    0  0.20905307547E+03  0.75073708046E+03  0.27930282517E+03  0.82784021434E+03  0.00000000000E+00 0.  1.
         22    1    1    2    0    0 -0.22421706913E+03 -0.87964872634E+03 -0.25588600405E+04  0.27151095527E+04  0.00000000000E+00 0. -1.
<mgrwt>
<rscale>  0 0.28866609E+04</rscale>
<asrwt>0</asrwt>
<pdfrwt beam="1">  1        2 0.45724629E+00 0.28866609E+04</pdfrwt>
<pdfrwt beam="2">  1       -2 0.10783373E+00 0.28866609E+04</pdfrwt>
<totfact> 0.10791193E+00</totfact>
</mgrwt>
</event>
<event>
 6    1  0.9562506E-007  0.3839601E+04  0.7818608E-02  0.8037710E-01
          2   -1    0    0  501    0  0.00000000000E+00  0.00000000000E+00  0.25966815052E+04  0.25966815052E+04  0.00000000000E+00 0. -1.
         -2   -1    0    0    0  501 -0.00000000000E+00 -0.00000000000E+00 -0.14193634642E+04  0.14193634642E+04  0.00000000000E+00 0.  1.
         23    2    1    2    0    0 -0.48260485323E+03 -0.12389276635E+04 -0.85792834208E+03  0.15849799683E+04  0.90946468425E+02 0.  0.
         11    1    3    3    0    0 -0.18878767407E+03 -0.56579170749E+03 -0.34378052682E+03  0.68843742836E+03  0.00000000000E+00 0.  1.
        -11    1    3    3    0    0 -0.29381717916E+03 -0.67313595602E+03 -0.51414781526E+03  0.89654253997E+03  0.00000000000E+00 0. -1.
         22    1    1    2    0    0  0.48260485323E+03  0.12389276635E+04  0.20352463830E+04  0.24310650011E+04  0.00000000000E+00 0. -1.
<mgrwt>
<rscale>  0 0.38396015E+04</rscale>
<asrwt>0</asrwt>
<pdfrwt beam="1">  1        2 0.39948946E+00 0.38396015E+04</pdfrwt>
<pdfrwt beam="2">  1       -2 0.21836361E+00 0.38396015E+04</pdfrwt>
<totfact> 0.24729050E-01</totfact>
</mgrwt>
</event>
<event>
 6    1  0.9562506E-007  0.1844825E+04  0.7818608E-02  0.8682819E-01
          3   -1    0    0  501    0  0.00000000000E+00  0.00000000000E+00  0.39655861846E+03  0.39655861846E+03  0.00000000000E+00 0. -1.
         -3   -1    0    0    0  501 -0.00000000000E+00 -0.00000000000E+00 -0.21455713202E+04  0.21455713202E+04  0.00000000000E+00 0.  1.
         23    2    1    2    0    0  0.59299297754E+03 -0.47671401625E+03 -0.16365283171E+03  0.78364683036E+03  0.91777887935E+02 0.  0.
         11    1    3    3    0    0  0.32363849206E+03 -0.31676702753E+03 -0.10641002900E+03  0.46519492424E+03  0.00000000000E+00 0.  1.
        -11    1    3    3    0    0  0.26935448548E+03 -0.15994698872E+03 -0.57242802711E+02  0.31845190612E+03  0.00000000000E+00 0. -1.
         22    1    1    2    0    0 -0.59299297754E+03  0.47671401625E+03 -0.15853598701E+04  0.17584831083E+04  0.00000000000E+00 0.  1.
<mgrwt>
<rscale>  0 0.18448250E+04</rscale>
<asrwt>0</asrwt>
<pdfrwt beam="1">  1        3 0.61009018E-01 0.18448250E+04</pdfrwt>
<pdfrwt beam="2">  1       -3 0.33008790E+00 0.18448250E+04</pdfrwt>
<totfact> 0.16697632E-01</totfact>
</mgrwt>
</event>
<event>
 6    1  0.9562506E-007  0.2862691E+04  0.7818608E-02  0.8284065E-01
         -2   -1    0    0    0  501 -0.00000000000E+00  0.00000000000E+00  0.67574149235E+03  0.67574149235E+03  0.00000000000E+00 0.  1.
          2   -1    0    0  501    0  0.00000000000E+00 -0.00000000000E+00 -0.30318546698E+04  0.30318546698E+04  0.00000000000E+00 0. -1.
         23    2    1    2    0    0 -0.55340030275E+03  0.42264181427E+03 -0.27962248327E+04  0.28838387542E+04  0.11302498424E+03 0.  0.
         13    1    3    3    0    0 -0.24789107180E+03  0.26038708493E+03 -0.14187192446E+04  0.14635626780E+04  0.00000000000E+00 0.  1.
        -13    1    3    3    0    0 -0.30550923095E+03  0.16225472934E+03 -0.13775055880E+04  0.14202760761E+04  0.00000000000E+00 0. -1.
         22    1    1    2    0    0  0.55340030275E+03 -0.42264181427E+03  0.44011165516E+03  0.82375740802E+03  0.00000000000E+00 0.  1.
<mgrwt>
<rscale>  0 0.28626910E+04</rscale>
<asrwt>0</asrwt>
<pdfrwt beam="1">  1        2 0.46643918E+00 0.28626910E+04</pdfrwt>
<pdfrwt beam="2">  1       -2 0.10396023E+00 0.28626910E+04</pdfrwt>
<totfact> 0.10830770E+00</totfact>
</mgrwt>
</event>
<event>
 6    1  0.9562506E-007  0.7551785E+03  0.7818608E-02  0.9627261E-01
         -1   -1    0    0    0  501 -0.00000000000E+00  0.00000000000E+00  0.20782162598E+03  0.20782162598E+03  0.00000000000E+00 0.  1.
          1   -1    0    0  501    0  0.00000000000E+00 -0.00000000000E+00 -0.68603851787E+03  0.68603851787E+03  0.00000000000E+00 0. -1.
         23    2    1    2    0    0 -0.11840727745E+03 -0.33916274354E+03 -0.12729166958E+03  0.39166480177E+03  0.90257951689E+02 0.  0.
         11    1    3    3    0    0 -0.35157422720E+02 -0.22554572616E+03 -0.94427761692E+02  0.24702939327E+03  0.00000000000E+00 0. -1.
        -11    1    3    3    0    0 -0.83249854725E+02 -0.11361701738E+03 -0.32863907883E+02  0.14463540850E+03  0.00000000000E+00 0.  1.
         22    1    1    2    0    0  0.11840727745E+03  0.33916274354E+03 -0.35092522231E+03  0.50219534208E+03  0.00000000000E+00 0. -1.
<mgrwt>
<rscale>  0 0.75517850E+03</rscale>
<asrwt>0</asrwt>
<pdfrwt beam="1">  1        1 0.10554439E+00 0.75517850E+03</pdfrwt>
<pdfrwt beam="2">  1       -1 0.31972558E-01 0.75517850E+03</pdfrwt>
<totfact> 0.25894129E+02</totfact>
</mgrwt>
</event>
<event>
 6    1  0.9562506E-007  0.1383672E+04  0.7818608E-02  0.8965723E-01
         -2   -1    0    0    0  501 -0.00000000000E+00  0.00000000000E+00  0.35223036642E+03  0.35223036642E+03  0.00000000000E+00 0.  1.
          2   -1    0    0  501    0  0.00000000000E+00 -0.00000000000E+00 -0.13588752328E+04  0.13588752328E+04  0.00000000000E+00 0. -1.
         23    2    1    2    0    0 -0.56868828663E+02 -0.36710560690E+03 -0.12228382828E+04  0.12812914724E+04  0.91508366091E+02 0.  0.
         13    1    3    3    0    0 -0.14568535260E+00  0.39205882440E+01 -0.43255128360E+02  0.43432687757E+02  0.00000000000E+00 0.  1.
        -13    1    3    3    0    0 -0.56723143311E+02 -0.37102619515E+03 -0.11795831544E+04  0.12378587846E+04  0.00000000000E+00 0. -1.
         22    1    1    2    0    0  0.56868828663E+02  0.36710560690E+03  0.21619341643E+03  0.42981412680E+03  0.00000000000E+00 0.  1.
<mgrwt>
<rscale>  0 0.13836721E+04</rscale>
<asrwt>0</asrwt>
<pdfrwt beam="1">  1        2 0.20905773E+00 0.13836721E+04</pdfrwt>
<pdfrwt beam="2">  1       -2 0.54189287E-01 0.13836721E+04</pdfrwt>
<totfact> 0.47735635E+01</totfact>
</mgrwt>
</event>
<event>
 6    1  0.9562506E-007  0.1755506E+04  0.7818608E-02  0.8730326E-01
          2   -1    0    0  501    0  0.00000000000E+00  0.00000000000E+00  0.10576771359E+04  0.10576771359E+04  0.00000000000E+00 0. -1.
         -2   -1    0    0    0  501 -0.00000000000E+00 -0.00000000000E+00 -0.72843598845E+03  0.72843598845E+03  0.00000000000E+00 0.  1.
         23    2    1    2    0    0 -0.17345051490E+03 -0.64366865560E+03  0.74250028391E+03  0.10017805845E+04  0.88674959948E+02 0.  0.
         11    1    3    3    0    0 -0.12029963531E+03 -0.28924396400E+03  0.32125811270E+03  0.44871020486E+03  0.00000000000E+00 0. -1.
        -11    1    3    3    0    0 -0.53150879593E+02 -0.35442469159E+03  0.42124217121E+03  0.55307037963E+03  0.00000000000E+00 0.  1.
         22    1    1    2    0    0  0.17345051490E+03  0.64366865560E+03 -0.41325913643E+03  0.78433253991E+03  0.00000000000E+00 0.  1.
<mgrwt>
<rscale>  0 0.17555057E+04</rscale>
<asrwt>0</asrwt>
<pdfrwt beam="1">  1        2 0.16271956E+00 0.17555057E+04</pdfrwt>
<pdfrwt beam="2">  1       -2 0.11206708E+00 0.17555057E+04</pdfrwt>
<totfact> 0.13774842E+01</totfact>
</mgrwt>
</event>
<event>
 6    1  0.9562506E-007  0.2571266E+04  0.7818608E-02  0.8378028E-01
          2   -1    0    0  501    0  0.00000000000E+00  0.00000000000E+00  0.11886942863E+04  0.11886942863E+04  0.00000000000E+00 0. -1.
         -2   -1    0    0    0  501 -0.00000000000E+00 -0.00000000000E+00 -0.13904766882E+04  0.13904766882E+04  0.00000000000E+00 0.  1.
         23    2    1    2    0    0 -0.78179846436E+03 -0.32359961418E+03 -0.10697097197E+04  0.13670557249E+04  0.92935039294E+02 0.  0.
         11    1    3    3    0    0 -0.57438905859E+03 -0.25298931116E+03 -0.72878076017E+03  0.96179404166E+03  0.00000000000E+00 0.  1.
        -11    1    3    3    0    0 -0.20740940577E+03 -0.70610303019E+02 -0.34092895952E+03  0.40526168328E+03  0.00000000000E+00 0. -1.
         22    1    1    2    0    0  0.78179846436E+03  0.32359961418E+03  0.86792731783E+03  0.12121152496E+04  0.00000000000E+00 0. -1.
<mgrwt>
<rscale>  0 0.25712656E+04</rscale>
<asrwt>0</asrwt>
<pdfrwt beam="1">  1        2 0.18287604E+00 0.25712656E+04</pdfrwt>
<pdfrwt beam="2">  1       -2 0.21391949E+00 0.25712656E+04</pdfrwt>
<totfact> 0.18431937E+00</totfact>
</mgrwt>
</event>
<event>
 6    1  0.9562506E-007  0.8758888E+03  0.7818608E-02  0.9456234E-01
          1   -1    0    0  501    0  0.00000000000E+00  0.00000000000E+00  0.18626457731E+04  0.18626457731E+04  0.00000000000E+00 0. -1.
         -1   -1    0    0    0  501 -0.00000000000E+00 -0.00000000000E+00 -0.10296927799E+03  0.10296927799E+03  0.00000000000E+00 0.  1.
         23    2    1    2    0    0 -0.13145207316E+03  0.35316345710E+03  0.13707731023E+04  0.14240894987E+04  0.83713363921E+02 0.  0.
         11    1    3    3    0    0 -0.11210566724E+03  0.33376953295E+03  0.11815892237E+04  0.12329326321E+04  0.00000000000E+00 0.  1.
        -11    1    3    3    0    0 -0.19346405913E+02  0.19393924149E+02  0.18918387863E+03  0.19115686660E+03  0.00000000000E+00 0. -1.
         22    1    1    2    0    0  0.13145207316E+03 -0.35316345710E+03  0.38890339281E+03  0.54152555240E+03  0.00000000000E+00 0.  1.
<mgrwt>
<rscale>  0 0.87588878E+03</rscale>
<asrwt>0</asrwt>
<pdfrwt beam="1">  1        1 0.28656086E+00 0.87588878E+03</pdfrwt>
<pdfrwt beam="2">  1       -1 0.15841429E-01 0.87588878E+03</pdfrwt>
<totfact> 0.11288996E+02</totfact>
</mgrwt>
</event>
<event>
 6    1  0.9562506E-007  0.3795817E+04  0.7818608E-02  0.8047053E-01
          1   -1    0    0  501    0  0.00000000000E+00  0.00000000000E+00  0.25981678386E+04  0.25981678386E+04  0.00000000000E+00 0. -1.
         -1   -1    0    0    0  501 -0.00000000000E+00 -0.00000000000E+00 -0.13863830975E+04  0.13863830975E+04  0.00000000000E+00 0.  1.
         23    2    1    2    0    0 -0.13885292599E+04  0.12911541311E+04  0.55393425836E+03  0.19775980833E+04  0.94649461555E+02 0.  0.
         13    1    3    3    0    0 -0.77470183484E+03  0.70331797658E+03  0.35286789262E+03  0.11042349654E+04  0.00000000000E+00 0. -1.
        -13    1    3    3    0    0 -0.61382742504E+03  0.58783615455E+03  0.20106636574E+03  0.87336311793E+03  0.00000000000E+00 0.  1.
         22    1    1    2    0    0  0.13885292599E+04 -0.12911541311E+04  0.65785048267E+03  0.20069528528E+04  0.00000000000E+00 0.  1.
<mgrwt>
<rscale>  0 0.37958166E+04</rscale>
<asrwt>0</asrwt>
<pdfrwt beam="1">  1        1 0.39971813E+00 0.37958166E+04</pdfrwt>
<pdfrwt beam="2">  1       -1 0.21328971E+00 0.37958166E+04</pdfrwt>
<totfact> 0.11247472E-01</totfact>
</mgrwt>
</event>
<event>
 6    1  0.9562506E-007  0.5058268E+03  0.7818608E-02  0.1012269E+00
         -2   -1    0    0    0  501 -0.00000000000E+00  0.00000000000E+00  0.79783676852E+02  0.79783676852E+02  0.00000000000E+00 0.  1.
          2   -1    0    0  501    0  0.00000000000E+00 -0.00000000000E+00 -0.80173261481E+03  0.80173261481E+03  0.00000000000E+00 0. -1.
         23    2    1    2    0    0 -0.13768653223E+03  0.20060245197E+03 -0.41721761099E+03  0.49156744049E+03  0.91482723746E+02 0.  0.
         11    1    3    3    0    0 -0.49221438727E+02  0.13085415437E+03 -0.17155742840E+03  0.22130863288E+03  0.00000000000E+00 0.  1.
        -11    1    3    3    0    0 -0.88465093499E+02  0.69748297593E+02 -0.24566018259E+03  0.27025880762E+03  0.00000000000E+00 0. -1.
         22    1    1    2    0    0  0.13768653223E+03 -0.20060245197E+03 -0.30473132697E+03  0.38994885117E+03  0.00000000000E+00 0.  1.
<mgrwt>
<rscale>  0 0.50582675E+03</rscale>
<asrwt>0</asrwt>
<pdfrwt beam="1">  1        2 0.12334348E+00 0.50582675E+03</pdfrwt>
<pdfrwt beam="2">  1       -2 0.12274411E-01 0.50582675E+03</pdfrwt>
<totfact> 0.16883733E+03</totfact>
</mgrwt>
</event>
<event>
 6    1  0.9562506E-007  0.3440949E+04  0.7818608E-02  0.8127929E-01
          2   -1    0    0  501    0  0.00000000000E+00  0.00000000000E+00  0.36494947541E+04  0.36494947541E+04  0.00000000000E+00 0. -1.
         -2   -1    0    0    0  501 -0.00000000000E+00 -0.00000000000E+00 -0.81108007072E+03  0.81108007072E+03  0.00000000000E+00 0.  1.
         23    2    1    2    0    0  0.35441662790E+03 -0.15785055380E+04  0.21743871118E+04  0.27117971101E+04  0.92700458376E+02 0.  0.
         13    1    3    3    0    0  0.27232344386E+03 -0.10348193899E+04  0.14024183869E+04  0.17640262355E+04  0.00000000000E+00 0. -1.
        -13    1    3    3    0    0  0.82093184035E+02 -0.54368614812E+03  0.77196872496E+03  0.94777087465E+03  0.00000000000E+00 0.  1.
         22    1    1    2    0    0 -0.35441662790E+03  0.15785055380E+04  0.66402757154E+03  0.17487777147E+04  0.00000000000E+00 0.  1.
<mgrwt>
<rscale>  0 0.34409490E+04</rscale>
<asrwt>0</asrwt>
<pdfrwt beam="1">  1        2 0.56146072E+00 0.34409490E+04</pdfrwt>
<pdfrwt beam="2">  1       -2 0.12478155E+00 0.34409490E+04</pdfrwt>
<totfact> 0.25232248E-01</totfact>
</mgrwt>
</event>
<event>
 6    1  0.9562506E-007  0.2063685E+04  0.7818608E-02  0.8577412E-01
          1   -1    0    0  501    0  0.00000000000E+00  0.00000000000E+00  0.24899389400E+04  0.24899389400E+04  0.00000000000E+00 0. -1.
         -1   -1    0    0    0  501 -0.00000000000E+00 -0.00000000000E+00 -0.42760022250E+03  0.42760022250E+03  0.00000000000E+00 0.  1.
         23    2    1    2    0    0 -0.36477589119E+03 -0.77605363815E+03  0.18390500477E+04  0.20314361605E+04  0.96473293387E+02 0.  0.
         11    1    3    3    0    0 -0.28582691110E+03 -0.63661274631E+03  0.15732395297E+04  0.17210622969E+04  0.00000000000E+00 0. -1.
        -11    1    3    3    0    0 -0.78948980083E+02 -0.13944089184E+03  0.26581051794E+03  0.31037386362E+03  0.00000000000E+00 0.  1.
         22    1    1    2    0    0  0.36477589119E+03  0.77605363815E+03  0.22328866986E+03  0.88610300201E+03  0.00000000000E+00 0.  1.
<mgrwt>
<rscale>  0 0.20636845E+04</rscale>
<asrwt>0</asrwt>
<pdfrwt beam="1">  1        1 0.38306752E+00 0.20636845E+04</pdfrwt>
<pdfrwt beam="2">  1       -1 0.65784651E-01 0.20636845E+04</pdfrwt>
<totfact> 0.29756855E+00</totfact>
</mgrwt>
</event>
<event>
 6    1  0.9562506E-007  0.1553263E+04  0.7818608E-02  0.8849786E-01
         -2   -1    0    0    0  501 -0.00000000000E+00  0.00000000000E+00  0.11929194245E+04  0.11929194245E+04  0.00000000000E+00 0.  1.
          2   -1    0    0  501    0  0.00000000000E+00 -0.00000000000E+00 -0.50561383974E+03  0.50561383974E+03  0.00000000000E+00 0. -1.
         23    2    1    2    0    0  0.19052230164E+03  0.59466986431E+03  0.84450438147E+03  0.10546058951E+04  0.95262525712E+02 0.  0.
         13    1    3    3    0    0  0.12572982605E+03  0.49221265776E+03  0.64330848120E+03  0.81971159050E+03  0.00000000000E+00 0.  1.
        -13    1    3    3    0    0  0.64792475595E+02  0.10245720655E+03  0.20119590027E+03  0.23489430464E+03  0.00000000000E+00 0. -1.
         22    1    1    2    0    0 -0.19052230164E+03 -0.59466986431E+03 -0.15719879674E+03  0.64392736907E+03  0.00000000000E+00 0. -1.
<mgrwt>
<rscale>  0 0.15532631E+04</rscale>
<asrwt>0</asrwt>
<pdfrwt beam="1">  1        2 0.77786745E-01 0.15532631E+04</pdfrwt>
<pdfrwt beam="2">  1       -2 0.18352606E+00 0.15532631E+04</pdfrwt>
<totfact> 0.10019752E+01</totfact>
</mgrwt>
</event>
<event>
 6    1  0.9562506E-007  0.4432634E+04  0.7818608E-02  0.7922538E-01
         -2   -1    0    0    0  501 -0.00000000000E+00  0.00000000000E+00  0.11486137471E+04  0.11486137471E+04  0.00000000000E+00 0.  1.
          2   -1    0    0  501    0  0.00000000000E+00 -0.00000000000E+00 -0.42765127103E+04  0.42765127103E+04  0.00000000000E+00 0. -1.
         23    2    1    2    0    0 -0.75856447856E+03 -0.41921662962E+03  0.93081035924E+03  0.12749115214E+04  0.88480572636E+02 0.  0.
         11    1    3    3    0    0 -0.22015385944E+03 -0.85688398311E+02  0.28817474965E+03  0.37263240568E+03  0.00000000000E+00 0. -1.
        -11    1    3    3    0    0 -0.53841061912E+03 -0.33352823130E+03  0.64263560959E+03  0.90227911567E+03  0.00000000000E+00 0.  1.
         22    1    1    2    0    0  0.75856447856E+03  0.41921662962E+03 -0.40587093225E+04  0.41502149360E+04  0.00000000000E+00 0. -1.
<mgrwt>
<rscale>  0 0.44326341E+04</rscale>
<asrwt>0</asrwt>
<pdfrwt beam="1">  1        2 0.65792505E+00 0.44326341E+04</pdfrwt>
<pdfrwt beam="2">  1       -2 0.17670980E+00 0.44326341E+04</pdfrwt>
<totfact> 0.28812994E-02</totfact>
</mgrwt>
</event>
<event>
 6    1  0.1122597E-006  0.3398331E+04  0.7818608E-02  0.8138316E-01
          2   -1    0    0  501    0  0.00000000000E+00  0.00000000000E+00  0.35149006026E+04  0.35149006026E+04  0.00000000000E+00 0. -1.
         -2   -1    0    0    0  501 -0.00000000000E+00 -0.00000000000E+00 -0.82140706494E+03  0.82140706494E+03  0.00000000000E+00 0.  1.
         23    2    1    2    0    0 -0.80748910984E+03  0.11198032498E+04  0.86843774050E+02  0.13866261642E+04  0.95876470278E+02 0.  0.
         11    1    3    3    0    0 -0.44650499155E+03  0.61542478381E+03  0.72351531841E-01  0.76033833077E+03  0.00000000000E+00 0. -1.
        -11    1    3    3    0    0 -0.36098411829E+03  0.50437846597E+03  0.86771422518E+02  0.62628783347E+03  0.00000000000E+00 0.  1.
         22    1    1    2    0    0  0.80748910984E+03 -0.11198032498E+04  0.26066497636E+04  0.29496815033E+04  0.00000000000E+00 0. -1.
<mgrwt>
<rscale>  0 0.33983315E+04</rscale>
<asrwt>0</asrwt>
<pdfrwt beam="1">  1        2 0.54075393E+00 0.33983315E+04</pdfrwt>
<pdfrwt beam="2">  1       -2 0.12637032E+00 0.33983315E+04</pdfrwt>
<totfact> 0.30628490E-01</totfact>
</mgrwt>
</event>
<event>
 6    1  0.9562506E-007  0.9989755E+03  0.7818608E-02  0.9309669E-01
          1   -1    0    0  501    0  0.00000000000E+00  0.00000000000E+00  0.95532739000E+03  0.95532739000E+03  0.00000000000E+00 0. -1.
         -1   -1    0    0    0  501 -0.00000000000E+00 -0.00000000000E+00 -0.26115444154E+03  0.26115444154E+03  0.00000000000E+00 0.  1.
         23    2    1    2    0    0  0.47564775806E+03  0.58870617701E+01  0.51872586124E+03  0.70947381617E+03  0.89449032809E+02 0.  0.
         13    1    3    3    0    0  0.41830050098E+03 -0.12691263552E+02  0.41419810105E+03  0.58880934453E+03  0.00000000000E+00 0.  1.
        -13    1    3    3    0    0  0.57347257074E+02  0.18578325322E+02  0.10452776019E+03  0.12066447164E+03  0.00000000000E+00 0. -1.
         22    1    1    2    0    0 -0.47564775806E+03 -0.58870617701E+01  0.17544708722E+03  0.50700801537E+03  0.00000000000E+00 0.  1.
<mgrwt>
<rscale>  0 0.99897546E+03</rscale>
<asrwt>0</asrwt>
<pdfrwt beam="1">  1        1 0.14697344E+00 0.99897546E+03</pdfrwt>
<pdfrwt beam="2">  1       -1 0.40177607E-01 0.99897546E+03</pdfrwt>
<totfact> 0.99332479E+01</totfact>
</mgrwt>
</event>
<event>
 6    1  0.9562506E-007  0.2419738E+04  0.7818608E-02  0.8432151E-01
         -1   -1    0    0    0  501 -0.00000000000E+00  0.00000000000E+00  0.24018889760E+04  0.24018889760E+04  0.00000000000E+00 0.  1.
          1   -1    0    0  501    0  0.00000000000E+00 -0.00000000000E+00 -0.60942999278E+03  0.60942999278E+03  0.00000000000E+00 0. -1.
         23    2    1    2    0    0 -0.48202863633E+03  0.82694901654E+02  0.22723553129E+04  0.23261251712E+04  0.89830901670E+02 0.  0.
         11    1    3    3    0    0 -0.16701607883E+03 -0.12668538497E+02  0.82246815063E+03  0.83935017797E+03  0.00000000000E+00 0.  1.
        -11    1    3    3    0    0 -0.31501255750E+03  0.95363440151E+02  0.14498871622E+04  0.14867749932E+04  0.00000000000E+00 0. -1.
         22    1    1    2    0    0  0.48202863633E+03 -0.82694901654E+02 -0.47989632969E+03  0.68519379759E+03  0.00000000000E+00 0. -1.
<mgrwt>
<rscale>  0 0.24197382E+04</rscale>
<asrwt>0</asrwt>
<pdfrwt beam="1">  1        1 0.93758461E-01 0.24197382E+04</pdfrwt>
<pdfrwt beam="2">  1       -1 0.36952138E+00 0.24197382E+04</pdfrwt>
<totfact> 0.34493530E-01</totfact>
</mgrwt>
</event>
<event>
 6    1  0.9562506E-007  0.4323186E+04  0.7818608E-02  0.7942345E-01
          2   -1    0    0  501    0  0.00000000000E+00  0.00000000000E+00  0.24288514007E+04  0.24288514007E+04  0.00000000000E+00 0. -1.
         -2   -1    0    0    0  501 -0.00000000000E+00 -0.00000000000E+00 -0.19237427437E+04  0.19237427437E+04  0.00000000000E+00 0.  1.
         23    2    1    2    0    0 -0.42455747450E+03 -0.14807934950E+04  0.17780158381E+04  0.23542720693E+04  0.90874813016E+02 0.  0.
         13    1    3    3    0    0 -0.76388216958E+02 -0.40107645566E+03  0.44767255379E+03  0.60589454395E+03  0.00000000000E+00 0. -1.
        -13    1    3    3    0    0 -0.34816925755E+03 -0.10797170393E+04  0.13303432844E+04  0.17483775254E+04  0.00000000000E+00 0.  1.
         22    1    1    2    0    0  0.42455747450E+03  0.14807934950E+04 -0.12729071811E+04  0.19983220751E+04  0.00000000000E+00 0.  1.
<mgrwt>
<rscale>  0 0.43231864E+04</rscale>
<asrwt>0</asrwt>
<pdfrwt beam="1">  1        2 0.37366945E+00 0.43231864E+04</pdfrwt>
<pdfrwt beam="2">  1       -2 0.29596042E+00 0.43231864E+04</pdfrwt>
<totfact> 0.98957995E-02</totfact>
</mgrwt>
</event>
<event>
 6    1  0.9562506E-007  0.1099186E+04  0.7818608E-02  0.9205986E-01
         -1   -1    0    0    0  501 -0.00000000000E+00  0.00000000000E+00  0.34180349735E+03  0.34180349735E+03  0.00000000000E+00 0.  1.
          1   -1    0    0  501    0  0.00000000000E+00 -0.00000000000E+00 -0.88370149357E+03  0.88370149357E+03  0.00000000000E+00 0. -1.
         23    2    1    2    0    0 -0.91661663736E+02 -0.35941805905E+03 -0.71914293676E+03  0.81441014698E+03  0.92272001414E+02 0.  0.
         13    1    3    3    0    0 -0.10214242182E+03 -0.23741631225E+03 -0.45547920526E+03  0.52369923246E+03  0.00000000000E+00 0. -1.
        -13    1    3    3    0    0  0.10480758083E+02 -0.12200174680E+03 -0.26366373150E+03  0.29071091452E+03  0.00000000000E+00 0.  1.
         22    1    1    2    0    0  0.91661663736E+02  0.35941805905E+03  0.17724494054E+03  0.41109484395E+03  0.00000000000E+00 0.  1.
<mgrwt>
<rscale>  0 0.10991856E+04</rscale>
<asrwt>0</asrwt>
<pdfrwt beam="1">  1        1 0.13595408E+00 0.10991856E+04</pdfrwt>
<pdfrwt beam="2">  1       -1 0.52585154E-01 0.10991856E+04</pdfrwt>
<totfact> 0.68146378E+01</totfact>
</mgrwt>
</event>
<event>
 6    1  0.9562506E-007  0.3558365E+04  0.7818608E-02  0.8100096E-01
          1   -1    0    0  501    0  0.00000000000E+00  0.00000000000E+00  0.19876686070E+04  0.19876686070E+04  0.00000000000E+00 0. -1.
         -1   -1    0    0    0  501 -0.00000000000E+00 -0.00000000000E+00 -0.15925646186E+04  0.15925646186E+04  0.00000000000E+00 0.  1.
         23    2    1    2    0    0 -0.58651701340E+03 -0.10496128812E+04  0.15157407428E+04  0.19366042703E+04  0.85303534056E+02 0.  0.
         11    1    3    3    0    0 -0.16887360224E+02 -0.55129133058E+02  0.52641676921E+02  0.78074005893E+02  0.00000000000E+00 0.  1.
        -11    1    3    3    0    0 -0.56962965318E+03 -0.99448374818E+03  0.14630990659E+04  0.18585302644E+04  0.00000000000E+00 0. -1.
         22    1    1    2    0    0  0.58651701340E+03  0.10496128812E+04 -0.11206367543E+04  0.16436289553E+04  0.00000000000E+00 0.  1.
<mgrwt>
<rscale>  0 0.35583652E+04</rscale>
<asrwt>0</asrwt>
<pdfrwt beam="1">  1        1 0.30579517E+00 0.35583652E+04</pdfrwt>
<pdfrwt beam="2">  1       -1 0.24500994E+00 0.35583652E+04</pdfrwt>
<totfact> 0.18540131E-01</totfact>
</mgrwt>
</event>
<event>
 6    1  0.9562506E-007  0.2082948E+04  0.7818608E-02  0.8568792E-01
         -1   -1    0    0    0  501 -0.00000000000E+00  0.00000000000E+00  0.10597120629E+04  0.10597120629E+04  0.00000000000E+00 0.  1.
          1   -1    0    0  501    0  0.00000000000E+00 -0.00000000000E+00 -0.10235502249E+04  0.10235502249E+04  0.00000000000E+00 0. -1.
         23    2    1    2    0    0 -0.71355036185E+02 -0.76095963210E+03 -0.68645044965E+03  0.10314449932E+04  0.92268366223E+02 0.  0.
         11    1    3    3    0    0 -0.62924574315E+02 -0.41215602050E+03 -0.32103268285E+03  0.52620725076E+03  0.00000000000E+00 0. -1.
        -11    1    3    3    0    0 -0.84304618700E+01 -0.34880361159E+03 -0.36541776679E+03  0.50523774249E+03  0.00000000000E+00 0.  1.
         22    1    1    2    0    0  0.71355036185E+02  0.76095963210E+03  0.72261228768E+03  0.10518172946E+04  0.00000000000E+00 0.  1.
<mgrwt>
<rscale>  0 0.20829484E+04</rscale>
<asrwt>0</asrwt>
<pdfrwt beam="1">  1        1 0.15746926E+00 0.20829484E+04</pdfrwt>
<pdfrwt beam="2">  1       -1 0.16303263E+00 0.20829484E+04</pdfrwt>
<totfact> 0.37039582E+00</totfact>
</mgrwt>
</event>
<event>
 6    1  0.9562506E-007  0.3313827E+04  0.7818608E-02  0.8159386E-01
         -2   -1    0    0    0  501 -0.00000000000E+00  0.00000000000E+00  0.12469416031E+04  0.12469416031E+04  0.00000000000E+00 0.  1.
          2   -1    0    0  501    0  0.00000000000E+00 -0.00000000000E+00 -0.22016772595E+04  0.22016772595E+04  0.00000000000E+00 0. -1.
         23    2    1    2    0    0  0.80805148889E+03 -0.10297528928E+04 -0.15328527069E+04  0.20176899500E+04  0.89983799802E+02 0.  0.
         13    1    3    3    0    0  0.24455421091E+03 -0.34827712183E+03 -0.55362161934E+03  0.69828404899E+03  0.00000000000E+00 0.  1.
        -13    1    3    3    0    0  0.56349727798E+03 -0.68147577101E+03 -0.97923108754E+03  0.13194059010E+04  0.00000000000E+00 0. -1.
         22    1    1    2    0    0 -0.80805148889E+03  0.10297528928E+04  0.57811705041E+03  0.14309289126E+04  0.00000000000E+00 0.  1.
<mgrwt>
<rscale>  0 0.33138274E+04</rscale>
<asrwt>0</asrwt>
<pdfrwt beam="1">  1        2 0.33871957E+00 0.33138274E+04</pdfrwt>
<pdfrwt beam="2">  1       -2 0.19183717E+00 0.33138274E+04</pdfrwt>
<totfact> 0.64768378E-01</totfact>
</mgrwt>
</event>
<event>
 6    1  0.9562506E-007  0.1049049E+04  0.7818608E-02  0.9256327E-01
         -1   -1    0    0    0  501 -0.00000000000E+00  0.00000000000E+00  0.20250637798E+03  0.20250637798E+03  0.00000000000E+00 0.  1.
          1   -1    0    0  501    0  0.00000000000E+00 -0.00000000000E+00 -0.13586027339E+04  0.13586027339E+04  0.00000000000E+00 0. -1.
         23    2    1    2    0    0 -0.14065925619E+03 -0.20253326881E+03 -0.12646803514E+04  0.12916740819E+04  0.90558220189E+02 0.  0.
         13    1    3    3    0    0 -0.12679525597E+03 -0.20383429848E+03 -0.10746819155E+04  0.11011660536E+04  0.00000000000E+00 0.  1.
        -13    1    3    3    0    0 -0.13864000215E+02  0.13010296643E+01 -0.18999843587E+03  0.19050802821E+03  0.00000000000E+00 0. -1.
         22    1    1    2    0    0  0.14065925619E+03  0.20253326881E+03  0.10858399547E+03  0.26943503002E+03  0.00000000000E+00 0.  1.
<mgrwt>
<rscale>  0 0.10490486E+04</rscale>
<asrwt>0</asrwt>
<pdfrwt beam="1">  1        1 0.20901581E+00 0.10490486E+04</pdfrwt>
<pdfrwt beam="2">  1       -1 0.31154827E-01 0.10490486E+04</pdfrwt>
<totfact> 0.78370669E+01</totfact>
</mgrwt>
</event>
<event>
 6    1  0.9562506E-007  0.1169115E+04  0.7818608E-02  0.9140328E-01
          3   -1    0    0  501    0  0.00000000000E+00  0.00000000000E+00  0.53235701016E+03  0.53235701016E+03  0.00000000000E+00 0. -1.
         -3   -1    0    0    0  501 -0.00000000000E+00 -0.00000000000E+00 -0.64187613211E+03  0.64187613211E+03  0.00000000000E+00 0.  1.
         23    2    1    2    0    0  0.19788876341E+03  0.22585387324E+02  0.49268139536E+03  0.53994966823E+03  0.95606613157E+02 0.  0.
         13    1    3    3    0    0  0.14284468849E+03  0.59381711927E+02  0.34872631464E+03  0.38149814582E+03  0.00000000000E+00 0. -1.
        -13    1    3    3    0    0  0.55044074921E+02 -0.36796324603E+02  0.14395508072E+03  0.15845152241E+03  0.00000000000E+00 0.  1.
         22    1    1    2    0    0 -0.19788876341E+03 -0.22585387324E+02 -0.60220051731E+03  0.63428347405E+03  0.00000000000E+00 0.  1.
<mgrwt>
<rscale>  0 0.11691146E+04</rscale>
<asrwt>0</asrwt>
<pdfrwt beam="1">  1        3 0.81901079E-01 0.11691146E+04</pdfrwt>
<pdfrwt beam="2">  1       -3 0.98750174E-01 0.11691146E+04</pdfrwt>
<totfact> 0.32201180E+00</totfact>
</mgrwt>
</event>
<event>
 6    1  0.9562506E-007  0.3628830E+04  0.7818608E-02  0.8083920E-01
         -2   -1    0    0    0  501 -0.00000000000E+00  0.00000000000E+00  0.19146365577E+04  0.19146365577E+04  0.00000000000E+00 0.  1.
          2   -1    0    0  501    0  0.00000000000E+00 -0.00000000000E+00 -0.17194391049E+04  0.17194391049E+04  0.00000000000E+00 0. -1.
         23    2    1    2    0    0 -0.40847615200E+03 -0.12305533399E+04  0.13671313388E+04  0.18863504776E+04  0.90309123732E+02 0.  0.
         13    1    3    3    0    0 -0.24047971186E+01 -0.33132159984E+02  0.54258035830E+02  0.63619631612E+02  0.00000000000E+00 0.  1.
        -13    1    3    3    0    0 -0.40607135488E+03 -0.11974211799E+04  0.13128733029E+04  0.18227308460E+04  0.00000000000E+00 0. -1.
         22    1    1    2    0    0  0.40847615200E+03  0.12305533399E+04 -0.11719338860E+04  0.17477251850E+04  0.00000000000E+00 0. -1.
<mgrwt>
<rscale>  0 0.36288295E+04</rscale>
<asrwt>0</asrwt>
<pdfrwt beam="1">  1        2 0.26452909E+00 0.36288295E+04</pdfrwt>
<pdfrwt beam="2">  1       -2 0.29455947E+00 0.36288295E+04</pdfrwt>
<totfact> 0.26689401E-01</totfact>
</mgrwt>
</event>
<event>
 6    1  0.9562506E-007  0.1064560E+04  0.7818608E-02  0.9240439E-01
         -1   -1    0    0    0  501 -0.00000000000E+00  0.00000000000E+00  0.71814868288E+03  0.71814868288E+03  0.00000000000E+00 0.  1.
          1   -1    0    0  501    0  0.00000000000E+00 -0.00000000000E+00 -0.39451749341E+03  0.39451749341E+03  0.00000000000E+00 0. -1.
         23    2    1    2    0    0 -0.28239681367E+03 -0.24478555133E+03  0.55383427318E+03  0.67373407875E+03  0.86702250297E+02 0.  0.
         13    1    3    3    0    0 -0.73813928586E+02 -0.11196353726E+03  0.23058801516E+03  0.26674925017E+03  0.00000000000E+00 0.  1.
        -13    1    3    3    0    0 -0.20858288508E+03 -0.13282201407E+03  0.32324625802E+03  0.40698482858E+03  0.00000000000E+00 0. -1.
         22    1    1    2    0    0  0.28239681367E+03  0.24478555133E+03 -0.23020308370E+03  0.43893209755E+03  0.00000000000E+00 0. -1.
<mgrwt>
<rscale>  0 0.10645604E+04</rscale>
<asrwt>0</asrwt>
<pdfrwt beam="1">  1        1 0.60694999E-01 0.10645604E+04</pdfrwt>
<pdfrwt beam="2">  1       -1 0.11048441E+00 0.10645604E+04</pdfrwt>
<totfact> 0.46120319E+01</totfact>
</mgrwt>
</event>
<event>
 6    1  0.9562506E-007  0.9653542E+03  0.7818608E-02  0.9347382E-01
         -2   -1    0    0    0  501 -0.00000000000E+00  0.00000000000E+00  0.46264639464E+03  0.46264639464E+03  0.00000000000E+00 0.  1.
          2   -1    0    0  501    0  0.00000000000E+00 -0.00000000000E+00 -0.50357506602E+03  0.50357506602E+03  0.00000000000E+00 0. -1.
         23    2    1    2    0    0 -0.20633952641E+03 -0.81643207100E+02 -0.44570004603E+03  0.50461396598E+03  0.82128619884E+02 0.  0.
         13    1    3    3    0    0 -0.20216100794E+03 -0.68472826858E+02 -0.36571547498E+03  0.42344469508E+03  0.00000000000E+00 0.  1.
        -13    1    3    3    0    0 -0.41785184664E+01 -0.13170380242E+02 -0.79984571048E+02  0.81169270897E+02  0.00000000000E+00 0. -1.
         22    1    1    2    0    0  0.20633952641E+03  0.81643207100E+02  0.40477137465E+03  0.46160749469E+03  0.00000000000E+00 0.  1.
<mgrwt>
<rscale>  0 0.96535421E+03</rscale>
<asrwt>0</asrwt>
<pdfrwt beam="1">  1        2 0.77473087E-01 0.96535421E+03</pdfrwt>
<pdfrwt beam="2">  1       -2 0.71176368E-01 0.96535421E+03</pdfrwt>
<totfact> 0.10956122E+02</totfact>
</mgrwt>
</event>
<event>
 6    1  0.9562506E-007  0.1925584E+04  0.7818608E-02  0.8642225E-01
         -1   -1    0    0    0  501 -0.00000000000E+00  0.00000000000E+00  0.83464061815E+03  0.83464061815E+03  0.00000000000E+00 0.  1.
          1   -1    0    0  501    0  0.00000000000E+00 -0.00000000000E+00 -0.11106200397E+04  0.11106200397E+04  0.00000000000E+00 0. -1.
         23    2    1    2    0    0 -0.31119066837E+03  0.78386740636E+03 -0.60263193330E+03  0.10408328795E+04  0.94234246104E+02 0.  0.
         13    1    3    3    0    0 -0.24991548414E+03  0.59392149105E+03 -0.41187699084E+03  0.76475037910E+03  0.00000000000E+00 0. -1.
        -13    1    3    3    0    0 -0.61275184238E+02  0.18994591530E+03 -0.19075494246E+03  0.27608250038E+03  0.00000000000E+00 0.  1.
         22    1    1    2    0    0  0.31119066837E+03 -0.78386740636E+03  0.32665251177E+03  0.90442777836E+03  0.00000000000E+00 0.  1.
<mgrwt>
<rscale>  0 0.19255842E+04</rscale>
<asrwt>0</asrwt>
<pdfrwt beam="1">  1        1 0.17086462E+00 0.19255842E+04</pdfrwt>
<pdfrwt beam="2">  1       -1 0.12840625E+00 0.19255842E+04</pdfrwt>
<totfact> 0.60804352E+00</totfact>
</mgrwt>
</event>
<event>
 6    1  0.9562506E-007  0.5102079E+04  0.7818608E-02  0.7812951E-01
          1   -1    0    0  501    0  0.00000000000E+00  0.00000000000E+00  0.20555439646E+04  0.20555439646E+04  0.00000000000E+00 0. -1.
         -1   -1    0    0    0  501 -0.00000000000E+00 -0.00000000000E+00 -0.31659758705E+04  0.31659758705E+04  0.00000000000E+00 0.  1.
         23    2    1    2    0    0  0.10052187004E+04 -0.43566098567E+03  0.18013002867E+04  0.21104991840E+04  0.96223452435E+02 0.  0.
         13    1    3    3    0    0  0.78083287439E+03 -0.34385718419E+03  0.14751069839E+04  0.17040769803E+04  0.00000000000E+00 0. -1.
        -13    1    3    3    0    0  0.22438582600E+03 -0.91803801476E+02  0.32619330281E+03  0.40642220371E+03  0.00000000000E+00 0.  1.
         22    1    1    2    0    0 -0.10052187004E+04  0.43566098567E+03 -0.29117321926E+04  0.31110206511E+04  0.00000000000E+00 0.  1.
<mgrwt>
<rscale>  0 0.51020790E+04</rscale>
<asrwt>0</asrwt>
<pdfrwt beam="1">  1        1 0.31623753E+00 0.51020790E+04</pdfrwt>
<pdfrwt beam="2">  1       -1 0.48707321E+00 0.51020790E+04</pdfrwt>
<totfact> 0.35628416E-03</totfact>
</mgrwt>
</event>
<event>
 6    1  0.9562506E-007  0.9209204E+03  0.7818608E-02  0.9399801E-01
         -2   -1    0    0    0  501 -0.00000000000E+00  0.00000000000E+00  0.99227160197E+02  0.99227160197E+02  0.00000000000E+00 0.  1.
          2   -1    0    0  501    0  0.00000000000E+00 -0.00000000000E+00 -0.21367496093E+04  0.21367496093E+04  0.00000000000E+00 0. -1.
         23    2    1    2    0    0 -0.41008559294E+03 -0.76678984545E+02 -0.14731839058E+04  0.15341734839E+04  0.96786353318E+02 0.  0.
         13    1    3    3    0    0 -0.40835514631E+03 -0.69802381306E+02 -0.13831170929E+04  0.14438279643E+04  0.00000000000E+00 0. -1.
        -13    1    3    3    0    0 -0.17304466286E+01 -0.68766032389E+01 -0.90066812905E+02  0.90345519560E+02  0.00000000000E+00 0.  1.
         22    1    1    2    0    0  0.41008559294E+03  0.76678984545E+02 -0.56433854329E+03  0.70180328558E+03  0.00000000000E+00 0.  1.
<mgrwt>
<rscale>  0 0.92092040E+03</rscale>
<asrwt>0</asrwt>
<pdfrwt beam="1">  1        2 0.32873069E+00 0.92092040E+03</pdfrwt>
<pdfrwt beam="2">  1       -2 0.15265718E-01 0.92092040E+03</pdfrwt>
<totfact> 0.19300374E+02</totfact>
</mgrwt>
</event>
<event>
 6    1  0.9562506E-007  0.8907789E+03  0.7818608E-02  0.9437182E-01
         -2   -1    0    0    0  501 -0.00000000000E+00  0.00000000000E+00  0.31446121115E+03  0.31446121115E+03  0.00000000000E+00 0.  1.
          2   -1    0    0  501    0  0.00000000000E+00 -0.00000000000E+00 -0.63083063517E+03  0.63083063517E+03  0.00000000000E+00 0. -1.
         23    2    1    2    0    0 -0.68298947088E+02 -0.33771901602E+03 -0.45167510422E+03  0.57512093032E+03  0.89637072496E+02 0.  0.
         11    1    3    3    0    0 -0.17452173961E+02 -0.15292931254E+03 -0.27135775602E+03  0.31197273080E+03  0.00000000000E+00 0. -1.
        -11    1    3    3    0    0 -0.50846773127E+02 -0.18478970348E+03 -0.18031734820E+03  0.26314819952E+03  0.00000000000E+00 0.  1.
         22    1    1    2    0    0  0.68298947088E+02  0.33771901602E+03  0.13530568020E+03  0.37017091600E+03  0.00000000000E+00 0.  1.
<mgrwt>
<rscale>  0 0.89077891E+03</rscale>
<asrwt>0</asrwt>
<pdfrwt beam="1">  1        2 0.97050865E-01 0.89077891E+03</pdfrwt>
<pdfrwt beam="2">  1       -2 0.48378649E-01 0.89077891E+03</pdfrwt>
<totfact> 0.18948993E+02</totfact>
</mgrwt>
</event>
<event>
 6    1  0.9562506E-007  0.3593837E+04  0.7818608E-02  0.8091905E-01
         -1   -1    0    0    0  501 -0.00000000000E+00  0.00000000000E+00  0.13278551132E+04  0.13278551132E+04  0.00000000000E+00 0.  1.
          1   -1    0    0  501    0  0.00000000000E+00 -0.00000000000E+00 -0.24316778576E+04  0.24316778576E+04  0.00000000000E+00 0. -1.
         23    2    1    2    0    0 -0.36104631372E+03 -0.16777048987E+04 -0.11053240998E+04  0.20434180499E+04  0.93636495551E+02 0.  0.
         13    1    3    3    0    0 -0.12880717815E+03 -0.81593212501E+03 -0.51958523965E+03  0.97586133391E+03  0.00000000000E+00 0.  1.
        -13    1    3    3    0    0 -0.23223913557E+03 -0.86177277367E+03 -0.58573886015E+03  0.10675567160E+04  0.00000000000E+00 0. -1.
         22    1    1    2    0    0  0.36104631372E+03  0.16777048987E+04  0.15013553876E+01  0.17161149209E+04  0.00000000000E+00 0.  1.
<mgrwt>
<rscale>  0 0.35938369E+04</rscale>
<asrwt>0</asrwt>
<pdfrwt beam="1">  1        1 0.37410428E+00 0.35938369E+04</pdfrwt>
<pdfrwt beam="2">  1       -1 0.20428540E+00 0.35938369E+04</pdfrwt>
<totfact> 0.17195804E-01</totfact>
</mgrwt>
</event>
<event>
 6    1  0.9974229E-007  0.3102879E+04  0.7818608E-02  0.8214948E-01
          2   -1    0    0  501    0  0.00000000000E+00  0.00000000000E+00  0.18025805054E+04  0.18025805054E+04  0.00000000000E+00 0. -1.
         -2   -1    0    0    0  501 -0.00000000000E+00 -0.00000000000E+00 -0.13352884817E+04  0.13352884817E+04  0.00000000000E+00 0.  1.
         23    2    1    2    0    0 -0.10725254828E+04 -0.66686002784E+03 -0.67600609104E+03  0.14343010293E+04  0.72263404892E+02 0.  0.
         11    1    3    3    0    0 -0.79365961050E+03 -0.50244195565E+03 -0.53696637411E+03  0.10819779956E+04  0.00000000000E+00 0. -1.
        -11    1    3    3    0    0 -0.27886587226E+03 -0.16441807219E+03 -0.13903971693E+03  0.35232303368E+03  0.00000000000E+00 0.  1.
         22    1    1    2    0    0  0.10725254828E+04  0.66686002784E+03  0.11432981147E+04  0.17035679579E+04  0.00000000000E+00 0. -1.
<mgrwt>
<rscale>  0 0.31028793E+04</rscale>
<asrwt>0</asrwt>
<pdfrwt beam="1">  1        2 0.27732008E+00 0.31028793E+04</pdfrwt>
<pdfrwt beam="2">  1       -2 0.20542900E+00 0.31028793E+04</pdfrwt>
<totfact> 0.89487477E-01</totfact>
</mgrwt>
</event>
<event>
 6    1  0.9562506E-007  0.2151898E+04  0.7818608E-02  0.8538720E-01
          2   -1    0    0  501    0  0.00000000000E+00  0.00000000000E+00  0.36175106429E+04  0.36175106429E+04  0.00000000000E+00 0. -1.
         -2   -1    0    0    0  501 -0.00000000000E+00 -0.00000000000E+00 -0.32001746964E+03  0.32001746964E+03  0.00000000000E+00 0.  1.
         23    2    1    2    0    0  0.10131945303E+04 -0.32084652550E+03  0.19335722984E+04  0.22084284040E+04  0.94596686882E+02 0.  0.
         13    1    3    3    0    0  0.85223894969E+03 -0.24741743436E+03  0.16669267496E+04  0.18884309368E+04  0.00000000000E+00 0. -1.
        -13    1    3    3    0    0  0.16095558065E+03 -0.73429091142E+02  0.26664554875E+03  0.31999746724E+03  0.00000000000E+00 0.  1.
         22    1    1    2    0    0 -0.10131945303E+04  0.32084652550E+03  0.13639208749E+04  0.17290997086E+04  0.00000000000E+00 0.  1.
<mgrwt>
<rscale>  0 0.21518983E+04</rscale>
<asrwt>0</asrwt>
<pdfrwt beam="1">  1        2 0.55654007E+00 0.21518983E+04</pdfrwt>
<pdfrwt beam="2">  1       -2 0.49233459E-01 0.21518983E+04</pdfrwt>
<totfact> 0.24149166E+00</totfact>
</mgrwt>
</event>
<event>
 6    1  0.1328970E-006  0.3656708E+04  0.7818608E-02  0.8077624E-01
         -1   -1    0    0    0  501 -0.00000000000E+00  0.00000000000E+00  0.18633738085E+04  0.18633738085E+04  0.00000000000E+00 0.  1.
          1   -1    0    0  501    0  0.00000000000E+00 -0.00000000000E+00 -0.17939921842E+04  0.17939921842E+04  0.00000000000E+00 0. -1.
         23    2    1    2    0    0  0.58138753593E+03  0.67078942122E+03 -0.15626842478E+04  0.17995153729E+04  0.91124115652E+02 0.  0.
         13    1    3    3    0    0  0.92487914254E+02  0.16320803359E+03 -0.33142514749E+03  0.38083264684E+03  0.00000000000E+00 0.  1.
        -13    1    3    3    0    0  0.48889962167E+03  0.50758138763E+03 -0.12312591003E+04  0.14186827261E+04  0.00000000000E+00 0. -1.
         22    1    1    2    0    0 -0.58138753593E+03 -0.67078942122E+03  0.16320658721E+04  0.18578506198E+04  0.00000000000E+00 0.  1.
<mgrwt>
<rscale>  0 0.36567078E+04</rscale>
<asrwt>0</asrwt>
<pdfrwt beam="1">  1        1 0.27599880E+00 0.36567078E+04</pdfrwt>
<pdfrwt beam="2">  1       -1 0.28667290E+00 0.36567078E+04</pdfrwt>
<totfact> 0.13342320E-01</totfact>
</mgrwt>
</event>
<event>
 6    1  0.9562506E-007  0.1429058E+04  0.7818608E-02  0.8933049E-01
         -1   -1    0    0    0  501 -0.00000000000E+00  0.00000000000E+00  0.59450082830E+03  0.59450082830E+03  0.00000000000E+00 0.  1.
          1   -1    0    0  501    0  0.00000000000E+00 -0.00000000000E+00 -0.85879104647E+03  0.85879104647E+03  0.00000000000E+00 0. -1.
         23    2    1    2    0    0  0.39061978659E+03 -0.17940015773E+03 -0.70930165123E+03  0.83458078725E+03  0.92994751131E+02 0.  0.
         11    1    3    3    0    0  0.83432994552E+02  0.11296332912E+01 -0.13923052074E+03  0.16231906406E+03  0.00000000000E+00 0. -1.
        -11    1    3    3    0    0  0.30718679204E+03 -0.18052979102E+03 -0.57007113049E+03  0.67226172319E+03  0.00000000000E+00 0.  1.
         22    1    1    2    0    0 -0.39061978659E+03  0.17940015773E+03  0.44501143306E+03  0.61871108752E+03  0.00000000000E+00 0.  1.
<mgrwt>
<rscale>  0 0.14290584E+04</rscale>
<asrwt>0</asrwt>
<pdfrwt beam="1">  1        1 0.13212170E+00 0.14290584E+04</pdfrwt>
<pdfrwt beam="2">  1       -1 0.91461667E-01 0.14290584E+04</pdfrwt>
<totfact> 0.22334009E+01</totfact>
</mgrwt>
</event>
<event>
 6    1  0.9562506E-007  0.1636549E+04  0.7818608E-02  0.8798404E-01
          2   -1    0    0  501    0  0.00000000000E+00  0.00000000000E+00  0.13287235070E+04  0.13287235070E+04  0.00000000000E+00 0. -1.
         -2   -1    0    0    0  501 -0.00000000000E+00 -0.00000000000E+00 -0.50392185316E+03  0.50392185316E+03  0.00000000000E+00 0.  1.
         23    2    1    2    0    0  0.16618136807E+03 -0.62595527121E+03 -0.14191113122E+03  0.66904325574E+03  0.89687570106E+02 0.  0.
         11    1    3    3    0    0  0.75092064260E+02 -0.35604954837E+03 -0.38167849075E+02  0.36587823618E+03  0.00000000000E+00 0. -1.
        -11    1    3    3    0    0  0.91089303814E+02 -0.26990572284E+03 -0.10374328214E+03  0.30316501956E+03  0.00000000000E+00 0.  1.
         22    1    1    2    0    0 -0.16618136807E+03  0.62595527121E+03  0.96671278509E+03  0.11636021045E+04  0.00000000000E+00 0. -1.
<mgrwt>
<rscale>  0 0.16365486E+04</rscale>
<asrwt>0</asrwt>
<pdfrwt beam="1">  1        2 0.20441900E+00 0.16365486E+04</pdfrwt>
<pdfrwt beam="2">  1       -2 0.77526440E-01 0.16365486E+04</pdfrwt>
<totfact> 0.22562241E+01</totfact>
</mgrwt>
</event>
<event>
 6    1  0.9562506E-007  0.2054173E+04  0.7818608E-02  0.8581704E-01
          1   -1    0    0  501    0  0.00000000000E+00  0.00000000000E+00  0.23191459948E+04  0.23191459948E+04  0.00000000000E+00 0. -1.
         -1   -1    0    0    0  501 -0.00000000000E+00 -0.00000000000E+00 -0.45486851400E+03  0.45486851400E+03  0.00000000000E+00 0.  1.
         23    2    1    2    0    0 -0.61870833575E+03  0.31257477994E+03 -0.85949182710E+02  0.70425920035E+03  0.89948660270E+02 0.  0.
         11    1    3    3    0    0 -0.20899409361E+03  0.15390976596E+03 -0.37075436636E+02  0.26218568845E+03  0.00000000000E+00 0. -1.
        -11    1    3    3    0    0 -0.40971424213E+03  0.15866501398E+03 -0.48873746074E+02  0.44207351190E+03  0.00000000000E+00 0.  1.
         22    1    1    2    0    0  0.61870833575E+03 -0.31257477994E+03  0.19502266636E+04  0.20697553085E+04  0.00000000000E+00 0. -1.
<mgrwt>
<rscale>  0 0.20541728E+04</rscale>
<asrwt>0</asrwt>
<pdfrwt beam="1">  1        1 0.35679169E+00 0.20541728E+04</pdfrwt>
<pdfrwt beam="2">  1       -1 0.69979772E-01 0.20541728E+04</pdfrwt>
<totfact> 0.34423990E+00</totfact>
</mgrwt>
</event>
<event>
 6    1  0.9562506E-007  0.1414788E+04  0.7818608E-02  0.8943183E-01
         -1   -1    0    0    0  501 -0.00000000000E+00  0.00000000000E+00  0.35274817006E+03  0.35274817006E+03  0.00000000000E+00 0.  1.
          1   -1    0    0  501    0  0.00000000000E+00 -0.00000000000E+00 -0.14185933637E+04  0.14185933637E+04  0.00000000000E+00 0. -1.
         23    2    1    2    0    0 -0.64119785416E+03  0.28051676318E+03 -0.43422204407E+03  0.82859440664E+03  0.90529357368E+02 0.  0.
         13    1    3    3    0    0 -0.79067604579E+02  0.38809168105E+01 -0.51138600834E+02  0.94243854465E+02  0.00000000000E+00 0.  1.
        -13    1    3    3    0    0 -0.56213024958E+03  0.27663584637E+03 -0.38308344324E+03  0.73435055217E+03  0.00000000000E+00 0. -1.
         22    1    1    2    0    0  0.64119785416E+03 -0.28051676318E+03 -0.63162314952E+03  0.94274712708E+03  0.00000000000E+00 0. -1.
<mgrwt>
<rscale>  0 0.14147879E+04</rscale>
<asrwt>0</asrwt>
<pdfrwt beam="1">  1        1 0.21824513E+00 0.14147879E+04</pdfrwt>
<pdfrwt beam="2">  1       -1 0.54268949E-01 0.14147879E+04</pdfrwt>
<totfact> 0.24895516E+01</totfact>
</mgrwt>
</event>
<event>
 6    1  0.9562506E-007  0.3230701E+04  0.7818608E-02  0.8180756E-01
         -2   -1    0    0    0  501 -0.00000000000E+00  0.00000000000E+00  0.22097406635E+04  0.22097406635E+04  0.00000000000E+00 0.  1.
          2   -1    0    0  501    0  0.00000000000E+00 -0.00000000000E+00 -0.11808429646E+04  0.11808429646E+04  0.00000000000E+00 0. -1.
         23    2    1    2    0    0 -0.11475961866E+04  0.21447340517E+03  0.16845273506E+04  0.20516190695E+04  0.92371871227E+02 0.  0.
         13    1    3    3    0    0 -0.92766703711E+03  0.16251458690E+03  0.12943702427E+04  0.16007409059E+04  0.00000000000E+00 0.  1.
        -13    1    3    3    0    0 -0.21992914948E+03  0.51958818272E+02  0.39015710792E+03  0.45087816364E+03  0.00000000000E+00 0. -1.
         22    1    1    2    0    0  0.11475961866E+04 -0.21447340517E+03 -0.65562965168E+03  0.13389645586E+04  0.00000000000E+00 0. -1.
<mgrwt>
<rscale>  0 0.32307007E+04</rscale>
<asrwt>0</asrwt>
<pdfrwt beam="1">  1        2 0.18166815E+00 0.32307007E+04</pdfrwt>
<pdfrwt beam="2">  1       -2 0.33996010E+00 0.32307007E+04</pdfrwt>
<totfact> 0.29380381E-01</totfact>
</mgrwt>
</event>
<event>
 6    1  0.9562506E-007  0.8613706E+03  0.7818608E-02  0.9475202E-01
          1   -1    0    0  501    0  0.00000000000E+00  0.00000000000E+00  0.62816219113E+03  0.62816219113E+03  0.00000000000E+00 0. -1.
         -1   -1    0    0    0  501 -0.00000000000E+00 -0.00000000000E+00 -0.29528971788E+03  0.29528971788E+03  0.00000000000E+00 0.  1.
         23    2    1    2    0    0  0.26760586217E+03  0.24653772081E+03 -0.69052807801E+02  0.38129171424E+03  0.90671582272E+02 0.  0.
         13    1    3    3    0    0  0.15402377769E+02  0.48144610026E+02 -0.28020156885E+02  0.57795033588E+02  0.00000000000E+00 0. -1.
        -13    1    3    3    0    0  0.25220348441E+03  0.19839311078E+03 -0.41032650915E+02  0.32349668065E+03  0.00000000000E+00 0.  1.
         22    1    1    2    0    0 -0.26760586217E+03 -0.24653772081E+03  0.40192528105E+03  0.54216019477E+03  0.00000000000E+00 0. -1.
<mgrwt>
<rscale>  0 0.86137062E+03</rscale>
<asrwt>0</asrwt>
<pdfrwt beam="1">  1        1 0.96640337E-01 0.86137062E+03</pdfrwt>
<pdfrwt beam="2">  1       -1 0.45429187E-01 0.86137062E+03</pdfrwt>
<totfact> 0.15548602E+02</totfact>
</mgrwt>
</event>
<event>
 6    1  0.9562506E-007  0.2236872E+04  0.7818608E-02  0.8503236E-01
         -1   -1    0    0    0  501 -0.00000000000E+00  0.00000000000E+00  0.72330255447E+03  0.72330255447E+03  0.00000000000E+00 0.  1.
          1   -1    0    0  501    0  0.00000000000E+00 -0.00000000000E+00 -0.17294267336E+04  0.17294267336E+04  0.00000000000E+00 0. -1.
         23    2    1    2    0    0 -0.84366060038E+03  0.27282687595E+02  0.29761782299E+03  0.89958706607E+03  0.90404464494E+02 0.  0.
         11    1    3    3    0    0 -0.23512451318E+02  0.15230299019E+02  0.16510167320E+02  0.32517426099E+02  0.00000000000E+00 0.  1.
        -11    1    3    3    0    0 -0.82014814907E+03  0.12052388576E+02  0.28110765567E+03  0.86706963997E+03  0.00000000000E+00 0. -1.
         22    1    1    2    0    0  0.84366060038E+03 -0.27282687595E+02 -0.13037420021E+04  0.15531422220E+04  0.00000000000E+00 0. -1.
<mgrwt>
<rscale>  0 0.22368717E+04</rscale>
<asrwt>0</asrwt>
<pdfrwt beam="1">  1        1 0.26606565E+00 0.22368717E+04</pdfrwt>
<pdfrwt beam="2">  1       -1 0.11127732E+00 0.22368717E+04</pdfrwt>
<totfact> 0.30706914E+00</totfact>
</mgrwt>
</event>
<event>
 6    1  0.9562506E-007  0.1190360E+04  0.7818608E-02  0.9121337E-01
         -2   -1    0    0    0  501 -0.00000000000E+00  0.00000000000E+00  0.16446318403E+04  0.16446318403E+04  0.00000000000E+00 0.  1.
          2   -1    0    0  501    0  0.00000000000E+00 -0.00000000000E+00 -0.21539110607E+03  0.21539110607E+03  0.00000000000E+00 0. -1.
         23    2    1    2    0    0 -0.44847077590E+03 -0.45422446728E+02  0.11934788270E+03  0.47474011676E+03  0.89134874533E+02 0.  0.
         11    1    3    3    0    0 -0.15338049649E+03  0.24779948729E+02  0.53732634703E+02  0.16439835338E+03  0.00000000000E+00 0. -1.
        -11    1    3    3    0    0 -0.29509027941E+03 -0.70202395457E+02  0.65615247998E+02  0.31034176338E+03  0.00000000000E+00 0.  1.
         22    1    1    2    0    0  0.44847077590E+03  0.45422446728E+02  0.13098928516E+04  0.13852828296E+04  0.00000000000E+00 0.  1.
<mgrwt>
<rscale>  0 0.11903597E+04</rscale>
<asrwt>0</asrwt>
<pdfrwt beam="1">  1        2 0.33137094E-01 0.11903597E+04</pdfrwt>
<pdfrwt beam="2">  1       -2 0.25302028E+00 0.11903597E+04</pdfrwt>
<totfact> 0.97055643E+00</totfact>
</mgrwt>
</event>
<event>
 6    1  0.9562506E-007  0.1897563E+03  0.7818608E-02  0.1158681E+00
          3   -1    0    0  501    0  0.00000000000E+00  0.00000000000E+00  0.27925079171E+03  0.27925079171E+03  0.00000000000E+00 0. -1.
         -3   -1    0    0    0  501 -0.00000000000E+00 -0.00000000000E+00 -0.32235758148E+02  0.32235758148E+02  0.00000000000E+00 0.  1.
         23    2    1    2    0    0 -0.42976764610E+02 -0.54280971064E+02  0.19309161050E+03  0.22373028700E+03  0.89316544713E+02 0.  0.
         11    1    3    3    0    0 -0.65520521845E+02 -0.27649623483E+02  0.88860124159E+02  0.11381371678E+03  0.00000000000E+00 0.  1.
        -11    1    3    3    0    0  0.22543757235E+02 -0.26631347581E+02  0.10423148634E+03  0.10991657022E+03  0.00000000000E+00 0. -1.
         22    1    1    2    0    0  0.42976764610E+02  0.54280971064E+02  0.53923423062E+02  0.87756262857E+02  0.00000000000E+00 0.  1.
<mgrwt>
<rscale>  0 0.18975628E+03</rscale>
<asrwt>0</asrwt>
<pdfrwt beam="1">  1        3 0.42961659E-01 0.18975628E+03</pdfrwt>
<pdfrwt beam="2">  1       -3 0.49593476E-02 0.18975628E+03</pdfrwt>
<totfact> 0.30232100E+03</totfact>
</mgrwt>
</event>
<event>
 6    1  0.9562506E-007  0.9938491E+03  0.7818608E-02  0.9315317E-01
          2   -1    0    0  501    0  0.00000000000E+00  0.00000000000E+00  0.65859308585E+03  0.65859308585E+03  0.00000000000E+00 0. -1.
         -2   -1    0    0    0  501 -0.00000000000E+00 -0.00000000000E+00 -0.37494166840E+03  0.37494166840E+03  0.00000000000E+00 0.  1.
         23    2    1    2    0    0  0.21600259902E+03 -0.40075078617E+03  0.33964427717E+03  0.57484802484E+03  0.88508198778E+02 0.  0.
         13    1    3    3    0    0  0.19704854680E+03 -0.38323012239E+03  0.34020727233E+03  0.54903045877E+03  0.00000000000E+00 0. -1.
        -13    1    3    3    0    0  0.18954052211E+02 -0.17520663775E+02 -0.56299516050E+00  0.25817566072E+02  0.00000000000E+00 0.  1.
         22    1    1    2    0    0 -0.21600259902E+03  0.40075078617E+03 -0.55992859723E+02  0.45868672941E+03  0.00000000000E+00 0. -1.
<mgrwt>
<rscale>  0 0.99384906E+03</rscale>
<asrwt>0</asrwt>
<pdfrwt beam="1">  1        2 0.10132201E+00 0.99384906E+03</pdfrwt>
<pdfrwt beam="2">  1       -2 0.57683334E-01 0.99384906E+03</pdfrwt>
<totfact> 0.12438557E+02</totfact>
</mgrwt>
</event>
<event>
 6    1  0.9562506E-007  0.8341730E+03  0.7818608E-02  0.9511829E-01
         -1   -1    0    0    0  501 -0.00000000000E+00  0.00000000000E+00  0.70172481050E+03  0.70172481050E+03  0.00000000000E+00 0.  1.
          1   -1    0    0  501    0  0.00000000000E+00 -0.00000000000E+00 -0.24790510633E+03  0.24790510633E+03  0.00000000000E+00 0. -1.
         23    2    1    2    0    0  0.21359450290E+03 -0.67388818053E+02  0.62341116332E+03  0.66869375419E+03  0.91356411225E+02 0.  0.
         11    1    3    3    0    0  0.13420833142E+03 -0.40479838035E+02  0.25625809762E+03  0.29209365982E+03  0.00000000000E+00 0. -1.
        -11    1    3    3    0    0  0.79386171480E+02 -0.26908980017E+02  0.36715306570E+03  0.37660009437E+03  0.00000000000E+00 0.  1.
         22    1    1    2    0    0 -0.21359450290E+03  0.67388818053E+02 -0.16959145914E+03  0.28093616264E+03  0.00000000000E+00 0. -1.
<mgrwt>
<rscale>  0 0.83417304E+03</rscale>
<asrwt>0</asrwt>
<pdfrwt beam="1">  1        1 0.38139247E-01 0.83417304E+03</pdfrwt>
<pdfrwt beam="2">  1       -1 0.10795766E+00 0.83417304E+03</pdfrwt>
<totfact> 0.90717595E+01</totfact>
</mgrwt>
</event>
<event>
 6    1  0.9562506E-007  0.2323317E+04  0.7818608E-02  0.8468784E-01
         -2   -1    0    0    0  501 -0.00000000000E+00  0.00000000000E+00  0.79187796591E+03  0.79187796591E+03  0.00000000000E+00 0.  1.
          2   -1    0    0  501    0  0.00000000000E+00 -0.00000000000E+00 -0.17041145909E+04  0.17041145909E+04  0.00000000000E+00 0. -1.
         23    2    1    2    0    0  0.71266913570E+03 -0.51716705983E+03  0.35418455344E+03  0.95353294116E+03  0.91756783025E+02 0.  0.
         13    1    3    3    0    0  0.54215715220E+03 -0.35214726228E+03  0.28372591141E+03  0.70600457847E+03  0.00000000000E+00 0.  1.
        -13    1    3    3    0    0  0.17051198350E+03 -0.16501979754E+03  0.70458642024E+02  0.24752836268E+03  0.00000000000E+00 0. -1.
         22    1    1    2    0    0 -0.71266913570E+03  0.51716705983E+03 -0.12664211784E+04  0.15424596156E+04  0.00000000000E+00 0. -1.
<mgrwt>
<rscale>  0 0.23233173E+04</rscale>
<asrwt>0</asrwt>
<pdfrwt beam="1">  1        2 0.26217147E+00 0.23233173E+04</pdfrwt>
<pdfrwt beam="2">  1       -2 0.12182738E+00 0.23233173E+04</pdfrwt>
<totfact> 0.45146520E+00</totfact>
</mgrwt>
</event>
<event>
 6    1  0.9562506E-007  0.3830547E+04  0.7818608E-02  0.8039631E-01
          2   -1    0    0  501    0  0.00000000000E+00  0.00000000000E+00  0.27557758678E+04  0.27557758678E+04  0.00000000000E+00 0. -1.
         -2   -1    0    0    0  501 -0.00000000000E+00 -0.00000000000E+00 -0.13311215404E+04  0.13311215404E+04  0.00000000000E+00 0.  1.
         23    2    1    2    0    0  0.96064896175E+03  0.74889189607E+01 -0.10537117308E+04  0.14288528582E+04  0.91703692857E+02 0.  0.
         11    1    3    3    0    0  0.12363712063E+03 -0.21463077650E+02 -0.17034595002E+03  0.21157633135E+03  0.00000000000E+00 0. -1.
        -11    1    3    3    0    0  0.83701184112E+03  0.28951996610E+02 -0.88336578074E+03  0.12172765269E+04  0.00000000000E+00 0.  1.
         22    1    1    2    0    0 -0.96064896175E+03 -0.74889189607E+01  0.24783660581E+04  0.26580445500E+04  0.00000000000E+00 0. -1.
<mgrwt>
<rscale>  0 0.38305470E+04</rscale>
<asrwt>0</asrwt>
<pdfrwt beam="1">  1        2 0.42396552E+00 0.38305470E+04</pdfrwt>
<pdfrwt beam="2">  1       -2 0.20478793E+00 0.38305470E+04</pdfrwt>
<totfact> 0.24331937E-01</totfact>
</mgrwt>
</event>
<event>
 6    1  0.9562506E-007  0.2804052E+04  0.7818608E-02  0.8302011E-01
         -2   -1    0    0    0  501 -0.00000000000E+00  0.00000000000E+00  0.96729704075E+03  0.96729704075E+03  0.00000000000E+00 0.  1.
          2   -1    0    0  501    0  0.00000000000E+00 -0.00000000000E+00 -0.20321338242E+04  0.20321338242E+04  0.00000000000E+00 0. -1.
         23    2    1    2    0    0  0.63990122389E+00 -0.12053831200E+04  0.22957216546E+03  0.12306902388E+04  0.94584403103E+02 0.  0.
         11    1    3    3    0    0 -0.41784368772E+02 -0.32521787948E+03  0.64518353085E+02  0.33417842613E+03  0.00000000000E+00 0. -1.
        -11    1    3    3    0    0  0.42424269995E+02 -0.88016524053E+03  0.16505381238E+03  0.89651181269E+03  0.00000000000E+00 0.  1.
         22    1    1    2    0    0 -0.63990122389E+00  0.12053831200E+04 -0.12944089489E+04  0.17687406261E+04  0.00000000000E+00 0. -1.
<mgrwt>
<rscale>  0 0.28040521E+04</rscale>
<asrwt>0</asrwt>
<pdfrwt beam="1">  1        2 0.31263597E+00 0.28040521E+04</pdfrwt>
<pdfrwt beam="2">  1       -2 0.14881493E+00 0.28040521E+04</pdfrwt>
<totfact> 0.17066090E+00</totfact>
</mgrwt>
</event>
<event>
 6    1  0.9562506E-007  0.2830859E+04  0.7818608E-02  0.8293752E-01
         -2   -1    0    0    0  501 -0.00000000000E+00  0.00000000000E+00  0.10130203075E+04  0.10130203075E+04  0.00000000000E+00 0.  1.
          2   -1    0    0  501    0  0.00000000000E+00 -0.00000000000E+00 -0.19776900412E+04  0.19776900412E+04  0.00000000000E+00 0. -1.
         23    2    1    2    0    0  0.13423581197E+03  0.18130857154E+03 -0.19576099677E+04  0.19724656042E+04  0.86554738695E+02 0.  0.
         11    1    3    3    0    0  0.12482419501E+03  0.10985235402E+03 -0.15042738421E+04  0.15134359621E+04  0.00000000000E+00 0. -1.
        -11    1    3    3    0    0  0.94116169590E+01  0.71456217526E+02 -0.45333612568E+03  0.45902964218E+03  0.00000000000E+00 0.  1.
         22    1    1    2    0    0 -0.13423581197E+03 -0.18130857154E+03  0.99294023406E+03  0.10182447445E+04  0.00000000000E+00 0.  1.
<mgrwt>
<rscale>  0 0.28308586E+04</rscale>
<asrwt>0</asrwt>
<pdfrwt beam="1">  1        2 0.30426001E+00 0.28308586E+04</pdfrwt>
<pdfrwt beam="2">  1       -2 0.15584928E+00 0.28308586E+04</pdfrwt>
<totfact> 0.16143238E+00</totfact>
</mgrwt>
</event>
<event>
 6    1  0.9562506E-007  0.2278688E+04  0.7818608E-02  0.8486372E-01
          2   -1    0    0  501    0  0.00000000000E+00  0.00000000000E+00  0.32992738568E+04  0.32992738568E+04  0.00000000000E+00 0. -1.
         -2   -1    0    0    0  501 -0.00000000000E+00 -0.00000000000E+00 -0.39345161238E+03  0.39345161238E+03  0.00000000000E+00 0.  1.
         23    2    1    2    0    0  0.88191627338E+03  0.45898181951E+03  0.23509469138E+04  0.25541617879E+04  0.91380650122E+02 0.  0.
         11    1    3    3    0    0  0.35941132269E+03  0.15617431252E+03  0.10166826209E+04  0.10895918807E+04  0.00000000000E+00 0. -1.
        -11    1    3    3    0    0  0.52250495069E+03  0.30280750699E+03  0.13342642929E+04  0.14645699072E+04  0.00000000000E+00 0.  1.
         22    1    1    2    0    0 -0.88191627338E+03 -0.45898181951E+03  0.55487533063E+03  0.11385636813E+04  0.00000000000E+00 0.  1.
<mgrwt>
<rscale>  0 0.22786879E+04</rscale>
<asrwt>0</asrwt>
<pdfrwt beam="1">  1        2 0.50758058E+00 0.22786879E+04</pdfrwt>
<pdfrwt beam="2">  1       -2 0.60531019E-01 0.22786879E+04</pdfrwt>
<totfact> 0.25793323E+00</totfact>
</mgrwt>
</event>
<event>
 6    1  0.9562506E-007  0.1085526E+04  0.7818608E-02  0.9219415E-01
         -1   -1    0    0    0  501 -0.00000000000E+00  0.00000000000E+00  0.21263097157E+03  0.21263097157E+03  0.00000000000E+00 0.  1.
          1   -1    0    0  501    0  0.00000000000E+00 -0.00000000000E+00 -0.13854608345E+04  0.13854608345E+04  0.00000000000E+00 0. -1.
         23    2    1    2    0    0  0.85149826885E+02 -0.37256187596E+03 -0.31256617343E+02  0.39424699902E+03  0.91656290956E+02 0.  0.
         11    1    3    3    0    0  0.50071584946E+01 -0.17223453273E+03  0.17028521744E+02  0.17314669057E+03  0.00000000000E+00 0. -1.
        -11    1    3    3    0    0  0.80142668390E+02 -0.20032734322E+03 -0.48285139087E+02  0.22110030845E+03  0.00000000000E+00 0.  1.
         22    1    1    2    0    0 -0.85149826885E+02  0.37256187596E+03 -0.11415732456E+04  0.12038448071E+04  0.00000000000E+00 0. -1.
<mgrwt>
<rscale>  0 0.10855264E+04</rscale>
<asrwt>0</asrwt>
<pdfrwt beam="1">  1        1 0.21314783E+00 0.10855264E+04</pdfrwt>
<pdfrwt beam="2">  1       -1 0.32712456E-01 0.10855264E+04</pdfrwt>
<totfact> 0.68656882E+01</totfact>
</mgrwt>
</event>
<event>
 6    1  0.9562506E-007  0.2285888E+04  0.7818608E-02  0.8483506E-01
         -2   -1    0    0    0  501 -0.00000000000E+00  0.00000000000E+00  0.75512045801E+03  0.75512045801E+03  0.00000000000E+00 0.  1.
          2   -1    0    0  501    0  0.00000000000E+00 -0.00000000000E+00 -0.17299499850E+04  0.17299499850E+04  0.00000000000E+00 0. -1.
         23    2    1    2    0    0  0.57751173799E+03  0.74908351953E+02 -0.15549033997E+04  0.16631113403E+04  0.95308336288E+02 0.  0.
         13    1    3    3    0    0  0.30908984753E+03 -0.20237685296E+00 -0.74444763335E+03  0.80606380244E+03  0.00000000000E+00 0. -1.
        -13    1    3    3    0    0  0.26842189047E+03  0.75110728806E+02 -0.81045576639E+03  0.85704753785E+03  0.00000000000E+00 0.  1.
         22    1    1    2    0    0 -0.57751173799E+03 -0.74908351953E+02  0.58007387274E+03  0.82195910272E+03  0.00000000000E+00 0.  1.
<mgrwt>
<rscale>  0 0.22858877E+04</rscale>
<asrwt>0</asrwt>
<pdfrwt beam="1">  1        2 0.26614615E+00 0.22858877E+04</pdfrwt>
<pdfrwt beam="2">  1       -2 0.11617238E+00 0.22858877E+04</pdfrwt>
<totfact> 0.49277380E+00</totfact>
</mgrwt>
</event>
<event>
 6    1  0.9562506E-007  0.2866878E+04  0.7818608E-02  0.8282801E-01
          2   -1    0    0  501    0  0.00000000000E+00  0.00000000000E+00  0.22293094476E+04  0.22293094476E+04  0.00000000000E+00 0. -1.
         -2   -1    0    0    0  501 -0.00000000000E+00 -0.00000000000E+00 -0.92169679979E+03  0.92169679979E+03  0.00000000000E+00 0.  1.
         23    2    1    2    0    0 -0.82434747020E+03 -0.87497848775E+02 -0.62882426149E+03  0.10445892590E+04  0.92423714870E+02 0.  0.
         11    1    3    3    0    0 -0.36561089955E+03 -0.22759615272E+02 -0.33195431991E+03  0.49435109028E+03  0.00000000000E+00 0.  1.
        -11    1    3    3    0    0 -0.45873657066E+03 -0.64738233503E+02 -0.29686994158E+03  0.55023816875E+03  0.00000000000E+00 0. -1.
         22    1    1    2    0    0  0.82434747020E+03  0.87497848775E+02  0.19364369093E+04  0.21064169884E+04  0.00000000000E+00 0. -1.
<mgrwt>
<rscale>  0 0.28668780E+04</rscale>
<asrwt>0</asrwt>
<pdfrwt beam="1">  1        2 0.34297068E+00 0.28668780E+04</pdfrwt>
<pdfrwt beam="2">  1       -2 0.14179951E+00 0.28668780E+04</pdfrwt>
<totfact> 0.14944567E+00</totfact>
</mgrwt>
</event>
<event>
 6    1  0.9562506E-007  0.2255740E+04  0.7818608E-02  0.8495580E-01
         -2   -1    0    0    0  501 -0.00000000000E+00  0.00000000000E+00  0.12321346307E+04  0.12321346307E+04  0.00000000000E+00 0.  1.
          2   -1    0    0  501    0  0.00000000000E+00 -0.00000000000E+00 -0.10324282739E+04  0.10324282739E+04  0.00000000000E+00 0. -1.
         23    2    1    2    0    0 -0.10669246117E+04  0.19798938878E+03  0.40136860914E+03  0.11608439235E+04  0.94519463920E+02 0.  0.
         11    1    3    3    0    0 -0.50606881299E+03  0.47999883694E+02  0.20191266170E+03  0.54697198765E+03  0.00000000000E+00 0.  1.
        -11    1    3    3    0    0 -0.56085579874E+03  0.14998950509E+03  0.19945594744E+03  0.61387193582E+03  0.00000000000E+00 0. -1.
         22    1    1    2    0    0  0.10669246117E+04 -0.19798938878E+03 -0.20166225231E+03  0.11037189811E+04  0.00000000000E+00 0. -1.
<mgrwt>
<rscale>  0 0.22557399E+04</rscale>
<asrwt>0</asrwt>
<pdfrwt beam="1">  1        2 0.15883512E+00 0.22557399E+04</pdfrwt>
<pdfrwt beam="2">  1       -2 0.18955917E+00 0.22557399E+04</pdfrwt>
<totfact> 0.34094612E+00</totfact>
</mgrwt>
</event>
<event>
 6    1  0.9562506E-007  0.8107889E+03  0.7818608E-02  0.9544531E-01
         -2   -1    0    0    0  501 -0.00000000000E+00  0.00000000000E+00  0.77290560869E+03  0.77290560869E+03  0.00000000000E+00 0.  1.
          2   -1    0    0  501    0  0.00000000000E+00 -0.00000000000E+00 -0.21263225240E+03  0.21263225240E+03  0.00000000000E+00 0. -1.
         23    2    1    2    0    0 -0.25138769980E+03 -0.28874783150E+03  0.42502433753E+03  0.57950413973E+03  0.92780788222E+02 0.  0.
         13    1    3    3    0    0 -0.71914581255E+02 -0.98660477870E+02  0.20123349134E+03  0.23537313978E+03  0.00000000000E+00 0. -1.
        -13    1    3    3    0    0 -0.17947311855E+03 -0.19008735363E+03  0.22379084619E+03  0.34413099995E+03  0.00000000000E+00 0.  1.
         22    1    1    2    0    0  0.25138769980E+03  0.28874783150E+03  0.13524901875E+03  0.40603372136E+03  0.00000000000E+00 0. -1.
<mgrwt>
<rscale>  0 0.81078890E+03</rscale>
<asrwt>0</asrwt>
<pdfrwt beam="1">  1        2 0.32712655E-01 0.81078890E+03</pdfrwt>
<pdfrwt beam="2">  1       -2 0.11890855E+00 0.81078890E+03</pdfrwt>
<totfact> 0.88262030E+01</totfact>
</mgrwt>
</event>
<event>
 6    1  0.9562506E-007  0.1936544E+04  0.7818608E-02  0.8636877E-01
         -1   -1    0    0    0  501 -0.00000000000E+00  0.00000000000E+00  0.53379356912E+03  0.53379356912E+03  0.00000000000E+00 0.  1.
          1   -1    0    0  501    0  0.00000000000E+00 -0.00000000000E+00 -0.17563909531E+04  0.17563909531E+04  0.00000000000E+00 0. -1.
         23    2    1    2    0    0  0.79518830616E+03  0.17137804688E+03 -0.12280174207E+04  0.14767201690E+04  0.10478928784E+03 0.  0.
         13    1    3    3    0    0  0.44891758652E+02  0.21398502324E+02 -0.40913671453E+02  0.64397937920E+02  0.00000000000E+00 0.  1.
        -13    1    3    3    0    0  0.75029654751E+03  0.14997954455E+03 -0.11871037492E+04  0.14123222311E+04  0.00000000000E+00 0. -1.
         22    1    1    2    0    0 -0.79518830616E+03 -0.17137804688E+03  0.54200366562E+01  0.81346435325E+03  0.00000000000E+00 0.  1.
<mgrwt>
<rscale>  0 0.19365435E+04</rscale>
<asrwt>0</asrwt>
<pdfrwt beam="1">  1        1 0.27021399E+00 0.19365435E+04</pdfrwt>
<pdfrwt beam="2">  1       -1 0.82122088E-01 0.19365435E+04</pdfrwt>
<totfact> 0.60000561E+00</totfact>
</mgrwt>
</event>
<event>
 6    1  0.9562506E-007  0.3145437E+04  0.7818608E-02  0.8203377E-01
          1   -1    0    0  501    0  0.00000000000E+00  0.00000000000E+00  0.17479035478E+04  0.17479035478E+04  0.00000000000E+00 0. -1.
         -1   -1    0    0    0  501 -0.00000000000E+00 -0.00000000000E+00 -0.14150919479E+04  0.14150919479E+04  0.00000000000E+00 0.  1.
         23    2    1    2    0    0 -0.18883895458E+03  0.82571449921E+03  0.14975082416E+04  0.17228625671E+04  0.90884027244E+02 0.  0.
         13    1    3    3    0    0 -0.16221327867E+03  0.74427699306E+03  0.12862569277E+04  0.14948974126E+04  0.00000000000E+00 0.  1.
        -13    1    3    3    0    0 -0.26625675911E+02  0.81437506157E+02  0.21125131396E+03  0.22796515452E+03  0.00000000000E+00 0. -1.
         22    1    1    2    0    0  0.18883895458E+03 -0.82571449921E+03 -0.11646966417E+04  0.14401329287E+04  0.00000000000E+00 0.  1.
<mgrwt>
<rscale>  0 0.31454375E+04</rscale>
<asrwt>0</asrwt>
<pdfrwt beam="1">  1        1 0.26890824E+00 0.31454375E+04</pdfrwt>
<pdfrwt beam="2">  1       -1 0.21770645E+00 0.31454375E+04</pdfrwt>
<totfact> 0.42371176E-01</totfact>
</mgrwt>
</event>
<event>
 6    1  0.9562506E-007  0.1927904E+04  0.7818608E-02  0.8641090E-01
         -1   -1    0    0    0  501 -0.00000000000E+00  0.00000000000E+00  0.19764093702E+04  0.19764093702E+04  0.00000000000E+00 0.  1.
          1   -1    0    0  501    0  0.00000000000E+00 -0.00000000000E+00 -0.47014709553E+03  0.47014709553E+03  0.00000000000E+00 0. -1.
         23    2    1    2    0    0 -0.11565967159E+03 -0.35698171109E+03  0.18786442670E+04  0.19178964144E+04  0.90605038106E+02 0.  0.
         11    1    3    3    0    0 -0.12225397195E+03 -0.25260135861E+03  0.14222080229E+04  0.14496306911E+04  0.00000000000E+00 0.  1.
        -11    1    3    3    0    0  0.65943003594E+01 -0.10438035248E+03  0.45643624405E+03  0.46826572335E+03  0.00000000000E+00 0. -1.
         22    1    1    2    0    0  0.11565967159E+03  0.35698171109E+03 -0.37238199229E+03  0.52866005133E+03  0.00000000000E+00 0. -1.
<mgrwt>
<rscale>  0 0.19279037E+04</rscale>
<asrwt>0</asrwt>
<pdfrwt beam="1">  1        1 0.72330324E-01 0.19279037E+04</pdfrwt>
<pdfrwt beam="2">  1       -1 0.30406297E+00 0.19279037E+04</pdfrwt>
<totfact> 0.14006447E+00</totfact>
</mgrwt>
</event>
<event>
 6    1  0.9562506E-007  0.3153949E+04  0.7818608E-02  0.8201086E-01
          2   -1    0    0  501    0  0.00000000000E+00  0.00000000000E+00  0.24887098623E+04  0.24887098623E+04  0.00000000000E+00 0. -1.
         -2   -1    0    0    0  501 -0.00000000000E+00 -0.00000000000E+00 -0.99925216511E+03  0.99925216511E+03  0.00000000000E+00 0.  1.
         23    2    1    2    0    0  0.10098558427E+04  0.68054961382E+03 -0.36046772138E+03  0.12731977839E+04  0.90216511575E+02 0.  0.
         13    1    3    3    0    0  0.84210703609E+03  0.58820441554E+03 -0.33256214537E+03  0.10796880453E+04  0.00000000000E+00 0. -1.
        -13    1    3    3    0    0  0.16774880660E+03  0.92345198285E+02 -0.27905576011E+02  0.19350973860E+03  0.00000000000E+00 0.  1.
         22    1    1    2    0    0 -0.10098558427E+04 -0.68054961382E+03  0.18499254185E+04  0.22147642435E+04  0.00000000000E+00 0. -1.
<mgrwt>
<rscale>  0 0.31539491E+04</rscale>
<asrwt>0</asrwt>
<pdfrwt beam="1">  1        2 0.38287844E+00 0.31539491E+04</pdfrwt>
<pdfrwt beam="2">  1       -2 0.15373110E+00 0.31539491E+04</pdfrwt>
<totfact> 0.83813494E-01</totfact>
</mgrwt>
</event>
<event>
 6    1  0.9562506E-007  0.4166548E+04  0.7818608E-02  0.7971766E-01
         -2   -1    0    0    0  501 -0.00000000000E+00  0.00000000000E+00  0.13251092753E+04  0.13251092753E+04  0.00000000000E+00 0.  1.
          2   -1    0    0  501    0  0.00000000000E+00 -0.00000000000E+00 -0.32752250510E+04  0.32752250510E+04  0.00000000000E+00 0. -1.
         23    2    1    2    0    0 -0.19330207204E+04  0.26519699475E+03 -0.17307616596E+03  0.19612495747E+04  0.98213968143E+02 0.  0.
         11    1    3    3    0    0 -0.17632104604E+04  0.26798685273E+03 -0.14823647138E+03  0.17896094915E+04  0.00000000000E+00 0. -1.
        -11    1    3    3    0    0 -0.16981026007E+03 -0.27898579817E+01 -0.24839694581E+02  0.17164008320E+03  0.00000000000E+00 0.  1.
         22    1    1    2    0    0  0.19330207204E+04 -0.26519699475E+03 -0.17770396097E+04  0.26390847516E+04  0.00000000000E+00 0. -1.
<mgrwt>
<rscale>  0 0.41665483E+04</rscale>
<asrwt>0</asrwt>
<pdfrwt beam="1">  1        2 0.50388077E+00 0.41665483E+04</pdfrwt>
<pdfrwt beam="2">  1       -2 0.20386297E+00 0.41665483E+04</pdfrwt>
<totfact> 0.11286632E-01</totfact>
</mgrwt>
</event>
<event>
 6    1  0.9562506E-007  0.3074025E+04  0.7818608E-02  0.8222903E-01
         -2   -1    0    0    0  501 -0.00000000000E+00  0.00000000000E+00  0.97453678875E+03  0.97453678875E+03  0.00000000000E+00 0.  1.
          2   -1    0    0  501    0  0.00000000000E+00 -0.00000000000E+00 -0.24241334839E+04  0.24241334839E+04  0.00000000000E+00 0. -1.
         23    2    1    2    0    0  0.15254667059E+04 -0.17545540435E+03 -0.73698250953E+03  0.17058465230E+04  0.94529735735E+02 0.  0.
         13    1    3    3    0    0  0.32310058144E+03 -0.41318714426E+02 -0.11448055932E+03  0.34526369684E+03  0.00000000000E+00 0.  1.
        -13    1    3    3    0    0  0.12023661245E+04 -0.13413668992E+03 -0.62250195021E+03  0.13605828262E+04  0.00000000000E+00 0. -1.
         22    1    1    2    0    0 -0.15254667059E+04  0.17545540435E+03 -0.71261418559E+03  0.16928237496E+04  0.00000000000E+00 0.  1.
<mgrwt>
<rscale>  0 0.30740249E+04</rscale>
<asrwt>0</asrwt>
<pdfrwt beam="1">  1        2 0.37294361E+00 0.30740249E+04</pdfrwt>
<pdfrwt beam="2">  1       -2 0.14992874E+00 0.30740249E+04</pdfrwt>
<totfact> 0.98271101E-01</totfact>
</mgrwt>
</event>
<event>
 6    1  0.9562506E-007  0.1738828E+04  0.7818608E-02  0.8739524E-01
         -2   -1    0    0    0  501 -0.00000000000E+00  0.00000000000E+00  0.17520666644E+04  0.17520666644E+04  0.00000000000E+00 0.  1.
          2   -1    0    0  501    0  0.00000000000E+00 -0.00000000000E+00 -0.43142246224E+03  0.43142246224E+03  0.00000000000E+00 0. -1.
         23    2    1    2    0    0 -0.86451523387E+03  0.42142898129E+02  0.60017472774E+03  0.10573280027E+04  0.92575310165E+02 0.  0.
         13    1    3    3    0    0 -0.85858278916E+02  0.22634140178E+02  0.37184508843E+02  0.96263368204E+02  0.00000000000E+00 0. -1.
        -13    1    3    3    0    0 -0.77865695495E+03  0.19508757951E+02  0.56299021890E+03  0.96106463451E+03  0.00000000000E+00 0.  1.
         22    1    1    2    0    0  0.86451523387E+03 -0.42142898129E+02  0.72046947441E+03  0.11261611239E+04  0.00000000000E+00 0.  1.
<mgrwt>
<rscale>  0 0.17388282E+04</rscale>
<asrwt>0</asrwt>
<pdfrwt beam="1">  1        2 0.66372687E-01 0.17388282E+04</pdfrwt>
<pdfrwt beam="2">  1       -2 0.26954871E+00 0.17388282E+04</pdfrwt>
<totfact> 0.33792609E+00</totfact>
</mgrwt>
</event>
<event>
 6    1  0.9562506E-007  0.3581712E+04  0.7818608E-02  0.8094694E-01
          2   -1    0    0  501    0  0.00000000000E+00  0.00000000000E+00  0.33848950139E+04  0.33848950139E+04  0.00000000000E+00 0. -1.
         -2   -1    0    0    0  501 -0.00000000000E+00 -0.00000000000E+00 -0.94749307906E+03  0.94749307906E+03  0.00000000000E+00 0.  1.
         23    2    1    2    0    0 -0.17058594309E+04 -0.15044705534E+03  0.18485669590E+04  0.25214995422E+04  0.90384873063E+02 0.  0.
         13    1    3    3    0    0 -0.11925345094E+04 -0.74117225808E+02  0.13290741746E+04  0.17871961507E+04  0.00000000000E+00 0. -1.
        -13    1    3    3    0    0 -0.51332492143E+03 -0.76329829534E+02  0.51949278438E+03  0.73430339156E+03  0.00000000000E+00 0.  1.
         22    1    1    2    0    0  0.17058594309E+04  0.15044705534E+03  0.58883497586E+03  0.18108885507E+04  0.00000000000E+00 0.  1.
<mgrwt>
<rscale>  0 0.35817117E+04</rscale>
<asrwt>0</asrwt>
<pdfrwt beam="1">  1        2 0.52075307E+00 0.35817117E+04</pdfrwt>
<pdfrwt beam="2">  1       -2 0.14576817E+00 0.35817117E+04</pdfrwt>
<totfact> 0.25715878E-01</totfact>
</mgrwt>
</event>
<event>
 6    1  0.9562506E-007  0.2411068E+04  0.7818608E-02  0.8435371E-01
          1   -1    0    0  501    0  0.00000000000E+00  0.00000000000E+00  0.89215778616E+03  0.89215778616E+03  0.00000000000E+00 0. -1.
         -1   -1    0    0    0  501 -0.00000000000E+00 -0.00000000000E+00 -0.16289857477E+04  0.16289857477E+04  0.00000000000E+00 0.  1.
         23    2    1    2    0    0  0.96222215688E+03  0.18321660690E+03 -0.11007589760E+04  0.14762102405E+04  0.89925228922E+02 0.  0.
         11    1    3    3    0    0  0.80279489737E+02 -0.95254210534E+01 -0.93577101890E+02  0.12366165176E+03  0.00000000000E+00 0. -1.
        -11    1    3    3    0    0  0.88194266714E+03  0.19274202796E+03 -0.10071818741E+04  0.13525485888E+04  0.00000000000E+00 0.  1.
         22    1    1    2    0    0 -0.96222215688E+03 -0.18321660690E+03  0.36393101446E+03  0.10449332933E+04  0.00000000000E+00 0. -1.
<mgrwt>
<rscale>  0 0.24110681E+04</rscale>
<asrwt>0</asrwt>
<pdfrwt beam="1">  1        1 0.13725504E+00 0.24110681E+04</pdfrwt>
<pdfrwt beam="2">  1       -1 0.25061319E+00 0.24110681E+04</pdfrwt>
<totfact> 0.11421423E+00</totfact>
</mgrwt>
</event>
<event>
 6    1  0.9562506E-007  0.1772613E+04  0.7818608E-02  0.8721000E-01
          1   -1    0    0  501    0  0.00000000000E+00  0.00000000000E+00  0.32453461648E+04  0.32453461648E+04  0.00000000000E+00 0. -1.
         -1   -1    0    0    0  501 -0.00000000000E+00 -0.00000000000E+00 -0.24205105653E+03  0.24205105653E+03  0.00000000000E+00 0.  1.
         23    2    1    2    0    0  0.70760783375E+03  0.43693576824E+03  0.91634709349E+03  0.12408501534E+04  0.91626391031E+02 0.  0.
         11    1    3    3    0    0  0.37995416315E+03  0.21867097576E+03  0.54730796620E+03  0.70123332180E+03  0.00000000000E+00 0. -1.
        -11    1    3    3    0    0  0.32765367059E+03  0.21826479248E+03  0.36903912729E+03  0.53961683161E+03  0.00000000000E+00 0.  1.
         22    1    1    2    0    0 -0.70760783375E+03 -0.43693576824E+03  0.20869480148E+04  0.22465470679E+04  0.00000000000E+00 0.  1.
<mgrwt>
<rscale>  0 0.17726133E+04</rscale>
<asrwt>0</asrwt>
<pdfrwt beam="1">  1        1 0.49928399E+00 0.17726133E+04</pdfrwt>
<pdfrwt beam="2">  1       -1 0.37238627E-01 0.17726133E+04</pdfrwt>
<totfact> 0.25914641E+00</totfact>
</mgrwt>
</event>
<event>
 6    1  0.9562506E-007  0.2691260E+04  0.7818608E-02  0.8337846E-01
         -2   -1    0    0    0  501 -0.00000000000E+00  0.00000000000E+00  0.18523692523E+04  0.18523692523E+04  0.00000000000E+00 0.  1.
          2   -1    0    0  501    0  0.00000000000E+00 -0.00000000000E+00 -0.97751561267E+03  0.97751561267E+03  0.00000000000E+00 0. -1.
         23    2    1    2    0    0 -0.19140880093E+03 -0.12412038301E+04 -0.65662546212E+02  0.12608740388E+04  0.90925764994E+02 0.  0.
         13    1    3    3    0    0 -0.98157201601E+02 -0.78590922236E+03 -0.37663907937E+01  0.79202419642E+03  0.00000000000E+00 0.  1.
        -13    1    3    3    0    0 -0.93251599333E+02 -0.45529460774E+03 -0.61896155418E+02  0.46884984235E+03  0.00000000000E+00 0. -1.
         22    1    1    2    0    0  0.19140880093E+03  0.12412038301E+04  0.94051618585E+03  0.15690108262E+04  0.00000000000E+00 0.  1.
<mgrwt>
<rscale>  0 0.26912598E+04</rscale>
<asrwt>0</asrwt>
<pdfrwt beam="1">  1        2 0.15038702E+00 0.26912598E+04</pdfrwt>
<pdfrwt beam="2">  1       -2 0.28497988E+00 0.26912598E+04</pdfrwt>
<totfact> 0.89789622E-01</totfact>
</mgrwt>
</event>
<event>
 6    1  0.9562506E-007  0.3545931E+04  0.7818608E-02  0.8102990E-01
         -2   -1    0    0    0  501 -0.00000000000E+00  0.00000000000E+00  0.17307715598E+04  0.17307715598E+04  0.00000000000E+00 0.  1.
          2   -1    0    0  501    0  0.00000000000E+00 -0.00000000000E+00 -0.18161879578E+04  0.18161879578E+04  0.00000000000E+00 0. -1.
         23    2    1    2    0    0  0.14264925082E+04 -0.73693087837E+03  0.70648514451E+03  0.17566924848E+04  0.94335737711E+02 0.  0.
         11    1    3    3    0    0  0.76477611500E+03 -0.44739100347E+03  0.39629571427E+03  0.97061398569E+03  0.00000000000E+00 0. -1.
        -11    1    3    3    0    0  0.66171639322E+03 -0.28953987489E+03  0.31018943023E+03  0.78607849915E+03  0.00000000000E+00 0.  1.
         22    1    1    2    0    0 -0.14264925082E+04  0.73693087837E+03 -0.79190154257E+03  0.17902670328E+04  0.00000000000E+00 0. -1.
<mgrwt>
<rscale>  0 0.35459309E+04</rscale>
<asrwt>0</asrwt>
<pdfrwt beam="1">  1        2 0.27941353E+00 0.35459309E+04</pdfrwt>
<pdfrwt beam="2">  1       -2 0.26627255E+00 0.35459309E+04</pdfrwt>
<totfact> 0.35342351E-01</totfact>
</mgrwt>
</event>
<event>
 6    1  0.9562506E-007  0.2891793E+04  0.7818608E-02  0.8275323E-01
          2   -1    0    0  501    0  0.00000000000E+00  0.00000000000E+00  0.18880223988E+04  0.18880223988E+04  0.00000000000E+00 0. -1.
         -2   -1    0    0    0  501 -0.00000000000E+00 -0.00000000000E+00 -0.11073053176E+04  0.11073053176E+04  0.00000000000E+00 0.  1.
         23    2    1    2    0    0 -0.14322495415E+04 -0.10885066515E+03  0.23059684964E+03  0.14572056518E+04  0.84179499468E+02 0.  0.
         11    1    3    3    0    0 -0.10606615719E+04 -0.65085806062E+02  0.20437678738E+03  0.10821316942E+04  0.00000000000E+00 0. -1.
        -11    1    3    3    0    0 -0.37158796957E+03 -0.43764859087E+02  0.26220062265E+02  0.37507395763E+03  0.00000000000E+00 0.  1.
         22    1    1    2    0    0  0.14322495415E+04  0.10885066515E+03  0.55012023150E+03  0.15381220646E+04  0.00000000000E+00 0. -1.
<mgrwt>
<rscale>  0 0.28917934E+04</rscale>
<asrwt>0</asrwt>
<pdfrwt beam="1">  1        2 0.29046498E+00 0.28917934E+04</pdfrwt>
<pdfrwt beam="2">  1       -2 0.17035466E+00 0.28917934E+04</pdfrwt>
<totfact> 0.14112473E+00</totfact>
</mgrwt>
</event>
<event>
 6    1  0.9562506E-007  0.2987521E+04  0.7818608E-02  0.8247303E-01
          2   -1    0    0  501    0  0.00000000000E+00  0.00000000000E+00  0.21970457020E+04  0.21970457020E+04  0.00000000000E+00 0. -1.
         -2   -1    0    0    0  501 -0.00000000000E+00 -0.00000000000E+00 -0.10156006485E+04  0.10156006485E+04  0.00000000000E+00 0.  1.
         23    2    1    2    0    0 -0.69987396569E+03  0.56966889590E+03 -0.68686103794E+03  0.11378177141E+04  0.92221724042E+02 0.  0.
         11    1    3    3    0    0 -0.51718300167E+03  0.42508528786E+03 -0.45728587690E+03  0.81073184986E+03  0.00000000000E+00 0.  1.
        -11    1    3    3    0    0 -0.18269096402E+03  0.14458360804E+03 -0.22957516104E+03  0.32708586429E+03  0.00000000000E+00 0. -1.
         22    1    1    2    0    0  0.69987396569E+03 -0.56966889590E+03  0.18683060915E+04  0.20748286364E+04  0.00000000000E+00 0. -1.
<mgrwt>
<rscale>  0 0.29875214E+04</rscale>
<asrwt>0</asrwt>
<pdfrwt beam="1">  1        2 0.33800703E+00 0.29875214E+04</pdfrwt>
<pdfrwt beam="2">  1       -2 0.15624625E+00 0.29875214E+04</pdfrwt>
<totfact> 0.11933069E+00</totfact>
</mgrwt>
</event>
<event>
 6    1  0.9562506E-007  0.1623316E+04  0.7818608E-02  0.8806351E-01
         -2   -1    0    0    0  501 -0.00000000000E+00  0.00000000000E+00  0.44597442217E+03  0.44597442217E+03  0.00000000000E+00 0.  1.
          2   -1    0    0  501    0  0.00000000000E+00 -0.00000000000E+00 -0.14771890384E+04  0.14771890384E+04  0.00000000000E+00 0. -1.
         23    2    1    2    0    0  0.32174397996E+03  0.42549979380E+03  0.20359881068E+03  0.57804879540E+03  0.90103668033E+02 0.  0.
         11    1    3    3    0    0  0.19159805119E+03  0.18546957562E+03  0.12063340586E+03  0.29267933871E+03  0.00000000000E+00 0. -1.
        -11    1    3    3    0    0  0.13014592877E+03  0.24003021818E+03  0.82965404815E+02  0.28536945669E+03  0.00000000000E+00 0.  1.
         22    1    1    2    0    0 -0.32174397996E+03 -0.42549979380E+03 -0.12348134269E+04  0.13451146652E+04  0.00000000000E+00 0. -1.
<mgrwt>
<rscale>  0 0.16233158E+04</rscale>
<asrwt>0</asrwt>
<pdfrwt beam="1">  1        2 0.22725985E+00 0.16233158E+04</pdfrwt>
<pdfrwt beam="2">  1       -2 0.68611450E-01 0.16233158E+04</pdfrwt>
<totfact> 0.24307141E+01</totfact>
</mgrwt>
</event>
<event>
 6    1  0.9562506E-007  0.5477392E+04  0.7818608E-02  0.7758808E-01
         -2   -1    0    0    0  501 -0.00000000000E+00  0.00000000000E+00  0.18653612603E+04  0.18653612603E+04  0.00000000000E+00 0.  1.
          2   -1    0    0  501    0  0.00000000000E+00 -0.00000000000E+00 -0.40209134213E+04  0.40209134213E+04  0.00000000000E+00 0. -1.
         23    2    1    2    0    0  0.23987372065E+04  0.17688354462E+03  0.32764579347E+03  0.24291805181E+04  0.91314013777E+02 0.  0.
         13    1    3    3    0    0  0.15544978236E+04  0.73511621679E+02  0.22694197288E+03  0.15726951711E+04  0.00000000000E+00 0. -1.
        -13    1    3    3    0    0  0.84423938291E+03  0.10337192294E+03  0.10070382059E+03  0.85648534698E+03  0.00000000000E+00 0.  1.
         22    1    1    2    0    0 -0.23987372065E+04 -0.17688354462E+03 -0.24831979544E+04  0.34570941635E+04  0.00000000000E+00 0. -1.
<mgrwt>
<rscale>  0 0.54773921E+04</rscale>
<asrwt>0</asrwt>
<pdfrwt beam="1">  1        2 0.61860206E+00 0.54773921E+04</pdfrwt>
<pdfrwt beam="2">  1       -2 0.28697866E+00 0.54773921E+04</pdfrwt>
<totfact> 0.87592509E-03</totfact>
</mgrwt>
</event>
<event>
 6    1  0.9562506E-007  0.2103851E+04  0.7818608E-02  0.8559549E-01
          1   -1    0    0  501    0  0.00000000000E+00  0.00000000000E+00  0.12058007558E+04  0.12058007558E+04  0.00000000000E+00 0. -1.
         -1   -1    0    0    0  501 -0.00000000000E+00 -0.00000000000E+00 -0.91768689641E+03  0.91768689641E+03  0.00000000000E+00 0.  1.
         23    2    1    2    0    0  0.50331127533E+03  0.33724801213E+03 -0.72200783978E+03  0.94560637266E+03  0.76273388159E+02 0.  0.
         11    1    3    3    0    0  0.49841585424E+03  0.31951086571E+03 -0.70417386099E+03  0.91998173002E+03  0.00000000000E+00 0.  1.
        -11    1    3    3    0    0  0.48954210922E+01  0.17737146424E+02 -0.17833978793E+02  0.25624642642E+02  0.00000000000E+00 0. -1.
         22    1    1    2    0    0 -0.50331127533E+03 -0.33724801213E+03  0.10101216992E+04  0.11778812795E+04  0.00000000000E+00 0. -1.
<mgrwt>
<rscale>  0 0.21038513E+04</rscale>
<asrwt>0</asrwt>
<pdfrwt beam="1">  1        1 0.18550781E+00 0.21038513E+04</pdfrwt>
<pdfrwt beam="2">  1       -1 0.14118260E+00 0.21038513E+04</pdfrwt>
<totfact> 0.39891391E+00</totfact>
</mgrwt>
</event>
<event>
 6    1  0.9562506E-007  0.1562760E+04  0.7818608E-02  0.8843759E-01
         -2   -1    0    0    0  501 -0.00000000000E+00  0.00000000000E+00  0.70154350114E+03  0.70154350114E+03  0.00000000000E+00 0.  1.
          2   -1    0    0  501    0  0.00000000000E+00 -0.00000000000E+00 -0.87030151949E+03  0.87030151949E+03  0.00000000000E+00 0. -1.
         23    2    1    2    0    0 -0.61409002174E+03  0.43161091811E+03  0.12340346232E+03  0.76639305421E+03  0.93463145679E+02 0.  0.
         11    1    3    3    0    0 -0.96249909723E+02  0.63818516453E+02  0.53887802453E+02  0.12743917536E+03  0.00000000000E+00 0. -1.
        -11    1    3    3    0    0 -0.51784011201E+03  0.36779240166E+03  0.69515659868E+02  0.63895387885E+03  0.00000000000E+00 0.  1.
         22    1    1    2    0    0  0.61409002174E+03 -0.43161091811E+03 -0.29216148068E+03  0.80545196642E+03  0.00000000000E+00 0. -1.
<mgrwt>
<rscale>  0 0.15627596E+04</rscale>
<asrwt>0</asrwt>
<pdfrwt beam="1">  1        2 0.13389254E+00 0.15627596E+04</pdfrwt>
<pdfrwt beam="2">  1       -2 0.10792977E+00 0.15627596E+04</pdfrwt>
<totfact> 0.20328677E+01</totfact>
</mgrwt>
</event>
<event>
 6    1  0.9562506E-007  0.2999522E+04  0.7818608E-02  0.8243867E-01
          2   -1    0    0  501    0  0.00000000000E+00  0.00000000000E+00  0.18062626744E+04  0.18062626744E+04  0.00000000000E+00 0. -1.
         -2   -1    0    0    0  501 -0.00000000000E+00 -0.00000000000E+00 -0.12452690349E+04  0.12452690349E+04  0.00000000000E+00 0.  1.
         23    2    1    2    0    0  0.12251845196E+04  0.68190841468E+03  0.81813218912E+03  0.16259804380E+04  0.91629213445E+02 0.  0.
         11    1    3    3    0    0  0.59018731575E+03  0.37729436769E+03  0.42732274615E+03  0.82053448249E+03  0.00000000000E+00 0. -1.
        -11    1    3    3    0    0  0.63499720389E+03  0.30461404699E+03  0.39080944297E+03  0.80544595554E+03  0.00000000000E+00 0.  1.
         22    1    1    2    0    0 -0.12251845196E+04 -0.68190841468E+03 -0.25713854959E+03  0.14255512712E+04  0.00000000000E+00 0.  1.
<mgrwt>
<rscale>  0 0.29995219E+04</rscale>
<asrwt>0</asrwt>
<pdfrwt beam="1">  1        2 0.27788656E+00 0.29995219E+04</pdfrwt>
<pdfrwt beam="2">  1       -2 0.19157985E+00 0.29995219E+04</pdfrwt>
<totfact> 0.11085866E+00</totfact>
</mgrwt>
</event>
<event>
 6    1  0.9562506E-007  0.4760121E+04  0.7818608E-02  0.7866615E-01
         -1   -1    0    0    0  501 -0.00000000000E+00  0.00000000000E+00  0.29843802640E+04  0.29843802640E+04  0.00000000000E+00 0.  1.
          1   -1    0    0  501    0  0.00000000000E+00 -0.00000000000E+00 -0.18981116244E+04  0.18981116244E+04  0.00000000000E+00 0. -1.
         23    2    1    2    0    0  0.15891320777E+04 -0.28364652388E+02 -0.12726119033E+04  0.20381180153E+04  0.90767142449E+02 0.  0.
         11    1    3    3    0    0  0.12511294219E+04 -0.30812466802E+02 -0.95453628984E+03  0.15739802309E+04  0.00000000000E+00 0.  1.
        -11    1    3    3    0    0  0.33800265581E+03  0.24478144143E+01 -0.31807561344E+03  0.46413778449E+03  0.00000000000E+00 0. -1.
         22    1    1    2    0    0 -0.15891320777E+04  0.28364652388E+02  0.23588805429E+04  0.28443738730E+04  0.00000000000E+00 0.  1.
<mgrwt>
<rscale>  0 0.47601205E+04</rscale>
<asrwt>0</asrwt>
<pdfrwt beam="1">  1        1 0.29201717E+00 0.47601205E+04</pdfrwt>
<pdfrwt beam="2">  1       -1 0.45913543E+00 0.47601205E+04</pdfrwt>
<totfact> 0.72138059E-03</totfact>
</mgrwt>
</event>
<event>
 6    1  0.9562506E-007  0.2249085E+04  0.7818608E-02  0.8498271E-01
         -1   -1    0    0    0  501 -0.00000000000E+00  0.00000000000E+00  0.91699748714E+03  0.91699748714E+03  0.00000000000E+00 0.  1.
          1   -1    0    0  501    0  0.00000000000E+00 -0.00000000000E+00 -0.13790616745E+04  0.13790616745E+04  0.00000000000E+00 0. -1.
         23    2    1    2    0    0  0.88481583964E+03 -0.77576442576E+02  0.46960235727E+03  0.10088452226E+04  0.91242175843E+02 0.  0.
         11    1    3    3    0    0  0.47016235473E+03 -0.61350837545E+02  0.29647073129E+03  0.55920609759E+03  0.00000000000E+00 0. -1.
        -11    1    3    3    0    0  0.41465348491E+03 -0.16225605031E+02  0.17313162598E+03  0.44963912499E+03  0.00000000000E+00 0.  1.
         22    1    1    2    0    0 -0.88481583964E+03  0.77576442576E+02 -0.93166654466E+03  0.12872139391E+04  0.00000000000E+00 0. -1.
<mgrwt>
<rscale>  0 0.22490852E+04</rscale>
<asrwt>0</asrwt>
<pdfrwt beam="1">  1        1 0.21216333E+00 0.22490852E+04</pdfrwt>
<pdfrwt beam="2">  1       -1 0.14107654E+00 0.22490852E+04</pdfrwt>
<totfact> 0.29645945E+00</totfact>
</mgrwt>
</event>
<event>
 6    1  0.9562506E-007  0.2263930E+04  0.7818608E-02  0.8492280E-01
         -1   -1    0    0    0  501 -0.00000000000E+00  0.00000000000E+00  0.73385683211E+03  0.73385683211E+03  0.00000000000E+00 0.  1.
          1   -1    0    0  501    0  0.00000000000E+00 -0.00000000000E+00 -0.17460422616E+04  0.17460422616E+04  0.00000000000E+00 0. -1.
         23    2    1    2    0    0  0.40077898269E+03  0.54120345011E+03  0.48721036091E+03  0.83621034470E+03  0.91371972856E+02 0.  0.
         13    1    3    3    0    0  0.36931126887E+02  0.39595759312E+02  0.72833789928E+02  0.90755127920E+02  0.00000000000E+00 0.  1.
        -13    1    3    3    0    0  0.36384785580E+03  0.50160769080E+03  0.41437657098E+03  0.74545521678E+03  0.00000000000E+00 0. -1.
         22    1    1    2    0    0 -0.40077898269E+03 -0.54120345011E+03 -0.14993957904E+04  0.16436887490E+04  0.00000000000E+00 0. -1.
<mgrwt>
<rscale>  0 0.22639302E+04</rscale>
<asrwt>0</asrwt>
<pdfrwt beam="1">  1        1 0.26862189E+00 0.22639302E+04</pdfrwt>
<pdfrwt beam="2">  1       -1 0.11290105E+00 0.22639302E+04</pdfrwt>
<totfact> 0.28834412E+00</totfact>
</mgrwt>
</event>
<event>
 6    1  0.9562506E-007  0.2005925E+04  0.7818608E-02  0.8603855E-01
          2   -1    0    0  501    0  0.00000000000E+00  0.00000000000E+00  0.94739016786E+03  0.94739016786E+03  0.00000000000E+00 0. -1.
         -2   -1    0    0    0  501 -0.00000000000E+00 -0.00000000000E+00 -0.10617948344E+04  0.10617948344E+04  0.00000000000E+00 0.  1.
         23    2    1    2    0    0 -0.44931608372E+03 -0.37607302911E+02 -0.95283534048E+03  0.10572053558E+04  0.80552628871E+02 0.  0.
         11    1    3    3    0    0 -0.20515802961E+03 -0.48596590669E+02 -0.38365623209E+03  0.43777111617E+03  0.00000000000E+00 0.  1.
        -11    1    3    3    0    0 -0.24415805411E+03  0.10989287758E+02 -0.56917910840E+03  0.61943423966E+03  0.00000000000E+00 0. -1.
         22    1    1    2    0    0  0.44931608372E+03  0.37607302911E+02  0.83843067391E+03  0.95197964646E+03  0.00000000000E+00 0. -1.
<mgrwt>
<rscale>  0 0.20059252E+04</rscale>
<asrwt>0</asrwt>
<pdfrwt beam="1">  1        2 0.14575234E+00 0.20059252E+04</pdfrwt>
<pdfrwt beam="2">  1       -2 0.16335305E+00 0.20059252E+04</pdfrwt>
<totfact> 0.60227606E+00</totfact>
</mgrwt>
</event>
<event>
 6    1  0.9562506E-007  0.2331110E+04  0.7818608E-02  0.8465755E-01
         -1   -1    0    0    0  501 -0.00000000000E+00  0.00000000000E+00  0.23492347775E+04  0.23492347775E+04  0.00000000000E+00 0.  1.
          1   -1    0    0  501    0  0.00000000000E+00 -0.00000000000E+00 -0.57828147964E+03  0.57828147964E+03  0.00000000000E+00 0. -1.
         23    2    1    2    0    0 -0.11574746254E+04  0.10525228308E+03  0.81214297435E+03  0.14208169547E+04  0.91208862080E+02 0.  0.
         11    1    3    3    0    0 -0.17048536221E+03  0.10715130966E+02  0.16011569897E+03  0.23413054011E+03  0.00000000000E+00 0.  1.
        -11    1    3    3    0    0 -0.98698926318E+03  0.94537152117E+02  0.65202727538E+03  0.11866864146E+04  0.00000000000E+00 0. -1.
         22    1    1    2    0    0  0.11574746254E+04 -0.10525228308E+03  0.95881032354E+03  0.15066993025E+04  0.00000000000E+00 0. -1.
<mgrwt>
<rscale>  0 0.23311104E+04</rscale>
<asrwt>0</asrwt>
<pdfrwt beam="1">  1        1 0.88966383E-01 0.23311104E+04</pdfrwt>
<pdfrwt beam="2">  1       -1 0.36142073E+00 0.23311104E+04</pdfrwt>
<totfact> 0.42492367E-01</totfact>
</mgrwt>
</event>
<event>
 6    1  0.9562506E-007  0.1415734E+04  0.7818608E-02  0.8942508E-01
          2   -1    0    0  501    0  0.00000000000E+00  0.00000000000E+00  0.24490706263E+04  0.24490706263E+04  0.00000000000E+00 0. -1.
         -2   -1    0    0    0  501 -0.00000000000E+00 -0.00000000000E+00 -0.20459822897E+03  0.20459822897E+03  0.00000000000E+00 0.  1.
         23    2    1    2    0    0  0.36918557203E+03 -0.57269418706E+03  0.78772125222E+03  0.10454398550E+04  0.90349879809E+02 0.  0.
         13    1    3    3    0    0  0.16592654016E+03 -0.29777103695E+03  0.33316432095E+03  0.47665256941E+03  0.00000000000E+00 0.  1.
        -13    1    3    3    0    0  0.20325903186E+03 -0.27492315011E+03  0.45455693127E+03  0.56878728560E+03  0.00000000000E+00 0. -1.
         22    1    1    2    0    0 -0.36918557203E+03  0.57269418706E+03  0.14567511451E+04  0.16082290003E+04  0.00000000000E+00 0. -1.
<mgrwt>
<rscale>  0 0.14157338E+04</rscale>
<asrwt>0</asrwt>
<pdfrwt beam="1">  1        2 0.37678008E+00 0.14157338E+04</pdfrwt>
<pdfrwt beam="2">  1       -2 0.31476652E-01 0.14157338E+04</pdfrwt>
<totfact> 0.34045759E+01</totfact>
</mgrwt>
</event>
<event>
 6    1  0.9562506E-007  0.1369736E+04  0.7818608E-02  0.8976021E-01
          2   -1    0    0  501    0  0.00000000000E+00  0.00000000000E+00  0.46175306026E+03  0.46175306026E+03  0.00000000000E+00 0. -1.
         -2   -1    0    0    0  501 -0.00000000000E+00 -0.00000000000E+00 -0.10157905393E+04  0.10157905393E+04  0.00000000000E+00 0.  1.
         23    2    1    2    0    0 -0.32384783384E+03 -0.59656978011E+03 -0.34673883362E+03  0.76779318535E+03  0.92225997974E+02 0.  0.
         13    1    3    3    0    0 -0.11698506850E+03 -0.13725759932E+03 -0.73858279494E+02  0.19488509505E+03  0.00000000000E+00 0.  1.
        -13    1    3    3    0    0 -0.20686276534E+03 -0.45931218079E+03 -0.27288055413E+03  0.57290809030E+03  0.00000000000E+00 0. -1.
         22    1    1    2    0    0  0.32384783384E+03  0.59656978011E+03 -0.20729864538E+03  0.70975041416E+03  0.00000000000E+00 0. -1.
<mgrwt>
<rscale>  0 0.13697363E+04</rscale>
<asrwt>0</asrwt>
<pdfrwt beam="1">  1        2 0.71038933E-01 0.13697363E+04</pdfrwt>
<pdfrwt beam="2">  1       -2 0.15627547E+00 0.13697363E+04</pdfrwt>
<totfact> 0.17666596E+01</totfact>
</mgrwt>
</event>
<event>
 6    1  0.9562506E-007  0.8854704E+03  0.7818608E-02  0.9443929E-01
          1   -1    0    0  501    0  0.00000000000E+00  0.00000000000E+00  0.35473609462E+03  0.35473609462E+03  0.00000000000E+00 0. -1.
         -1   -1    0    0    0  501 -0.00000000000E+00 -0.00000000000E+00 -0.55256423551E+03  0.55256423551E+03  0.00000000000E+00 0.  1.
         23    2    1    2    0    0  0.67170295747E+02 -0.52995682356E+02 -0.54044307308E+03  0.55416383706E+03  0.87740823393E+02 0.  0.
         13    1    3    3    0    0  0.64705159794E+02 -0.63266765719E+02 -0.29674753594E+03  0.31023949045E+03  0.00000000000E+00 0. -1.
        -13    1    3    3    0    0  0.24651359537E+01  0.10271083363E+02 -0.24369553714E+03  0.24392434661E+03  0.00000000000E+00 0.  1.
         22    1    1    2    0    0 -0.67170295747E+02  0.52995682356E+02  0.34261493219E+03  0.35313649307E+03  0.00000000000E+00 0. -1.
<mgrwt>
<rscale>  0 0.88547045E+03</rscale>
<asrwt>0</asrwt>
<pdfrwt beam="1">  1        1 0.54574784E-01 0.88547045E+03</pdfrwt>
<pdfrwt beam="2">  1       -1 0.85009882E-01 0.88547045E+03</pdfrwt>
<totfact> 0.97191986E+01</totfact>
</mgrwt>
</event>
<event>
 6    1  0.9562506E-007  0.4821507E+03  0.7818608E-02  0.1018546E+00
         -1   -1    0    0    0  501 -0.00000000000E+00  0.00000000000E+00  0.24806608036E+03  0.24806608036E+03  0.00000000000E+00 0.  1.
          1   -1    0    0  501    0  0.00000000000E+00 -0.00000000000E+00 -0.23428165650E+03  0.23428165650E+03  0.00000000000E+00 0. -1.
         23    2    1    2    0    0 -0.15158638203E+03  0.44833799845E+02  0.17677890614E+03  0.25528892932E+03  0.94515368869E+02 0.  0.
         13    1    3    3    0    0 -0.50897226130E+02  0.58301731438E+02  0.47251075292E+02  0.90676808681E+02  0.00000000000E+00 0. -1.
        -13    1    3    3    0    0 -0.10068915590E+03 -0.13467931593E+02  0.12952783085E+03  0.16461212064E+03  0.00000000000E+00 0.  1.
         22    1    1    2    0    0  0.15158638203E+03 -0.44833799845E+02 -0.16299448228E+03  0.22705880754E+03  0.00000000000E+00 0. -1.
<mgrwt>
<rscale>  0 0.48215073E+03</rscale>
<asrwt>0</asrwt>
<pdfrwt beam="1">  1        1 0.36043332E-01 0.48215073E+03</pdfrwt>
<pdfrwt beam="2">  1       -1 0.38164013E-01 0.48215073E+03</pdfrwt>
<totfact> 0.80732208E+02</totfact>
</mgrwt>
</event>
<event>
 6    1  0.9562506E-007  0.2636037E+04  0.7818608E-02  0.8356062E-01
          2   -1    0    0  501    0  0.00000000000E+00  0.00000000000E+00  0.17266791911E+04  0.17266791911E+04  0.00000000000E+00 0. -1.
         -2   -1    0    0    0  501 -0.00000000000E+00 -0.00000000000E+00 -0.10060774635E+04  0.10060774635E+04  0.00000000000E+00 0.  1.
         23    2    1    2    0    0 -0.11727529425E+04  0.48902907582E+03  0.36831081284E+01  0.12738285522E+04  0.90148288922E+02 0.  0.
         11    1    3    3    0    0 -0.85609236938E+03  0.37380670856E+03 -0.33954146144E+02  0.93476119106E+03  0.00000000000E+00 0. -1.
        -11    1    3    3    0    0 -0.31666057310E+03  0.11522236726E+03  0.37637254272E+02  0.33906736113E+03  0.00000000000E+00 0.  1.
         22    1    1    2    0    0  0.11727529425E+04 -0.48902907582E+03  0.71691861947E+03  0.14589281024E+04  0.00000000000E+00 0. -1.
<mgrwt>
<rscale>  0 0.26360372E+04</rscale>
<asrwt>0</asrwt>
<pdfrwt beam="1">  1        2 0.26564295E+00 0.26360372E+04</pdfrwt>
<pdfrwt beam="2">  1       -2 0.15478115E+00 0.26360372E+04</pdfrwt>
<totfact> 0.23036560E+00</totfact>
</mgrwt>
</event>
<event>
 6    1  0.9562506E-007  0.4453222E+04  0.7818608E-02  0.7918878E-01
         -1   -1    0    0    0  501 -0.00000000000E+00  0.00000000000E+00  0.18878976374E+04  0.18878976374E+04  0.00000000000E+00 0.  1.
          1   -1    0    0  501    0  0.00000000000E+00 -0.00000000000E+00 -0.26260934262E+04  0.26260934262E+04  0.00000000000E+00 0. -1.
         23    2    1    2    0    0  0.19075756201E+04  0.30959302624E+03 -0.14884332527E+04  0.24409380396E+04  0.89735039134E+02 0.  0.
         13    1    3    3    0    0  0.15541847644E+04  0.21690580072E+03 -0.12122960946E+04  0.19829776170E+04  0.00000000000E+00 0.  1.
        -13    1    3    3    0    0  0.35339085566E+03  0.92687225522E+02 -0.27613715810E+03  0.45796042265E+03  0.00000000000E+00 0. -1.
         22    1    1    2    0    0 -0.19075756201E+04 -0.30959302624E+03  0.75023746390E+03  0.20730530241E+04  0.00000000000E+00 0.  1.
<mgrwt>
<rscale>  0 0.44532216E+04</rscale>
<asrwt>0</asrwt>
<pdfrwt beam="1">  1        1 0.40401437E+00 0.44532216E+04</pdfrwt>
<pdfrwt beam="2">  1       -1 0.29044579E+00 0.44532216E+04</pdfrwt>
<totfact> 0.31782547E-02</totfact>
</mgrwt>
</event>
<event>
 6    1  0.9562506E-007  0.2765201E+04  0.7818608E-02  0.8314154E-01
         -2   -1    0    0    0  501 -0.00000000000E+00  0.00000000000E+00  0.58773276577E+03  0.58773276577E+03  0.00000000000E+00 0.  1.
          2   -1    0    0  501    0  0.00000000000E+00 -0.00000000000E+00 -0.32524719089E+04  0.32524719089E+04  0.00000000000E+00 0. -1.
         23    2    1    2    0    0  0.69244798375E+03 -0.83693681240E+02  0.32173701731E+03  0.77336123239E+03  0.89911317275E+02 0.  0.
         11    1    3    3    0    0  0.52237692555E+03 -0.61474605940E+02  0.19862822816E+03  0.56223656279E+03  0.00000000000E+00 0.  1.
        -11    1    3    3    0    0  0.17007105821E+03 -0.22219075300E+02  0.12310878915E+03  0.21112466960E+03  0.00000000000E+00 0. -1.
         22    1    1    2    0    0 -0.69244798375E+03  0.83693681240E+02 -0.29864761604E+04  0.30668434422E+04  0.00000000000E+00 0. -1.
<mgrwt>
<rscale>  0 0.27652011E+04</rscale>
<asrwt>0</asrwt>
<pdfrwt beam="1">  1        2 0.50038029E+00 0.27652011E+04</pdfrwt>
<pdfrwt beam="2">  1       -2 0.90420426E-01 0.27652011E+04</pdfrwt>
<totfact> 0.10925127E+00</totfact>
</mgrwt>
</event>
<event>
 6    1  0.9562506E-007  0.8892562E+03  0.7818608E-02  0.9439112E-01
         -2   -1    0    0    0  501 -0.00000000000E+00  0.00000000000E+00  0.19675792101E+03  0.19675792101E+03  0.00000000000E+00 0.  1.
          2   -1    0    0  501    0  0.00000000000E+00 -0.00000000000E+00 -0.10047582218E+04  0.10047582218E+04  0.00000000000E+00 0. -1.
         23    2    1    2    0    0 -0.16836295334E+03 -0.34964730454E+03 -0.12871803682E+03  0.41919669670E+03  0.92510625856E+02 0.  0.
         11    1    3    3    0    0 -0.16102866881E+03 -0.30331717925E+03 -0.14016228396E+03  0.37091374907E+03  0.00000000000E+00 0.  1.
        -11    1    3    3    0    0 -0.73342845245E+01 -0.46330125295E+02  0.11444247144E+02  0.48282947632E+02  0.00000000000E+00 0. -1.
         22    1    1    2    0    0  0.16836295334E+03  0.34964730454E+03 -0.67928226402E+03  0.78231944616E+03  0.00000000000E+00 0. -1.
<mgrwt>
<rscale>  0 0.88925618E+03</rscale>
<asrwt>0</asrwt>
<pdfrwt beam="1">  1        2 0.15457819E+00 0.88925618E+03</pdfrwt>
<pdfrwt beam="2">  1       -2 0.30270450E-01 0.88925618E+03</pdfrwt>
<totfact> 0.25259938E+02</totfact>
</mgrwt>
</event>
<event>
 6    1  0.9562506E-007  0.5281052E+04  0.7818608E-02  0.7786557E-01
          2   -1    0    0  501    0  0.00000000000E+00  0.00000000000E+00  0.37227126618E+04  0.37227126618E+04  0.00000000000E+00 0. -1.
         -2   -1    0    0    0  501 -0.00000000000E+00 -0.00000000000E+00 -0.18729289588E+04  0.18729289588E+04  0.00000000000E+00 0.  1.
         23    2    1    2    0    0 -0.12816831675E+04  0.66528188086E+03  0.32665481300E+04  0.35726405914E+04  0.90068793340E+02 0.  0.
         13    1    3    3    0    0 -0.88268596898E+03  0.43091146483E+03  0.21341096938E+04  0.23493070032E+04  0.00000000000E+00 0. -1.
        -13    1    3    3    0    0 -0.39899719848E+03  0.23437041603E+03  0.11324384362E+04  0.12233335882E+04  0.00000000000E+00 0.  1.
         22    1    1    2    0    0  0.12816831675E+04 -0.66528188086E+03 -0.14167644269E+04  0.20230010292E+04  0.00000000000E+00 0.  1.
<mgrwt>
<rscale>  0 0.52810515E+04</rscale>
<asrwt>0</asrwt>
<pdfrwt beam="1">  1        2 0.57272502E+00 0.52810515E+04</pdfrwt>
<pdfrwt beam="2">  1       -2 0.28814292E+00 0.52810515E+04</pdfrwt>
<totfact> 0.14968557E-02</totfact>
</mgrwt>
</event>
<event>
 6    1  0.9562506E-007  0.1576619E+04  0.7818608E-02  0.8835042E-01
         -2   -1    0    0    0  501 -0.00000000000E+00  0.00000000000E+00  0.62319303264E+03  0.62319303264E+03  0.00000000000E+00 0.  1.
          2   -1    0    0  501    0  0.00000000000E+00 -0.00000000000E+00 -0.99717417294E+03  0.99717417294E+03  0.00000000000E+00 0. -1.
         23    2    1    2    0    0 -0.17882906322E+02  0.77017656734E+03 -0.28944257718E+02  0.77624506183E+03  0.90702165055E+02 0.  0.
         13    1    3    3    0    0  0.33434475131E+02  0.43151187100E+03 -0.42608894261E+01  0.43282619389E+03  0.00000000000E+00 0.  1.
        -13    1    3    3    0    0 -0.51317381453E+02  0.33866469634E+03 -0.24683368292E+02  0.34341886794E+03  0.00000000000E+00 0. -1.
         22    1    1    2    0    0  0.17882906322E+02 -0.77017656734E+03 -0.34503688258E+03  0.84412214375E+03  0.00000000000E+00 0.  1.
<mgrwt>
<rscale>  0 0.15766192E+04</rscale>
<asrwt>0</asrwt>
<pdfrwt beam="1">  1        2 0.15341141E+00 0.15766192E+04</pdfrwt>
<pdfrwt beam="2">  1       -2 0.95875852E-01 0.15766192E+04</pdfrwt>
<totfact> 0.22169743E+01</totfact>
</mgrwt>
</event>
<event>
 6    1  0.9562506E-007  0.2456173E+04  0.7818608E-02  0.8418768E-01
         -1   -1    0    0    0  501 -0.00000000000E+00  0.00000000000E+00  0.11158279119E+04  0.11158279119E+04  0.00000000000E+00 0.  1.
          1   -1    0    0  501    0  0.00000000000E+00 -0.00000000000E+00 -0.13516384105E+04  0.13516384105E+04  0.00000000000E+00 0. -1.
         23    2    1    2    0    0  0.50467305242E+03 -0.10737872260E+04 -0.43007696917E+03  0.12651962370E+04  0.89673976525E+02 0.  0.
         13    1    3    3    0    0  0.18464607920E+03 -0.41124698466E+03 -0.20921139501E+03  0.49697853551E+03  0.00000000000E+00 0.  1.
        -13    1    3    3    0    0  0.32002697322E+03 -0.66254024138E+03 -0.22086557417E+03  0.76821770149E+03  0.00000000000E+00 0. -1.
         22    1    1    2    0    0 -0.50467305242E+03  0.10737872260E+04  0.19426647054E+03  0.12022700854E+04  0.00000000000E+00 0. -1.
<mgrwt>
<rscale>  0 0.24561725E+04</rscale>
<asrwt>0</asrwt>
<pdfrwt beam="1">  1        1 0.20794437E+00 0.24561725E+04</pdfrwt>
<pdfrwt beam="2">  1       -1 0.17166583E+00 0.24561725E+04</pdfrwt>
<totfact> 0.17732259E+00</totfact>
</mgrwt>
</event>
<event>
 6    1  0.9562506E-007  0.3365999E+04  0.7818608E-02  0.8146302E-01
          2   -1    0    0  501    0  0.00000000000E+00  0.00000000000E+00  0.22657129782E+04  0.22657129782E+04  0.00000000000E+00 0. -1.
         -2   -1    0    0    0  501 -0.00000000000E+00 -0.00000000000E+00 -0.12501528967E+04  0.12501528967E+04  0.00000000000E+00 0.  1.
         23    2    1    2    0    0 -0.18607434704E+03 -0.15550139855E+04  0.11486313013E+04  0.19441152246E+04  0.86821555260E+02 0.  0.
         11    1    3    3    0    0 -0.58994372487E+01 -0.27044648238E+03  0.22294394048E+03  0.35054258484E+03  0.00000000000E+00 0. -1.
        -11    1    3    3    0    0 -0.18017490979E+03 -0.12845675031E+04  0.92568736078E+03  0.15935726397E+04  0.00000000000E+00 0.  1.
         22    1    1    2    0    0  0.18607434704E+03  0.15550139855E+04 -0.13307121976E+03  0.15717506504E+04  0.00000000000E+00 0.  1.
<mgrwt>
<rscale>  0 0.33659992E+04</rscale>
<asrwt>0</asrwt>
<pdfrwt beam="1">  1        2 0.34857123E+00 0.33659992E+04</pdfrwt>
<pdfrwt beam="2">  1       -2 0.19233121E+00 0.33659992E+04</pdfrwt>
<totfact> 0.58891632E-01</totfact>
</mgrwt>
</event>
<event>
 6    1  0.1239547E-006  0.3782162E+04  0.7818608E-02  0.8049994E-01
         -2   -1    0    0    0  501 -0.00000000000E+00  0.00000000000E+00  0.16471225776E+04  0.16471225776E+04  0.00000000000E+00 0.  1.
          2   -1    0    0  501    0  0.00000000000E+00 -0.00000000000E+00 -0.21711722339E+04  0.21711722339E+04  0.00000000000E+00 0. -1.
         23    2    1    2    0    0  0.25595019502E+03 -0.10186459595E+04  0.13241302594E+04  0.16925198719E+04  0.90291083461E+02 0.  0.
         13    1    3    3    0    0  0.10715008746E+03 -0.59236087453E+03  0.78702757706E+03  0.99085062142E+03  0.00000000000E+00 0.  1.
        -13    1    3    3    0    0  0.14880010757E+03 -0.42628508502E+03  0.53710268231E+03  0.70166925047E+03  0.00000000000E+00 0. -1.
         22    1    1    2    0    0 -0.25595019502E+03  0.10186459595E+04 -0.18481799157E+04  0.21257749396E+04  0.00000000000E+00 0. -1.
<mgrwt>
<rscale>  0 0.37821617E+04</rscale>
<asrwt>0</asrwt>
<pdfrwt beam="1">  1        2 0.33402650E+00 0.37821617E+04</pdfrwt>
<pdfrwt beam="2">  1       -2 0.25340347E+00 0.37821617E+04</pdfrwt>
<totfact> 0.26359944E-01</totfact>
</mgrwt>
</event>
<event>
 6    1  0.9562506E-007  0.9999851E+03  0.7818608E-02  0.9308561E-01
         -2   -1    0    0    0  501 -0.00000000000E+00  0.00000000000E+00  0.16251606374E+03  0.16251606374E+03  0.00000000000E+00 0.  1.
          2   -1    0    0  501    0  0.00000000000E+00 -0.00000000000E+00 -0.15382635308E+04  0.15382635308E+04  0.00000000000E+00 0. -1.
         23    2    1    2    0    0 -0.36501041831E+03 -0.25758893417E+03 -0.10594067234E+04  0.11533710354E+04  0.91309776913E+02 0.  0.
         11    1    3    3    0    0 -0.60004974595E+02 -0.85484064390E+01 -0.11099123127E+03  0.12646234873E+03  0.00000000000E+00 0.  1.
        -11    1    3    3    0    0 -0.30500544371E+03 -0.24904052773E+03 -0.94841549213E+03  0.10269086867E+04  0.00000000000E+00 0. -1.
         22    1    1    2    0    0  0.36501041831E+03  0.25758893417E+03 -0.31634074371E+03  0.54740855913E+03  0.00000000000E+00 0. -1.
<mgrwt>
<rscale>  0 0.99998507E+03</rscale>
<asrwt>0</asrwt>
<pdfrwt beam="1">  1        2 0.23665592E+00 0.99998507E+03</pdfrwt>
<pdfrwt beam="2">  1       -2 0.25002472E-01 0.99998507E+03</pdfrwt>
<totfact> 0.17285441E+02</totfact>
</mgrwt>
</event>
<event>
 6    1  0.9562506E-007  0.1072161E+04  0.7818608E-02  0.9232759E-01
          1   -1    0    0  501    0  0.00000000000E+00  0.00000000000E+00  0.12954418380E+04  0.12954418380E+04  0.00000000000E+00 0. -1.
         -1   -1    0    0    0  501 -0.00000000000E+00 -0.00000000000E+00 -0.22184097952E+03  0.22184097952E+03  0.00000000000E+00 0.  1.
         23    2    1    2    0    0  0.10002192384E+03 -0.52293041599E+03  0.53384386937E+03  0.75912833952E+03  0.88464421040E+02 0.  0.
         13    1    3    3    0    0  0.30075446636E+02 -0.21067211956E+03  0.15527213129E+03  0.26343255153E+03  0.00000000000E+00 0. -1.
        -13    1    3    3    0    0  0.69946477208E+02 -0.31225829643E+03  0.37857173808E+03  0.49569578799E+03  0.00000000000E+00 0.  1.
         22    1    1    2    0    0 -0.10002192384E+03  0.52293041599E+03  0.53975698916E+03  0.75815447804E+03  0.00000000000E+00 0. -1.
<mgrwt>
<rscale>  0 0.10721606E+04</rscale>
<asrwt>0</asrwt>
<pdfrwt beam="1">  1        1 0.19929874E+00 0.10721606E+04</pdfrwt>
<pdfrwt beam="2">  1       -1 0.34129382E-01 0.10721606E+04</pdfrwt>
<totfact> 0.73802526E+01</totfact>
</mgrwt>
</event>
<event>
 6    1  0.9562506E-007  0.1110876E+04  0.7818608E-02  0.9194656E-01
          2   -1    0    0  501    0  0.00000000000E+00  0.00000000000E+00  0.16066444262E+03  0.16066444262E+03  0.00000000000E+00 0. -1.
         -2   -1    0    0    0  501 -0.00000000000E+00 -0.00000000000E+00 -0.19202219637E+04  0.19202219637E+04  0.00000000000E+00 0.  1.
         23    2    1    2    0    0 -0.66785997863E+02  0.46337357098E+03 -0.14325303666E+04  0.15098153113E+04  0.90683996920E+02 0.  0.
         13    1    3    3    0    0 -0.52345940449E+02  0.16681490207E+03 -0.64150823081E+03  0.66490609805E+03  0.00000000000E+00 0.  1.
        -13    1    3    3    0    0 -0.14440057414E+02  0.29655866891E+03 -0.79102213578E+03  0.84490921327E+03  0.00000000000E+00 0. -1.
         22    1    1    2    0    0  0.66785997863E+02 -0.46337357098E+03 -0.32702715452E+03  0.57107109504E+03  0.00000000000E+00 0. -1.
<mgrwt>
<rscale>  0 0.11108760E+04</rscale>
<asrwt>0</asrwt>
<pdfrwt beam="1">  1        2 0.24717605E-01 0.11108760E+04</pdfrwt>
<pdfrwt beam="2">  1       -2 0.29541878E+00 0.11108760E+04</pdfrwt>
<totfact> 0.75539443E+00</totfact>
</mgrwt>
</event>
<event>
 6    1  0.9562506E-007  0.6626889E+03  0.7818608E-02  0.9783256E-01
          1   -1    0    0  501    0  0.00000000000E+00  0.00000000000E+00  0.17601365094E+04  0.17601365094E+04  0.00000000000E+00 0. -1.
         -1   -1    0    0    0  501 -0.00000000000E+00 -0.00000000000E+00 -0.62375354470E+02  0.62375354470E+02  0.00000000000E+00 0.  1.
         23    2    1    2    0    0  0.20298356444E+03  0.74918822661E+02  0.15323309816E+04  0.15501475864E+04  0.90023024093E+02 0.  0.
         13    1    3    3    0    0  0.12030314758E+03  0.11792712360E+01  0.92546519310E+03  0.93325241046E+03  0.00000000000E+00 0. -1.
        -13    1    3    3    0    0  0.82680416862E+02  0.73739551425E+02  0.60686578855E+03  0.61689517593E+03  0.00000000000E+00 0.  1.
         22    1    1    2    0    0 -0.20298356444E+03 -0.74918822661E+02  0.16543017333E+03  0.27236427752E+03  0.00000000000E+00 0.  1.
<mgrwt>
<rscale>  0 0.66268888E+03</rscale>
<asrwt>0</asrwt>
<pdfrwt beam="1">  1        1 0.27079019E+00 0.66268888E+03</pdfrwt>
<pdfrwt beam="2">  1       -1 0.95962097E-02 0.66268888E+03</pdfrwt>
<totfact> 0.30087350E+02</totfact>
</mgrwt>
</event>
<event>
 6    1  0.9562506E-007  0.1257878E+04  0.7818608E-02  0.9063651E-01
          1   -1    0    0  501    0  0.00000000000E+00  0.00000000000E+00  0.11924782661E+04  0.11924782661E+04  0.00000000000E+00 0. -1.
         -1   -1    0    0    0  501 -0.00000000000E+00 -0.00000000000E+00 -0.33171636049E+03  0.33171636049E+03  0.00000000000E+00 0.  1.
         23    2    1    2    0    0  0.52916591024E+03  0.31685605759E+03  0.30651095799E+03  0.69497304297E+03  0.92866793269E+02 0.  0.
         13    1    3    3    0    0  0.10077734299E+03  0.67853047134E+02  0.10312042966E+03  0.15935473598E+03  0.00000000000E+00 0.  1.
        -13    1    3    3    0    0  0.42838856726E+03  0.24900301046E+03  0.20339052833E+03  0.53561830699E+03  0.00000000000E+00 0. -1.
         22    1    1    2    0    0 -0.52916591024E+03 -0.31685605759E+03  0.55425094760E+03  0.82922158360E+03  0.00000000000E+00 0. -1.
<mgrwt>
<rscale>  0 0.12578785E+04</rscale>
<asrwt>0</asrwt>
<pdfrwt beam="1">  1        1 0.18345819E+00 0.12578785E+04</pdfrwt>
<pdfrwt beam="2">  1       -1 0.51033287E-01 0.12578785E+04</pdfrwt>
<totfact> 0.41162442E+01</totfact>
</mgrwt>
</event>
<event>
 6    1  0.9562506E-007  0.1134809E+04  0.7818608E-02  0.9171913E-01
          1   -1    0    0  501    0  0.00000000000E+00  0.00000000000E+00  0.13697531374E+04  0.13697531374E+04  0.00000000000E+00 0. -1.
         -1   -1    0    0    0  501 -0.00000000000E+00 -0.00000000000E+00 -0.23504077706E+03  0.23504077706E+03  0.00000000000E+00 0.  1.
         23    2    1    2    0    0 -0.27603340919E+03 -0.92451921657E+02  0.12536589323E+04  0.12903259705E+04  0.92404495696E+02 0.  0.
         11    1    3    3    0    0 -0.49960756699E+02 -0.23573927345E+02  0.11737893492E+03  0.12972903154E+03  0.00000000000E+00 0.  1.
        -11    1    3    3    0    0 -0.22607265249E+03 -0.68877994311E+02  0.11362799974E+04  0.11605969390E+04  0.00000000000E+00 0. -1.
         22    1    1    2    0    0  0.27603340919E+03  0.92451921657E+02 -0.11894657194E+03  0.31446794397E+03  0.00000000000E+00 0.  1.
<mgrwt>
<rscale>  0 0.11348090E+04</rscale>
<asrwt>0</asrwt>
<pdfrwt beam="1">  1        1 0.21073125E+00 0.11348090E+04</pdfrwt>
<pdfrwt beam="2">  1       -1 0.36160120E-01 0.11348090E+04</pdfrwt>
<totfact> 0.58675054E+01</totfact>
</mgrwt>
</event>
<event>
 6    1  0.9562506E-007  0.4963194E+04  0.7818608E-02  0.7834210E-01
          2   -1    0    0  501    0  0.00000000000E+00  0.00000000000E+00  0.27063871103E+04  0.27063871103E+04  0.00000000000E+00 0. -1.
         -2   -1    0    0    0  501 -0.00000000000E+00 -0.00000000000E+00 -0.22754773285E+04  0.22754773285E+04  0.00000000000E+00 0.  1.
         23    2    1    2    0    0  0.22895709343E+04  0.63401444657E+03  0.93247248310E+03  0.25537634267E+04  0.89962915245E+02 0.  0.
         13    1    3    3    0    0  0.13699807747E+04  0.40556220389E+03  0.52178453153E+03  0.15210480339E+04  0.00000000000E+00 0. -1.
        -13    1    3    3    0    0  0.91959015961E+03  0.22845224268E+03  0.41068795158E+03  0.10327153927E+04  0.00000000000E+00 0.  1.
         22    1    1    2    0    0 -0.22895709343E+04 -0.63401444657E+03 -0.50156270131E+03  0.24281010121E+04  0.00000000000E+00 0. -1.
<mgrwt>
<rscale>  0 0.49631935E+04</rscale>
<asrwt>0</asrwt>
<pdfrwt beam="1">  1        2 0.41636725E+00 0.49631935E+04</pdfrwt>
<pdfrwt beam="2">  1       -2 0.35007344E+00 0.49631935E+04</pdfrwt>
<totfact> 0.29870410E-02</totfact>
</mgrwt>
</event>
<event>
 6    1  0.9562506E-007  0.3278793E+04  0.7818608E-02  0.8168312E-01
         -2   -1    0    0    0  501 -0.00000000000E+00  0.00000000000E+00  0.13854499626E+04  0.13854499626E+04  0.00000000000E+00 0.  1.
          2   -1    0    0  501    0  0.00000000000E+00 -0.00000000000E+00 -0.19398907281E+04  0.19398907281E+04  0.00000000000E+00 0. -1.
         23    2    1    2    0    0 -0.14064008941E+04 -0.51767662376E+03 -0.94829695463E+03  0.17758003526E+04  0.90814185993E+02 0.  0.
         11    1    3    3    0    0 -0.26921079793E+03 -0.13304285300E+03 -0.16938171355E+03  0.34476806601E+03  0.00000000000E+00 0.  1.
        -11    1    3    3    0    0 -0.11371900961E+04 -0.38463377076E+03 -0.77891524108E+03  0.14310322866E+04  0.00000000000E+00 0. -1.
         22    1    1    2    0    0  0.14064008941E+04  0.51767662376E+03  0.39385618912E+03  0.15495403381E+04  0.00000000000E+00 0.  1.
<mgrwt>
<rscale>  0 0.32787934E+04</rscale>
<asrwt>0</asrwt>
<pdfrwt beam="1">  1        2 0.29844473E+00 0.32787934E+04</pdfrwt>
<pdfrwt beam="2">  1       -2 0.21314615E+00 0.32787934E+04</pdfrwt>
<totfact> 0.65989089E-01</totfact>
</mgrwt>
</event>
<event>
 6    1  0.1306579E-006  0.3325639E+04  0.7818608E-02  0.8156402E-01
          2   -1    0    0  501    0  0.00000000000E+00  0.00000000000E+00  0.25147106758E+04  0.25147106758E+04  0.00000000000E+00 0. -1.
         -2   -1    0    0    0  501 -0.00000000000E+00 -0.00000000000E+00 -0.10995173777E+04  0.10995173777E+04  0.00000000000E+00 0.  1.
         23    2    1    2    0    0  0.63640458613E+01  0.82731714252E+03  0.22741146576E+04  0.24216509879E+04  0.91114631754E+02 0.  0.
         11    1    3    3    0    0  0.46406137541E+02  0.31334312993E+03  0.87860242607E+03  0.93395913710E+03  0.00000000000E+00 0. -1.
        -11    1    3    3    0    0 -0.40042091680E+02  0.51397401258E+03  0.13955122315E+04  0.14876918509E+04  0.00000000000E+00 0.  1.
         22    1    1    2    0    0 -0.63640458613E+01 -0.82731714252E+03 -0.85892135947E+03  0.11925770655E+04  0.00000000000E+00 0.  1.
<mgrwt>
<rscale>  0 0.33256386E+04</rscale>
<asrwt>0</asrwt>
<pdfrwt beam="1">  1        2 0.38687856E+00 0.33256386E+04</pdfrwt>
<pdfrwt beam="2">  1       -2 0.16915652E+00 0.33256386E+04</pdfrwt>
<totfact> 0.61469062E-01</totfact>
</mgrwt>
</event>
<event>
 6    1  0.9562506E-007  0.1342875E+04  0.7818608E-02  0.8996239E-01
          1   -1    0    0  501    0  0.00000000000E+00  0.00000000000E+00  0.90453087769E+03  0.90453087769E+03  0.00000000000E+00 0. -1.
         -1   -1    0    0    0  501 -0.00000000000E+00 -0.00000000000E+00 -0.49841111127E+03  0.49841111127E+03  0.00000000000E+00 0.  1.
         23    2    1    2    0    0  0.49422602949E+03  0.42729133530E+03  0.56955090857E+02  0.66216319330E+03  0.91536652415E+02 0.  0.
         11    1    3    3    0    0  0.40106847538E+03  0.31584485152E+03  0.14017089905E+02  0.51069596727E+03  0.00000000000E+00 0.  1.
        -11    1    3    3    0    0  0.93157554104E+02  0.11144648378E+03  0.42938000952E+02  0.15146722603E+03  0.00000000000E+00 0. -1.
         22    1    1    2    0    0 -0.49422602949E+03 -0.42729133530E+03  0.34916467557E+03  0.74077879567E+03  0.00000000000E+00 0. -1.
<mgrwt>
<rscale>  0 0.13428749E+04</rscale>
<asrwt>0</asrwt>
<pdfrwt beam="1">  1        1 0.13915860E+00 0.13428749E+04</pdfrwt>
<pdfrwt beam="2">  1       -1 0.76678633E-01 0.13428749E+04</pdfrwt>
<totfact> 0.30163880E+01</totfact>
</mgrwt>
</event>
<event>
 6    1  0.9562506E-007  0.2442478E+04  0.7818608E-02  0.8423769E-01
         -2   -1    0    0    0  501 -0.00000000000E+00  0.00000000000E+00  0.52460224445E+03  0.52460224445E+03  0.00000000000E+00 0.  1.
          2   -1    0    0  501    0  0.00000000000E+00 -0.00000000000E+00 -0.28429629833E+04  0.28429629833E+04  0.00000000000E+00 0. -1.
         23    2    1    2    0    0 -0.96779310128E+03  0.22800864048E+03 -0.21343455710E+04  0.23563911532E+04  0.92394931417E+02 0.  0.
         11    1    3    3    0    0 -0.81025723469E+03  0.15700317311E+03 -0.17375567441E+04  0.19236086456E+04  0.00000000000E+00 0. -1.
        -11    1    3    3    0    0 -0.15753586660E+03  0.71005467372E+02 -0.39678882692E+03  0.43278250754E+03  0.00000000000E+00 0.  1.
         22    1    1    2    0    0  0.96779310128E+03 -0.22800864048E+03 -0.18401516784E+03  0.10111740745E+04  0.00000000000E+00 0.  1.
<mgrwt>
<rscale>  0 0.24424781E+04</rscale>
<asrwt>0</asrwt>
<pdfrwt beam="1">  1        2 0.43737892E+00 0.24424781E+04</pdfrwt>
<pdfrwt beam="2">  1       -2 0.80708037E-01 0.24424781E+04</pdfrwt>
<totfact> 0.26444560E+00</totfact>
</mgrwt>
</event>
<event>
 6    1  0.9562506E-007  0.5411447E+04  0.7818608E-02  0.7767993E-01
         -2   -1    0    0    0  501 -0.00000000000E+00  0.00000000000E+00  0.25194275311E+04  0.25194275311E+04  0.00000000000E+00 0.  1.
          2   -1    0    0  501    0  0.00000000000E+00 -0.00000000000E+00 -0.29057946882E+04  0.29057946882E+04  0.00000000000E+00 0. -1.
         23    2    1    2    0    0 -0.39514833717E+03 -0.21994030913E+04 -0.17213337126E+04  0.28222139844E+04  0.91574325137E+02 0.  0.
         13    1    3    3    0    0 -0.18866275629E+03 -0.12386049444E+04 -0.10035810774E+04  0.16052759335E+04  0.00000000000E+00 0.  1.
        -13    1    3    3    0    0 -0.20648558088E+03 -0.96079814693E+03 -0.71775263520E+03  0.12169380508E+04  0.00000000000E+00 0. -1.
         22    1    1    2    0    0  0.39514833717E+03  0.21994030913E+04  0.13349665555E+04  0.26030082349E+04  0.00000000000E+00 0.  1.
<mgrwt>
<rscale>  0 0.54114468E+04</rscale>
<asrwt>0</asrwt>
<pdfrwt beam="1">  1        2 0.44704534E+00 0.54114468E+04</pdfrwt>
<pdfrwt beam="2">  1       -2 0.38760424E+00 0.54114468E+04</pdfrwt>
<totfact> 0.12557522E-02</totfact>
</mgrwt>
</event>
<event>
 6    1  0.9562506E-007  0.2054104E+04  0.7818608E-02  0.8581735E-01
         -2   -1    0    0    0  501 -0.00000000000E+00  0.00000000000E+00  0.14432503725E+04  0.14432503725E+04  0.00000000000E+00 0.  1.
          2   -1    0    0  501    0  0.00000000000E+00 -0.00000000000E+00 -0.73087506391E+03  0.73087506391E+03  0.00000000000E+00 0. -1.
         23    2    1    2    0    0  0.45139353768E+03 -0.21410445084E+03  0.13041318585E+04  0.13996755309E+04  0.93460396226E+02 0.  0.
         13    1    3    3    0    0  0.31372974248E+03 -0.15715112983E+03  0.79057549135E+03  0.86494649340E+03  0.00000000000E+00 0.  1.
        -13    1    3    3    0    0  0.13766379520E+03 -0.56953321003E+02  0.51355636714E+03  0.53472903747E+03  0.00000000000E+00 0. -1.
         22    1    1    2    0    0 -0.45139353768E+03  0.21410445084E+03 -0.59175654994E+03  0.77444990549E+03  0.00000000000E+00 0. -1.
<mgrwt>
<rscale>  0 0.20541039E+04</rscale>
<asrwt>0</asrwt>
<pdfrwt beam="1">  1        2 0.11244232E+00 0.20541039E+04</pdfrwt>
<pdfrwt beam="2">  1       -2 0.22203852E+00 0.20541039E+04</pdfrwt>
<totfact> 0.34393983E+00</totfact>
</mgrwt>
</event>
<event>
 6    1  0.9562506E-007  0.3066549E+04  0.7818608E-02  0.8224979E-01
         -2   -1    0    0    0  501 -0.00000000000E+00  0.00000000000E+00  0.79492049960E+03  0.79492049960E+03  0.00000000000E+00 0.  1.
          2   -1    0    0  501    0  0.00000000000E+00 -0.00000000000E+00 -0.29574412036E+04  0.29574412036E+04  0.00000000000E+00 0. -1.
         23    2    1    2    0    0  0.45554128504E+03 -0.14174934228E+04 -0.15233475632E+04  0.21320692080E+04  0.91246058432E+02 0.  0.
         13    1    3    3    0    0  0.30775408798E+03 -0.81102445033E+03 -0.89120867733E+03  0.12436744527E+04  0.00000000000E+00 0.  1.
        -13    1    3    3    0    0  0.14778719705E+03 -0.60646897249E+03 -0.63213888587E+03  0.88839475530E+03  0.00000000000E+00 0. -1.
         22    1    1    2    0    0 -0.45554128504E+03  0.14174934228E+04 -0.63917314078E+03  0.16202924952E+04  0.00000000000E+00 0. -1.
<mgrwt>
<rscale>  0 0.30665490E+04</rscale>
<asrwt>0</asrwt>
<pdfrwt beam="1">  1        2 0.45499095E+00 0.30665490E+04</pdfrwt>
<pdfrwt beam="2">  1       -2 0.12229546E+00 0.30665490E+04</pdfrwt>
<totfact> 0.79772193E-01</totfact>
</mgrwt>
</event>
<event>
 6    1  0.9562506E-007  0.3284826E+04  0.7818608E-02  0.8166767E-01
         -2   -1    0    0    0  501 -0.00000000000E+00  0.00000000000E+00  0.71009233347E+03  0.71009233347E+03  0.00000000000E+00 0.  1.
          2   -1    0    0  501    0  0.00000000000E+00 -0.00000000000E+00 -0.37988308466E+04  0.37988308466E+04  0.00000000000E+00 0. -1.
         23    2    1    2    0    0 -0.10723424986E+04  0.21307740619E+02 -0.32506354308E+04  0.34242190425E+04  0.90955445694E+02 0.  0.
         11    1    3    3    0    0 -0.47195340627E+03 -0.16697991712E+02 -0.15477382381E+04  0.16181818483E+04  0.00000000000E+00 0. -1.
        -11    1    3    3    0    0 -0.60038909230E+03  0.38005732331E+02 -0.17028971927E+04  0.18060371942E+04  0.00000000000E+00 0.  1.
         22    1    1    2    0    0  0.10723424986E+04 -0.21307740619E+02  0.16189691769E+03  0.10847041375E+04  0.00000000000E+00 0.  1.
<mgrwt>
<rscale>  0 0.32848261E+04</rscale>
<asrwt>0</asrwt>
<pdfrwt beam="1">  1        2 0.58443551E+00 0.32848261E+04</pdfrwt>
<pdfrwt beam="2">  1       -2 0.10924497E+00 0.32848261E+04</pdfrwt>
<totfact> 0.27444618E-01</totfact>
</mgrwt>
</event>
<event>
 6    1  0.9765789E-007  0.4352819E+04  0.7818608E-02  0.7936923E-01
          2   -1    0    0  501    0  0.00000000000E+00  0.00000000000E+00  0.23326381751E+04  0.23326381751E+04  0.00000000000E+00 0. -1.
         -2   -1    0    0    0  501 -0.00000000000E+00 -0.00000000000E+00 -0.20306445538E+04  0.20306445538E+04  0.00000000000E+00 0.  1.
         23    2    1    2    0    0  0.17980313435E+04 -0.29323645531E+03 -0.10407887739E+04  0.21001060033E+04  0.91102262137E+02 0.  0.
         13    1    3    3    0    0  0.81388108658E+03 -0.17536108950E+03 -0.49472597705E+03  0.96845636307E+03  0.00000000000E+00 0.  1.
        -13    1    3    3    0    0  0.98415025694E+03 -0.11787536581E+03 -0.54606279680E+03  0.11316496402E+04  0.00000000000E+00 0. -1.
         22    1    1    2    0    0 -0.17980313435E+04  0.29323645531E+03  0.13427823951E+04  0.22631767257E+04  0.00000000000E+00 0. -1.
<mgrwt>
<rscale>  0 0.43528193E+04</rscale>
<asrwt>0</asrwt>
<pdfrwt beam="1">  1        2 0.35886741E+00 0.43528193E+04</pdfrwt>
<pdfrwt beam="2">  1       -2 0.31240685E+00 0.43528193E+04</pdfrwt>
<totfact> 0.88833456E-02</totfact>
</mgrwt>
</event>
<event>
 6    1  0.9562506E-007  0.1716275E+04  0.7818608E-02  0.8752136E-01
          2   -1    0    0  501    0  0.00000000000E+00  0.00000000000E+00  0.74706418745E+03  0.74706418745E+03  0.00000000000E+00 0. -1.
         -2   -1    0    0    0  501 -0.00000000000E+00 -0.00000000000E+00 -0.98572470239E+03  0.98572470239E+03  0.00000000000E+00 0.  1.
         23    2    1    2    0    0  0.48789527456E+03 -0.51487817044E+03 -0.60292569324E+03  0.93539911723E+03  0.91163521257E+02 0.  0.
         11    1    3    3    0    0  0.33630548118E+03 -0.29099171149E+03 -0.36915772416E+03  0.57797489403E+03  0.00000000000E+00 0. -1.
        -11    1    3    3    0    0  0.15158979339E+03 -0.22388645895E+03 -0.23376796908E+03  0.35742422320E+03  0.00000000000E+00 0.  1.
         22    1    1    2    0    0 -0.48789527456E+03  0.51487817044E+03  0.36426517830E+03  0.79738977261E+03  0.00000000000E+00 0. -1.
<mgrwt>
<rscale>  0 0.17162746E+04</rscale>
<asrwt>0</asrwt>
<pdfrwt beam="1">  1        2 0.11493295E+00 0.17162746E+04</pdfrwt>
<pdfrwt beam="2">  1       -2 0.15164995E+00 0.17162746E+04</pdfrwt>
<totfact> 0.10419462E+01</totfact>
</mgrwt>
</event>
<event>
 6    1  0.9562506E-007  0.3435273E+04  0.7818608E-02  0.8129303E-01
          2   -1    0    0  501    0  0.00000000000E+00  0.00000000000E+00  0.27600030439E+04  0.27600030439E+04  0.00000000000E+00 0. -1.
         -2   -1    0    0    0  501 -0.00000000000E+00 -0.00000000000E+00 -0.10689391765E+04  0.10689391765E+04  0.00000000000E+00 0.  1.
         23    2    1    2    0    0  0.24309727235E+03  0.16991206086E+04  0.85653731085E+03  0.19203978274E+04  0.90357757656E+02 0.  0.
         11    1    3    3    0    0  0.20670273451E+03  0.11876917284E+04  0.57896730016E+03  0.13373633750E+04  0.00000000000E+00 0. -1.
        -11    1    3    3    0    0  0.36394537841E+02  0.51142888022E+03  0.27757001069E+03  0.58303445245E+03  0.00000000000E+00 0.  1.
         22    1    1    2    0    0 -0.24309727235E+03 -0.16991206086E+04  0.83452655657E+03  0.19085443930E+04  0.00000000000E+00 0. -1.
<mgrwt>
<rscale>  0 0.34352731E+04</rscale>
<asrwt>0</asrwt>
<pdfrwt beam="1">  1        2 0.42461585E+00 0.34352731E+04</pdfrwt>
<pdfrwt beam="2">  1       -2 0.16445218E+00 0.34352731E+04</pdfrwt>
<totfact> 0.47164265E-01</totfact>
</mgrwt>
</event>
<event>
 6    1  0.9562506E-007  0.2926564E+04  0.7818608E-02  0.8265018E-01
         -2   -1    0    0    0  501 -0.00000000000E+00  0.00000000000E+00  0.14133896963E+04  0.14133896963E+04  0.00000000000E+00 0.  1.
          2   -1    0    0  501    0  0.00000000000E+00 -0.00000000000E+00 -0.15149352123E+04  0.15149352123E+04  0.00000000000E+00 0. -1.
         23    2    1    2    0    0 -0.11200424795E+04  0.92730515583E+03  0.99627315523E+02  0.14603805922E+04  0.91628948752E+02 0.  0.
         11    1    3    3    0    0 -0.24455095359E+03  0.16472846775E+03 -0.24194469917E+01  0.29486690338E+03  0.00000000000E+00 0.  1.
        -11    1    3    3    0    0 -0.87549152593E+03  0.76257668808E+03  0.10204676251E+03  0.11655136889E+04  0.00000000000E+00 0. -1.
         22    1    1    2    0    0  0.11200424795E+04 -0.92730515583E+03 -0.20117283153E+03  0.14679443164E+04  0.00000000000E+00 0. -1.
<mgrwt>
<rscale>  0 0.29265637E+04</rscale>
<asrwt>0</asrwt>
<pdfrwt beam="1">  1        2 0.23306696E+00 0.29265637E+04</pdfrwt>
<pdfrwt beam="2">  1       -2 0.21744457E+00 0.29265637E+04</pdfrwt>
<totfact> 0.11001051E+00</totfact>
</mgrwt>
</event>
<event>
 6    1  0.9562506E-007  0.1944144E+04  0.7818608E-02  0.8633190E-01
         -1   -1    0    0    0  501 -0.00000000000E+00  0.00000000000E+00  0.54750437901E+03  0.54750437901E+03  0.00000000000E+00 0.  1.
          1   -1    0    0  501    0  0.00000000000E+00 -0.00000000000E+00 -0.17258740368E+04  0.17258740368E+04  0.00000000000E+00 0. -1.
         23    2    1    2    0    0 -0.92195779354E+03  0.11427693517E+03 -0.91639819329E+03  0.13081352137E+04  0.91469654191E+02 0.  0.
         13    1    3    3    0    0 -0.69492514542E+03  0.67512779341E+02 -0.63718066720E+03  0.94523972397E+03  0.00000000000E+00 0.  1.
        -13    1    3    3    0    0 -0.22703264812E+03  0.46764155831E+02 -0.27921752608E+03  0.36289548971E+03  0.00000000000E+00 0. -1.
         22    1    1    2    0    0  0.92195779354E+03 -0.11427693517E+03 -0.26197146446E+03  0.96524320208E+03  0.00000000000E+00 0.  1.
<mgrwt>
<rscale>  0 0.19441436E+04</rscale>
<asrwt>0</asrwt>
<pdfrwt beam="1">  1        1 0.26551908E+00 0.19441436E+04</pdfrwt>
<pdfrwt beam="2">  1       -1 0.84231443E-01 0.19441436E+04</pdfrwt>
<totfact> 0.59553230E+00</totfact>
</mgrwt>
</event>
<event>
 6    1  0.9562506E-007  0.2043270E+04  0.7818608E-02  0.8586654E-01
          2   -1    0    0  501    0  0.00000000000E+00  0.00000000000E+00  0.28736151460E+03  0.28736151460E+03  0.00000000000E+00 0. -1.
         -2   -1    0    0    0  501 -0.00000000000E+00 -0.00000000000E+00 -0.36321421275E+04  0.36321421275E+04  0.00000000000E+00 0.  1.
         23    2    1    2    0    0 -0.70998196166E+03 -0.69999806951E+03 -0.12663068889E+04  0.16142651068E+04  0.90813077236E+02 0.  0.
         11    1    3    3    0    0 -0.43149474818E+03 -0.45278657591E+03 -0.85616136033E+03  0.10602903734E+04  0.00000000000E+00 0. -1.
        -11    1    3    3    0    0 -0.27848721348E+03 -0.24721149360E+03 -0.41014552859E+03  0.55397473341E+03  0.00000000000E+00 0.  1.
         22    1    1    2    0    0  0.70998196166E+03  0.69999806951E+03 -0.20784737240E+04  0.23052385353E+04  0.00000000000E+00 0. -1.
<mgrwt>
<rscale>  0 0.20432698E+04</rscale>
<asrwt>0</asrwt>
<pdfrwt beam="1">  1        2 0.44209460E-01 0.20432698E+04</pdfrwt>
<pdfrwt beam="2">  1       -2 0.55879114E+00 0.20432698E+04</pdfrwt>
<totfact> 0.81031867E-02</totfact>
</mgrwt>
</event>
<event>
 6    1  0.9562506E-007  0.3128937E+04  0.7818608E-02  0.8207841E-01
          2   -1    0    0  501    0  0.00000000000E+00  0.00000000000E+00  0.12758295319E+04  0.12758295319E+04  0.00000000000E+00 0. -1.
         -2   -1    0    0    0  501 -0.00000000000E+00 -0.00000000000E+00 -0.19184084257E+04  0.19184084257E+04  0.00000000000E+00 0.  1.
         23    2    1    2    0    0  0.92929607576E+03  0.98157336231E+03 -0.11232859712E+04  0.17596102163E+04  0.85902724280E+02 0.  0.
         13    1    3    3    0    0  0.40772920707E+03  0.41485356690E+03 -0.53703727634E+03  0.79167899078E+03  0.00000000000E+00 0. -1.
        -13    1    3    3    0    0  0.52156686868E+03  0.56671979541E+03 -0.58624869489E+03  0.96793122549E+03  0.00000000000E+00 0.  1.
         22    1    1    2    0    0 -0.92929607576E+03 -0.98157336231E+03  0.48070707737E+03  0.14346277414E+04  0.00000000000E+00 0.  1.
<mgrwt>
<rscale>  0 0.31289373E+04</rscale>
<asrwt>0</asrwt>
<pdfrwt beam="1">  1        2 0.19628147E+00 0.31289373E+04</pdfrwt>
<pdfrwt beam="2">  1       -2 0.29513976E+00 0.31289373E+04</pdfrwt>
<totfact> 0.49232405E-01</totfact>
</mgrwt>
</event>
<event>
 6    1  0.9562506E-007  0.5243443E+04  0.7818608E-02  0.7792013E-01
         -2   -1    0    0    0  501 -0.00000000000E+00  0.00000000000E+00  0.22537426546E+04  0.22537426546E+04  0.00000000000E+00 0.  1.
          2   -1    0    0  501    0  0.00000000000E+00 -0.00000000000E+00 -0.30497814418E+04  0.30497814418E+04  0.00000000000E+00 0. -1.
         23    2    1    2    0    0  0.45084597560E+03  0.22901699562E+04  0.80744468745E+03  0.24716872764E+04  0.95553894733E+02 0.  0.
         13    1    3    3    0    0  0.31477086257E+02  0.21379286562E+03  0.10240882341E+03  0.23913545003E+03  0.00000000000E+00 0. -1.
        -13    1    3    3    0    0  0.41936888934E+03  0.20763770906E+04  0.70503586405E+03  0.22325518263E+04  0.00000000000E+00 0.  1.
         22    1    1    2    0    0 -0.45084597560E+03 -0.22901699562E+04 -0.16034834746E+04  0.28318368201E+04  0.00000000000E+00 0. -1.
<mgrwt>
<rscale>  0 0.52434426E+04</rscale>
<asrwt>0</asrwt>
<pdfrwt beam="1">  1        2 0.46919715E+00 0.52434426E+04</pdfrwt>
<pdfrwt beam="2">  1       -2 0.34672964E+00 0.52434426E+04</pdfrwt>
<totfact> 0.18861879E-02</totfact>
</mgrwt>
</event>
<event>
 6    1  0.9562506E-007  0.6115238E+04  0.7818608E-02  0.7676276E-01
         -3   -1    0    0    0  501 -0.00000000000E+00  0.00000000000E+00  0.24934172453E+04  0.24934172453E+04  0.00000000000E+00 0.  1.
          3   -1    0    0  501    0  0.00000000000E+00 -0.00000000000E+00 -0.37494868321E+04  0.37494868321E+04  0.00000000000E+00 0. -1.
         23    2    1    2    0    0  0.63712911389E+03  0.79888366125E+03  0.23131123709E+04  0.25303297066E+04  0.89056002388E+02 0.  0.
         13    1    3    3    0    0  0.28155472628E+03  0.38655065620E+03  0.98533189207E+03  0.10952503875E+04  0.00000000000E+00 0.  1.
        -13    1    3    3    0    0  0.35557438761E+03  0.41233300505E+03  0.13277804788E+04  0.14350793191E+04  0.00000000000E+00 0. -1.
         22    1    1    2    0    0 -0.63712911389E+03 -0.79888366125E+03 -0.35691819577E+04  0.37125743709E+04  0.00000000000E+00 0. -1.
<mgrwt>
<rscale>  0 0.61152384E+04</rscale>
<asrwt>0</asrwt>
<pdfrwt beam="1">  1        3 0.57684413E+00 0.61152384E+04</pdfrwt>
<pdfrwt beam="2">  1       -3 0.38360265E+00 0.61152384E+04</pdfrwt>
<totfact> 0.32542003E-05</totfact>
</mgrwt>
</event>
<event>
 6    1  0.9562506E-007  0.8342543E+03  0.7818608E-02  0.9511717E-01
          2   -1    0    0  501    0  0.00000000000E+00  0.00000000000E+00  0.16057286458E+04  0.16057286458E+04  0.00000000000E+00 0. -1.
         -2   -1    0    0    0  501 -0.00000000000E+00 -0.00000000000E+00 -0.10835893731E+03  0.10835893731E+03  0.00000000000E+00 0.  1.
         23    2    1    2    0    0  0.28563427660E+03 -0.21270275088E+03  0.33230341161E+03  0.49580646764E+03  0.92569410619E+02 0.  0.
         11    1    3    3    0    0  0.84857697678E+02 -0.95606304657E+02  0.71531594524E+02  0.14648605176E+03  0.00000000000E+00 0. -1.
        -11    1    3    3    0    0  0.20077657892E+03 -0.11709644623E+03  0.26077181709E+03  0.34932041588E+03  0.00000000000E+00 0.  1.
         22    1    1    2    0    0 -0.28563427660E+03  0.21270275088E+03  0.11650662969E+04  0.12182811155E+04  0.00000000000E+00 0. -1.
<mgrwt>
<rscale>  0 0.83425428E+03</rscale>
<asrwt>0</asrwt>
<pdfrwt beam="1">  1        2 0.24703516E+00 0.83425428E+03</pdfrwt>
<pdfrwt beam="2">  1       -2 0.16670607E-01 0.83425428E+03</pdfrwt>
<totfact> 0.32702950E+02</totfact>
</mgrwt>
</event>
<event>
 6    1  0.9562506E-007  0.1020239E+04  0.7818608E-02  0.9286621E-01
         -1   -1    0    0    0  501 -0.00000000000E+00  0.00000000000E+00  0.60867385821E+03  0.60867385821E+03  0.00000000000E+00 0.  1.
          1   -1    0    0  501    0  0.00000000000E+00 -0.00000000000E+00 -0.42752273357E+03  0.42752273357E+03  0.00000000000E+00 0. -1.
         23    2    1    2    0    0 -0.19142422722E+03  0.34202785253E+03  0.41633224253E+03  0.57910092905E+03  0.91646403054E+02 0.  0.
         11    1    3    3    0    0 -0.16338186074E+03  0.30733950293E+03  0.31943506168E+03  0.47242984782E+03  0.00000000000E+00 0. -1.
        -11    1    3    3    0    0 -0.28042366472E+02  0.34688349597E+02  0.96897180848E+02  0.10667108123E+03  0.00000000000E+00 0.  1.
         22    1    1    2    0    0  0.19142422722E+03 -0.34202785253E+03 -0.23518111789E+03  0.45709566272E+03  0.00000000000E+00 0. -1.
<mgrwt>
<rscale>  0 0.10202390E+04</rscale>
<asrwt>0</asrwt>
<pdfrwt beam="1">  1        1 0.65772728E-01 0.10202390E+04</pdfrwt>
<pdfrwt beam="2">  1       -1 0.93642132E-01 0.10202390E+04</pdfrwt>
<totfact> 0.60813248E+01</totfact>
</mgrwt>
</event>
<event>
 6    1  0.9562506E-007  0.1294742E+04  0.7818608E-02  0.9033746E-01
          1   -1    0    0  501    0  0.00000000000E+00  0.00000000000E+00  0.95748332259E+03  0.95748332259E+03  0.00000000000E+00 0. -1.
         -1   -1    0    0    0  501 -0.00000000000E+00 -0.00000000000E+00 -0.43769844818E+03  0.43769844818E+03  0.00000000000E+00 0.  1.
         23    2    1    2    0    0 -0.55534127030E+03  0.36316130157E+02  0.60974984668E+03  0.83142962307E+03  0.98780335993E+02 0.  0.
         13    1    3    3    0    0 -0.39872503545E+03 -0.13335265795E+02  0.39937222926E+03  0.56449770656E+03  0.00000000000E+00 0.  1.
        -13    1    3    3    0    0 -0.15661623485E+03  0.49651395952E+02  0.21037761741E+03  0.26693191650E+03  0.00000000000E+00 0. -1.
         22    1    1    2    0    0  0.55534127030E+03 -0.36316130157E+02 -0.89964972265E+02  0.56375214771E+03  0.00000000000E+00 0.  1.
<mgrwt>
<rscale>  0 0.12947416E+04</rscale>
<asrwt>0</asrwt>
<pdfrwt beam="1">  1        1 0.14730513E+00 0.12947416E+04</pdfrwt>
<pdfrwt beam="2">  1       -1 0.67338223E-01 0.12947416E+04</pdfrwt>
<totfact> 0.35897882E+01</totfact>
</mgrwt>
</event>
<event>
 6    1  0.9562506E-007  0.9467916E+03  0.7818608E-02  0.9368909E-01
         -1   -1    0    0    0  501 -0.00000000000E+00  0.00000000000E+00  0.13437774833E+03  0.13437774833E+03  0.00000000000E+00 0.  1.
          1   -1    0    0  501    0  0.00000000000E+00 -0.00000000000E+00 -0.16677134387E+04  0.16677134387E+04  0.00000000000E+00 0. -1.
         23    2    1    2    0    0  0.33132492852E+03  0.29860058898E+03 -0.10497336024E+04  0.11442085991E+04  0.91291632975E+02 0.  0.
         11    1    3    3    0    0  0.32022391041E+02 -0.64204697129E+00 -0.72140969716E+02  0.78931395933E+02  0.00000000000E+00 0.  1.
        -11    1    3    3    0    0  0.29930253748E+03  0.29924263595E+03 -0.97759263273E+03  0.10652772032E+04  0.00000000000E+00 0. -1.
         22    1    1    2    0    0 -0.33132492852E+03 -0.29860058898E+03 -0.48360208794E+03  0.65788258790E+03  0.00000000000E+00 0. -1.
<mgrwt>
<rscale>  0 0.94679159E+03</rscale>
<asrwt>0</asrwt>
<pdfrwt beam="1">  1        1 0.25657129E+00 0.94679159E+03</pdfrwt>
<pdfrwt beam="2">  1       -1 0.20673500E-01 0.94679159E+03</pdfrwt>
<totfact> 0.97744096E+01</totfact>
</mgrwt>
</event>
<event>
 6    1  0.9562506E-007  0.2681254E+04  0.7818608E-02  0.8341113E-01
          2   -1    0    0  501    0  0.00000000000E+00  0.00000000000E+00  0.15929521107E+04  0.15929521107E+04  0.00000000000E+00 0. -1.
         -2   -1    0    0    0  501 -0.00000000000E+00 -0.00000000000E+00 -0.11282702136E+04  0.11282702136E+04  0.00000000000E+00 0.  1.
         23    2    1    2    0    0 -0.12676883308E+04 -0.13740800789E+03  0.64743768488E+03  0.14330785657E+04  0.92865252297E+02 0.  0.
         13    1    3    3    0    0 -0.64105355796E+03 -0.10362139444E+03  0.29372868685E+03  0.71271565090E+03  0.00000000000E+00 0.  1.
        -13    1    3    3    0    0 -0.62663477281E+03 -0.33786613453E+02  0.35370899803E+03  0.72036291481E+03  0.00000000000E+00 0. -1.
         22    1    1    2    0    0  0.12676883308E+04  0.13740800789E+03 -0.18275578780E+03  0.12881437585E+04  0.00000000000E+00 0.  1.
<mgrwt>
<rscale>  0 0.26812538E+04</rscale>
<asrwt>0</asrwt>
<pdfrwt beam="1">  1        2 0.24506955E+00 0.26812538E+04</pdfrwt>
<pdfrwt beam="2">  1       -2 0.17358003E+00 0.26812538E+04</pdfrwt>
<totfact> 0.19883598E+00</totfact>
</mgrwt>
</event>
<event>
 6    1  0.9562506E-007  0.1714810E+04  0.7818608E-02  0.8752962E-01
         -2   -1    0    0    0  501 -0.00000000000E+00  0.00000000000E+00  0.81872200655E+03  0.81872200655E+03  0.00000000000E+00 0.  1.
          2   -1    0    0  501    0  0.00000000000E+00 -0.00000000000E+00 -0.89791618244E+03  0.89791618244E+03  0.00000000000E+00 0. -1.
         23    2    1    2    0    0 -0.29505521970E+03  0.27411238082E+03  0.71532202588E+03  0.82587942543E+03  0.90532009014E+02 0.  0.
         11    1    3    3    0    0 -0.64605176611E+02  0.30724333207E+02  0.78308920565E+02  0.10606649111E+03  0.00000000000E+00 0.  1.
        -11    1    3    3    0    0 -0.23045004309E+03  0.24338804762E+03  0.63701310531E+03  0.71981293433E+03  0.00000000000E+00 0. -1.
         22    1    1    2    0    0  0.29505521970E+03 -0.27411238082E+03 -0.79451620177E+03  0.89075876356E+03  0.00000000000E+00 0. -1.
<mgrwt>
<rscale>  0 0.17148105E+04</rscale>
<asrwt>0</asrwt>
<pdfrwt beam="1">  1        2 0.13814095E+00 0.17148105E+04</pdfrwt>
<pdfrwt beam="2">  1       -2 0.12595723E+00 0.17148105E+04</pdfrwt>
<totfact> 0.13150649E+01</totfact>
</mgrwt>
</event>
<event>
 6    1  0.9562506E-007  0.4366026E+04  0.7818608E-02  0.7934521E-01
         -2   -1    0    0    0  501 -0.00000000000E+00  0.00000000000E+00  0.12798502923E+04  0.12798502923E+04  0.00000000000E+00 0.  1.
          2   -1    0    0  501    0  0.00000000000E+00 -0.00000000000E+00 -0.37235178030E+04  0.37235178030E+04  0.00000000000E+00 0. -1.
         23    2    1    2    0    0 -0.15612375779E+04 -0.13582188432E+04 -0.20156227758E+04  0.28902084951E+04  0.91371607060E+02 0.  0.
         13    1    3    3    0    0 -0.39177627131E+03 -0.39335846525E+03 -0.52890259898E+03  0.76678386013E+03  0.00000000000E+00 0. -1.
        -13    1    3    3    0    0 -0.11694613066E+04 -0.96486037792E+03 -0.14867201768E+04  0.21234246350E+04  0.00000000000E+00 0.  1.
         22    1    1    2    0    0  0.15612375779E+04  0.13582188432E+04 -0.42804473492E+03  0.21131596002E+04  0.00000000000E+00 0. -1.
<mgrwt>
<rscale>  0 0.43660258E+04</rscale>
<asrwt>0</asrwt>
<pdfrwt beam="1">  1        2 0.57284889E+00 0.43660258E+04</pdfrwt>
<pdfrwt beam="2">  1       -2 0.19690004E+00 0.43660258E+04</pdfrwt>
<totfact> 0.59710495E-02</totfact>
</mgrwt>
</event>
<event>
 6    1  0.9562506E-007  0.2105940E+04  0.7818608E-02  0.8558631E-01
         -2   -1    0    0    0  501 -0.00000000000E+00  0.00000000000E+00  0.61527113580E+03  0.61527113580E+03  0.00000000000E+00 0.  1.
          2   -1    0    0  501    0  0.00000000000E+00 -0.00000000000E+00 -0.18020438818E+04  0.18020438818E+04  0.00000000000E+00 0. -1.
         23    2    1    2    0    0 -0.25219542454E+02 -0.33880731225E+03  0.54721033125E+03  0.65036178326E+03  0.90027119993E+02 0.  0.
         11    1    3    3    0    0 -0.44602401040E+02 -0.26232195487E+03  0.46924095535E+03  0.53943420022E+03  0.00000000000E+00 0. -1.
        -11    1    3    3    0    0  0.19382858586E+02 -0.76485357372E+02  0.77969375900E+02  0.11092758303E+03  0.00000000000E+00 0.  1.
         22    1    1    2    0    0  0.25219542454E+02  0.33880731225E+03 -0.17339830773E+04  0.17669532344E+04  0.00000000000E+00 0. -1.
<mgrwt>
<rscale>  0 0.21059398E+04</rscale>
<asrwt>0</asrwt>
<pdfrwt beam="1">  1        2 0.27723752E+00 0.21059398E+04</pdfrwt>
<pdfrwt beam="2">  1       -2 0.94657099E-01 0.21059398E+04</pdfrwt>
<totfact> 0.74508927E+00</totfact>
</mgrwt>
</event>
<event>
 6    1  0.9562506E-007  0.2731504E+04  0.7818608E-02  0.8324855E-01
          2   -1    0    0  501    0  0.00000000000E+00  0.00000000000E+00  0.11939892001E+04  0.11939892001E+04  0.00000000000E+00 0. -1.
         -2   -1    0    0    0  501 -0.00000000000E+00 -0.00000000000E+00 -0.15622236224E+04  0.15622236224E+04  0.00000000000E+00 0.  1.
         23    2    1    2    0    0  0.58598534085E+03  0.12215061947E+04 -0.34628486796E+03  0.14012449313E+04  0.90099635250E+02 0.  0.
         13    1    3    3    0    0  0.10333659849E+03  0.18033223936E+03 -0.83174839295E+02  0.22386652950E+03  0.00000000000E+00 0.  1.
        -13    1    3    3    0    0  0.48264874236E+03  0.10411739553E+04 -0.26311002866E+03  0.11773784018E+04  0.00000000000E+00 0. -1.
         22    1    1    2    0    0 -0.58598534085E+03 -0.12215061947E+04 -0.21949554335E+02  0.13549678913E+04  0.00000000000E+00 0. -1.
<mgrwt>
<rscale>  0 0.27315037E+04</rscale>
<asrwt>0</asrwt>
<pdfrwt beam="1">  1        2 0.18369065E+00 0.27315037E+04</pdfrwt>
<pdfrwt beam="2">  1       -2 0.24034210E+00 0.27315037E+04</pdfrwt>
<totfact> 0.12318941E+00</totfact>
</mgrwt>
</event>
<event>
 6    1  0.9562506E-007  0.1190878E+04  0.7818608E-02  0.9120878E-01
          2   -1    0    0  501    0  0.00000000000E+00  0.00000000000E+00  0.15034847218E+04  0.15034847218E+04  0.00000000000E+00 0. -1.
         -2   -1    0    0    0  501 -0.00000000000E+00 -0.00000000000E+00 -0.23581736249E+03  0.23581736249E+03  0.00000000000E+00 0.  1.
         23    2    1    2    0    0 -0.25615817085E+03 -0.15454707856E+03 -0.10809145488E+03  0.33139082188E+03  0.92920967629E+02 0.  0.
         13    1    3    3    0    0 -0.14582960798E+03 -0.60945511502E+02 -0.98834105344E+02  0.18641032781E+03  0.00000000000E+00 0. -1.
        -13    1    3    3    0    0 -0.11032856287E+03 -0.93601567055E+02 -0.92573495377E+01  0.14498049407E+03  0.00000000000E+00 0.  1.
         22    1    1    2    0    0  0.25615817085E+03  0.15454707856E+03  0.13757588142E+04  0.14079112624E+04  0.00000000000E+00 0. -1.
<mgrwt>
<rscale>  0 0.11908783E+04</rscale>
<asrwt>0</asrwt>
<pdfrwt beam="1">  1        2 0.23130534E+00 0.11908783E+04</pdfrwt>
<pdfrwt beam="2">  1       -2 0.36279595E-01 0.11908783E+04</pdfrwt>
<totfact> 0.89153587E+01</totfact>
</mgrwt>
</event>
<event>
 6    1  0.9562506E-007  0.4232557E+03  0.7818608E-02  0.1036012E+00
          1   -1    0    0  501    0  0.00000000000E+00  0.00000000000E+00  0.45113043721E+03  0.45113043721E+03  0.00000000000E+00 0. -1.
         -1   -1    0    0    0  501 -0.00000000000E+00 -0.00000000000E+00 -0.99275836030E+02  0.99275836030E+02  0.00000000000E+00 0.  1.
         23    2    1    2    0    0 -0.12828560538E+03 -0.73046908418E+02  0.36283068312E+03  0.40237410865E+03  0.92009626285E+02 0.  0.
         13    1    3    3    0    0 -0.27884467399E+02 -0.58397096539E+02  0.20292750513E+03  0.21299609561E+03  0.00000000000E+00 0.  1.
        -13    1    3    3    0    0 -0.10040113798E+03 -0.14649811879E+02  0.15990317799E+03  0.18937801305E+03  0.00000000000E+00 0. -1.
         22    1    1    2    0    0  0.12828560538E+03  0.73046908418E+02 -0.10976081937E+02  0.14803216458E+03  0.00000000000E+00 0.  1.
<mgrwt>
<rscale>  0 0.42325572E+03</rscale>
<asrwt>0</asrwt>
<pdfrwt beam="1">  1        1 0.69404681E-01 0.42325572E+03</pdfrwt>
<pdfrwt beam="2">  1       -1 0.15273206E-01 0.42325572E+03</pdfrwt>
<totfact> 0.16234196E+03</totfact>
</mgrwt>
</event>
<event>
 6    1  0.9562506E-007  0.9604310E+03  0.7818608E-02  0.9353041E-01
          1   -1    0    0  501    0  0.00000000000E+00  0.00000000000E+00  0.42726985431E+03  0.42726985431E+03  0.00000000000E+00 0. -1.
         -1   -1    0    0    0  501 -0.00000000000E+00 -0.00000000000E+00 -0.53972200068E+03  0.53972200068E+03  0.00000000000E+00 0.  1.
         23    2    1    2    0    0  0.36276564151E+02 -0.41587830845E+03  0.17083453609E+03  0.46249002051E+03  0.10218524261E+03 0.  0.
         13    1    3    3    0    0 -0.15214268081E+01 -0.16955277003E+03  0.18878831697E+02  0.17060734700E+03  0.00000000000E+00 0. -1.
        -13    1    3    3    0    0  0.37797990959E+02 -0.24632553841E+03  0.15195570439E+03  0.29188267351E+03  0.00000000000E+00 0.  1.
         22    1    1    2    0    0 -0.36276564151E+02  0.41587830845E+03 -0.28328668245E+03  0.50450183449E+03  0.00000000000E+00 0.  1.
<mgrwt>
<rscale>  0 0.96043103E+03</rscale>
<asrwt>0</asrwt>
<pdfrwt beam="1">  1        1 0.65733824E-01 0.96043103E+03</pdfrwt>
<pdfrwt beam="2">  1       -1 0.83034154E-01 0.96043103E+03</pdfrwt>
<totfact> 0.79528311E+01</totfact>
</mgrwt>
</event>
<event>
 6    1  0.9562506E-007  0.2356891E+04  0.7818608E-02  0.8455822E-01
          1   -1    0    0  501    0  0.00000000000E+00  0.00000000000E+00  0.11120161854E+04  0.11120161854E+04  0.00000000000E+00 0. -1.
         -1   -1    0    0    0  501 -0.00000000000E+00 -0.00000000000E+00 -0.12488428532E+04  0.12488428532E+04  0.00000000000E+00 0.  1.
         23    2    1    2    0    0 -0.10325456497E+04  0.56443106538E+03 -0.79846473794E+02  0.11827335407E+04  0.88035349060E+02 0.  0.
         13    1    3    3    0    0 -0.34332730976E+03  0.14344836404E+03 -0.12271036629E+02  0.37229242956E+03  0.00000000000E+00 0.  1.
        -13    1    3    3    0    0 -0.68921833992E+03  0.42098270134E+03 -0.67575437165E+02  0.81044111114E+03  0.00000000000E+00 0. -1.
         22    1    1    2    0    0  0.10325456497E+04 -0.56443106538E+03 -0.56980194013E+02  0.11781254979E+04  0.00000000000E+00 0. -1.
<mgrwt>
<rscale>  0 0.23568907E+04</rscale>
<asrwt>0</asrwt>
<pdfrwt beam="1">  1        1 0.17107941E+00 0.23568907E+04</pdfrwt>
<pdfrwt beam="2">  1       -1 0.19212967E+00 0.23568907E+04</pdfrwt>
<totfact> 0.19068747E+00</totfact>
</mgrwt>
</event>
<event>
 6    1  0.9562506E-007  0.1761748E+04  0.7818608E-02  0.8726910E-01
         -1   -1    0    0    0  501 -0.00000000000E+00  0.00000000000E+00  0.55625765530E+03  0.55625765530E+03  0.00000000000E+00 0.  1.
          1   -1    0    0  501    0  0.00000000000E+00 -0.00000000000E+00 -0.13949275836E+04  0.13949275836E+04  0.00000000000E+00 0. -1.
         23    2    1    2    0    0  0.54520794611E+03 -0.17998490930E+03  0.31584603653E+03  0.66178484137E+03  0.92488839379E+02 0.  0.
         11    1    3    3    0    0  0.43999178556E+03 -0.12478582727E+03  0.21245868982E+03  0.50428461104E+03  0.00000000000E+00 0.  1.
        -11    1    3    3    0    0  0.10521616054E+03 -0.55199082031E+02  0.10338734671E+03  0.15750023034E+03  0.00000000000E+00 0. -1.
         22    1    1    2    0    0 -0.54520794611E+03  0.17998490930E+03 -0.11545159648E+04  0.12894003975E+04  0.00000000000E+00 0. -1.
<mgrwt>
<rscale>  0 0.17617482E+04</rscale>
<asrwt>0</asrwt>
<pdfrwt beam="1">  1        1 0.21460424E+00 0.17617482E+04</pdfrwt>
<pdfrwt beam="2">  1       -1 0.85578103E-01 0.17617482E+04</pdfrwt>
<totfact> 0.98929471E+00</totfact>
</mgrwt>
</event>
<event>
 6    1  0.9562506E-007  0.8523831E+03  0.7818608E-02  0.9487144E-01
          1   -1    0    0  501    0  0.00000000000E+00  0.00000000000E+00  0.24188515964E+04  0.24188515964E+04  0.00000000000E+00 0. -1.
         -1   -1    0    0    0  501 -0.00000000000E+00 -0.00000000000E+00 -0.75093171955E+02  0.75093171955E+02  0.00000000000E+00 0.  1.
         23    2    1    2    0    0  0.13492253359E+03  0.34937605483E+03  0.61887808877E+03  0.72887256299E+03  0.89316328640E+02 0.  0.
         11    1    3    3    0    0  0.10356013447E+03  0.15025529328E+03  0.26839435978E+03  0.32455644651E+03  0.00000000000E+00 0.  1.
        -11    1    3    3    0    0  0.31362399125E+02  0.19912076155E+03  0.35048372899E+03  0.40431611648E+03  0.00000000000E+00 0. -1.
         22    1    1    2    0    0 -0.13492253359E+03 -0.34937605483E+03  0.17248803357E+04  0.17650722054E+04  0.00000000000E+00 0. -1.
<mgrwt>
<rscale>  0 0.85238310E+03</rscale>
<asrwt>0</asrwt>
<pdfrwt beam="1">  1        1 0.37213096E+00 0.85238310E+03</pdfrwt>
<pdfrwt beam="2">  1       -1 0.11552798E-01 0.85238310E+03</pdfrwt>
<totfact> 0.79590251E+01</totfact>
</mgrwt>
</event>
<event>
 6    1  0.9562506E-007  0.1411957E+04  0.7818608E-02  0.8945209E-01
         -1   -1    0    0    0  501 -0.00000000000E+00  0.00000000000E+00  0.33887946642E+03  0.33887946642E+03  0.00000000000E+00 0.  1.
          1   -1    0    0  501    0  0.00000000000E+00 -0.00000000000E+00 -0.14707464835E+04  0.14707464835E+04  0.00000000000E+00 0. -1.
         23    2    1    2    0    0  0.59537188047E+03 -0.36841543077E+03 -0.64795354561E+03  0.95852674677E+03  0.93445820258E+02 0.  0.
         13    1    3    3    0    0  0.29191847667E+02 -0.46238042715E+02 -0.57045946864E+02  0.79021266871E+02  0.00000000000E+00 0.  1.
        -13    1    3    3    0    0  0.56618003281E+03 -0.32217738806E+03 -0.59090759874E+03  0.87950547990E+03  0.00000000000E+00 0. -1.
         22    1    1    2    0    0 -0.59537188047E+03  0.36841543077E+03 -0.48391347143E+03  0.85109920310E+03  0.00000000000E+00 0.  1.
<mgrwt>
<rscale>  0 0.14119572E+04</rscale>
<asrwt>0</asrwt>
<pdfrwt beam="1">  1        1 0.22626869E+00 0.14119572E+04</pdfrwt>
<pdfrwt beam="2">  1       -1 0.52135302E-01 0.14119572E+04</pdfrwt>
<totfact> 0.24740189E+01</totfact>
</mgrwt>
</event>
<event>
 6    1  0.9562506E-007  0.1603290E+04  0.7818608E-02  0.8818529E-01
          1   -1    0    0  501    0  0.00000000000E+00  0.00000000000E+00  0.66605750461E+03  0.66605750461E+03  0.00000000000E+00 0. -1.
         -1   -1    0    0    0  501 -0.00000000000E+00 -0.00000000000E+00 -0.96483400028E+03  0.96483400028E+03  0.00000000000E+00 0.  1.
         23    2    1    2    0    0 -0.79757821533E+03 -0.11813492514E+02 -0.10121906000E+03  0.80912541373E+03  0.90377369213E+02 0.  0.
         13    1    3    3    0    0 -0.25656408481E+03  0.37511251318E+02 -0.23861447956E+02  0.26038738888E+03  0.00000000000E+00 0. -1.
        -13    1    3    3    0    0 -0.54101413052E+03 -0.49324743832E+02 -0.77357612040E+02  0.54873802485E+03  0.00000000000E+00 0.  1.
         22    1    1    2    0    0  0.79757821533E+03  0.11813492514E+02 -0.19755743568E+03  0.82176609115E+03  0.00000000000E+00 0. -1.
<mgrwt>
<rscale>  0 0.16032903E+04</rscale>
<asrwt>0</asrwt>
<pdfrwt beam="1">  1        1 0.10247039E+00 0.16032903E+04</pdfrwt>
<pdfrwt beam="2">  1       -1 0.14843600E+00 0.16032903E+04</pdfrwt>
<totfact> 0.10111537E+01</totfact>
</mgrwt>
</event>
<event>
 6    1  0.9562506E-007  0.3197005E+04  0.7818608E-02  0.8189609E-01
          1   -1    0    0  501    0  0.00000000000E+00  0.00000000000E+00  0.17165168088E+04  0.17165168088E+04  0.00000000000E+00 0. -1.
         -1   -1    0    0    0  501 -0.00000000000E+00 -0.00000000000E+00 -0.14886018027E+04  0.14886018027E+04  0.00000000000E+00 0.  1.
         23    2    1    2    0    0 -0.62626333072E+03  0.87945242733E+03 -0.10659780095E+04  0.15199475617E+04  0.91044726295E+02 0.  0.
         11    1    3    3    0    0 -0.13960815308E+03  0.17424536712E+03 -0.17364350978E+03  0.28284970012E+03  0.00000000000E+00 0. -1.
        -11    1    3    3    0    0 -0.48665517765E+03  0.70520706021E+03 -0.89233449971E+03  0.12370978616E+04  0.00000000000E+00 0.  1.
         22    1    1    2    0    0  0.62626333072E+03 -0.87945242733E+03  0.12938930156E+04  0.16851710498E+04  0.00000000000E+00 0. -1.
<mgrwt>
<rscale>  0 0.31970049E+04</rscale>
<asrwt>0</asrwt>
<pdfrwt beam="1">  1        1 0.26407951E+00 0.31970049E+04</pdfrwt>
<pdfrwt beam="2">  1       -1 0.22901566E+00 0.31970049E+04</pdfrwt>
<totfact> 0.37242132E-01</totfact>
</mgrwt>
</event>
<event>
 6    1  0.9562506E-007  0.1659098E+04  0.7818608E-02  0.8785042E-01
          1   -1    0    0  501    0  0.00000000000E+00  0.00000000000E+00  0.12066928894E+04  0.12066928894E+04  0.00000000000E+00 0. -1.
         -1   -1    0    0    0  501 -0.00000000000E+00 -0.00000000000E+00 -0.57027921451E+03  0.57027921451E+03  0.00000000000E+00 0.  1.
         23    2    1    2    0    0 -0.25772002538E+03  0.42682199073E+03  0.10258722216E+04  0.11442995323E+04  0.91711402704E+02 0.  0.
         11    1    3    3    0    0 -0.90058060113E+02  0.12211196958E+03  0.22741891769E+03  0.27338827961E+03  0.00000000000E+00 0. -1.
        -11    1    3    3    0    0 -0.16766196527E+03  0.30471002115E+03  0.79845330389E+03  0.87091125270E+03  0.00000000000E+00 0.  1.
         22    1    1    2    0    0  0.25772002538E+03 -0.42682199073E+03 -0.38945854669E+03  0.63267257159E+03  0.00000000000E+00 0.  1.
<mgrwt>
<rscale>  0 0.16590984E+04</rscale>
<asrwt>0</asrwt>
<pdfrwt beam="1">  1        1 0.18564506E+00 0.16590984E+04</pdfrwt>
<pdfrwt beam="2">  1       -1 0.87735264E-01 0.16590984E+04</pdfrwt>
<totfact> 0.12891513E+01</totfact>
</mgrwt>
</event>
<event>
 6    1  0.9562506E-007  0.3521420E+04  0.7818608E-02  0.8108732E-01
          2   -1    0    0  501    0  0.00000000000E+00  0.00000000000E+00  0.27187850905E+04  0.27187850905E+04  0.00000000000E+00 0. -1.
         -2   -1    0    0    0  501 -0.00000000000E+00 -0.00000000000E+00 -0.11402519162E+04  0.11402519162E+04  0.00000000000E+00 0.  1.
         23    2    1    2    0    0  0.59841233744E+03  0.10682013576E+04  0.21745838472E+04  0.24972632109E+04  0.91417560216E+02 0.  0.
         13    1    3    3    0    0  0.57367149354E+03  0.97473235514E+03  0.20117731231E+04  0.23079066804E+04  0.00000000000E+00 0.  1.
        -13    1    3    3    0    0  0.24740843900E+02  0.93469002480E+02  0.16281072406E+03  0.18935653052E+03  0.00000000000E+00 0. -1.
         22    1    1    2    0    0 -0.59841233744E+03 -0.10682013576E+04 -0.59605067289E+03  0.13617737957E+04  0.00000000000E+00 0.  1.
<mgrwt>
<rscale>  0 0.35214201E+04</rscale>
<asrwt>0</asrwt>
<pdfrwt beam="1">  1        2 0.41827463E+00 0.35214201E+04</pdfrwt>
<pdfrwt beam="2">  1       -2 0.17542337E+00 0.35214201E+04</pdfrwt>
<totfact> 0.41409321E-01</totfact>
</mgrwt>
</event>
<event>
 6    1  0.9562506E-007  0.1067231E+04  0.7818608E-02  0.9237733E-01
          2   -1    0    0  501    0  0.00000000000E+00  0.00000000000E+00  0.86433611910E+03  0.86433611910E+03  0.00000000000E+00 0. -1.
         -2   -1    0    0    0  501 -0.00000000000E+00 -0.00000000000E+00 -0.32943812982E+03  0.32943812982E+03  0.00000000000E+00 0.  1.
         23    2    1    2    0    0 -0.38629053406E+03 -0.34119783078E+03  0.13185126615E+03  0.53949372999E+03  0.89623612303E+02 0.  0.
         11    1    3    3    0    0 -0.18120452981E+03 -0.13592111268E+03  0.16098138805E+02  0.22708760549E+03  0.00000000000E+00 0. -1.
        -11    1    3    3    0    0 -0.20508600425E+03 -0.20527671810E+03  0.11575312735E+03  0.31240612450E+03  0.00000000000E+00 0.  1.
         22    1    1    2    0    0  0.38629053406E+03  0.34119783078E+03  0.40304672312E+03  0.65428051893E+03  0.00000000000E+00 0. -1.
<mgrwt>
<rscale>  0 0.10672306E+04</rscale>
<asrwt>0</asrwt>
<pdfrwt beam="1">  1        2 0.13297479E+00 0.10672306E+04</pdfrwt>
<pdfrwt beam="2">  1       -2 0.50682790E-01 0.10672306E+04</pdfrwt>
<totfact> 0.11356316E+02</totfact>
</mgrwt>
</event>
<event>
 6    1  0.9562506E-007  0.1094545E+04  0.7818608E-02  0.9210525E-01
          2   -1    0    0  501    0  0.00000000000E+00  0.00000000000E+00  0.21501070903E+04  0.21501070903E+04  0.00000000000E+00 0. -1.
         -2   -1    0    0    0  501 -0.00000000000E+00 -0.00000000000E+00 -0.13929879291E+03  0.13929879291E+03  0.00000000000E+00 0.  1.
         23    2    1    2    0    0 -0.23757805286E+03 -0.11502420070E+02  0.20345021079E+04  0.20503723426E+04  0.90842058934E+02 0.  0.
         13    1    3    3    0    0 -0.14542956813E+03  0.21336111585E+02  0.92968684946E+03  0.94123462910E+03  0.00000000000E+00 0. -1.
        -13    1    3    3    0    0 -0.92148484723E+02 -0.32838531656E+02  0.11048152584E+04  0.11091377135E+04  0.00000000000E+00 0.  1.
         22    1    1    2    0    0  0.23757805286E+03  0.11502420070E+02 -0.23693810473E+02  0.23903354058E+03  0.00000000000E+00 0.  1.
<mgrwt>
<rscale>  0 0.10945452E+04</rscale>
<asrwt>0</asrwt>
<pdfrwt beam="1">  1        2 0.33078568E+00 0.10945452E+04</pdfrwt>
<pdfrwt beam="2">  1       -2 0.21430585E-01 0.10945452E+04</pdfrwt>
<totfact> 0.10389470E+02</totfact>
</mgrwt>
</event>
<event>
 6    1  0.9562506E-007  0.1911872E+04  0.7818608E-02  0.8648969E-01
          2   -1    0    0  501    0  0.00000000000E+00  0.00000000000E+00  0.12148724623E+04  0.12148724623E+04  0.00000000000E+00 0. -1.
         -2   -1    0    0    0  501 -0.00000000000E+00 -0.00000000000E+00 -0.75218916817E+03  0.75218916817E+03  0.00000000000E+00 0.  1.
         23    2    1    2    0    0  0.42934378340E+03  0.72526134495E+03 -0.22740711116E+03  0.87776604602E+03  0.91755841885E+02 0.  0.
         11    1    3    3    0    0  0.16950675715E+03  0.20441365029E+03 -0.62822793008E+02  0.27288126441E+03  0.00000000000E+00 0. -1.
        -11    1    3    3    0    0  0.25983702624E+03  0.52084769466E+03 -0.16458431815E+03  0.60488478161E+03  0.00000000000E+00 0.  1.
         22    1    1    2    0    0 -0.42934378340E+03 -0.72526134495E+03  0.69009040529E+03  0.10892955844E+04  0.00000000000E+00 0. -1.
<mgrwt>
<rscale>  0 0.19118723E+04</rscale>
<asrwt>0</asrwt>
<pdfrwt beam="1">  1        2 0.18690346E+00 0.19118723E+04</pdfrwt>
<pdfrwt beam="2">  1       -2 0.11572141E+00 0.19118723E+04</pdfrwt>
<totfact> 0.10084772E+01</totfact>
</mgrwt>
</event>
<event>
 6    1  0.9562506E-007  0.3255141E+04  0.7818608E-02  0.8174405E-01
         -2   -1    0    0    0  501 -0.00000000000E+00  0.00000000000E+00  0.20708782926E+04  0.20708782926E+04  0.00000000000E+00 0.  1.
          2   -1    0    0  501    0  0.00000000000E+00 -0.00000000000E+00 -0.12791603322E+04  0.12791603322E+04  0.00000000000E+00 0. -1.
         23    2    1    2    0    0 -0.62693252651E+03 -0.39761755416E+03 -0.10930243726E+04  0.13243541049E+04  0.89818728540E+02 0.  0.
         11    1    3    3    0    0 -0.35032102378E+03 -0.22885290585E+03 -0.69328748642E+03  0.80978145882E+03  0.00000000000E+00 0.  1.
        -11    1    3    3    0    0 -0.27661150273E+03 -0.16876464831E+03 -0.39973688616E+03  0.51457264610E+03  0.00000000000E+00 0. -1.
         22    1    1    2    0    0  0.62693252651E+03  0.39761755416E+03  0.18847423330E+04  0.20256845198E+04  0.00000000000E+00 0.  1.
<mgrwt>
<rscale>  0 0.32551408E+04</rscale>
<asrwt>0</asrwt>
<pdfrwt beam="1">  1        2 0.19679390E+00 0.32551408E+04</pdfrwt>
<pdfrwt beam="2">  1       -2 0.31859666E+00 0.32551408E+04</pdfrwt>
<totfact> 0.34806841E-01</totfact>
</mgrwt>
</event>
<event>
 6    1  0.9562506E-007  0.5985463E+03  0.7818608E-02  0.9908427E-01
         -1   -1    0    0    0  501 -0.00000000000E+00  0.00000000000E+00  0.89222001521E+03  0.89222001521E+03  0.00000000000E+00 0.  1.
          1   -1    0    0  501    0  0.00000000000E+00 -0.00000000000E+00 -0.10038377855E+03  0.10038377855E+03  0.00000000000E+00 0. -1.
         23    2    1    2    0    0  0.12195762352E+03  0.16815442319E+03  0.74617220488E+03  0.77991910750E+03  0.91385354093E+02 0.  0.
         13    1    3    3    0    0  0.82107881779E+02  0.84416638647E+02  0.26641708457E+03  0.29128325747E+03  0.00000000000E+00 0. -1.
        -13    1    3    3    0    0  0.39849741737E+02  0.83737784538E+02  0.47975512030E+03  0.48863585003E+03  0.00000000000E+00 0.  1.
         22    1    1    2    0    0 -0.12195762352E+03 -0.16815442319E+03  0.45664031794E+02  0.21268468626E+03  0.00000000000E+00 0.  1.
<mgrwt>
<rscale>  0 0.59854629E+03</rscale>
<asrwt>0</asrwt>
<pdfrwt beam="1">  1        1 0.15443659E-01 0.59854629E+03</pdfrwt>
<pdfrwt beam="2">  1       -1 0.13726461E+00 0.59854629E+03</pdfrwt>
<totfact> 0.16723907E+02</totfact>
</mgrwt>
</event>
<event>
 6    1  0.9562506E-007  0.3085988E+04  0.7818608E-02  0.8219594E-01
          2   -1    0    0  501    0  0.00000000000E+00  0.00000000000E+00  0.30545128050E+04  0.30545128050E+04  0.00000000000E+00 0. -1.
         -2   -1    0    0    0  501 -0.00000000000E+00 -0.00000000000E+00 -0.77944664531E+03  0.77944664531E+03  0.00000000000E+00 0.  1.
         23    2    1    2    0    0 -0.97953253292E+03  0.11899168409E+04  0.11178003376E+04  0.19066166540E+04  0.10160413063E+03 0.  0.
         13    1    3    3    0    0 -0.19548579386E+03  0.17744187714E+03  0.19300926625E+03  0.32703653041E+03  0.00000000000E+00 0.  1.
        -13    1    3    3    0    0 -0.78404673906E+03  0.10124749638E+04  0.92479107135E+03  0.15795801236E+04  0.00000000000E+00 0. -1.
         22    1    1    2    0    0  0.97953253292E+03 -0.11899168409E+04  0.11572658221E+04  0.19273427962E+04  0.00000000000E+00 0. -1.
<mgrwt>
<rscale>  0 0.30859875E+04</rscale>
<asrwt>0</asrwt>
<pdfrwt beam="1">  1        2 0.46992504E+00 0.30859875E+04</pdfrwt>
<pdfrwt beam="2">  1       -2 0.11991487E+00 0.30859875E+04</pdfrwt>
<totfact> 0.72683448E-01</totfact>
</mgrwt>
</event>
<event>
 6    1  0.9562506E-007  0.3422704E+04  0.7818608E-02  0.8132356E-01
         -2   -1    0    0    0  501 -0.00000000000E+00  0.00000000000E+00  0.17426491640E+04  0.17426491640E+04  0.00000000000E+00 0.  1.
          2   -1    0    0  501    0  0.00000000000E+00 -0.00000000000E+00 -0.16806170930E+04  0.16806170930E+04  0.00000000000E+00 0. -1.
         23    2    1    2    0    0 -0.82994186567E+03 -0.11677845743E+04 -0.90278176891E+03  0.16960169820E+04  0.94521789917E+02 0.  0.
         11    1    3    3    0    0 -0.23733575010E+03 -0.26854773080E+03 -0.24373106400E+03  0.43341778177E+03  0.00000000000E+00 0. -1.
        -11    1    3    3    0    0 -0.59260611556E+03 -0.89923684346E+03 -0.65905070491E+03  0.12625992003E+04  0.00000000000E+00 0.  1.
         22    1    1    2    0    0  0.82994186567E+03  0.11677845743E+04  0.96481383986E+03  0.17272492750E+04  0.00000000000E+00 0.  1.
<mgrwt>
<rscale>  0 0.34227042E+04</rscale>
<asrwt>0</asrwt>
<pdfrwt beam="1">  1        2 0.25855648E+00 0.34227042E+04</pdfrwt>
<pdfrwt beam="2">  1       -2 0.26809987E+00 0.34227042E+04</pdfrwt>
<totfact> 0.41385041E-01</totfact>
</mgrwt>
</event>
<event>
 6    1  0.9562506E-007  0.1512642E+04  0.7818608E-02  0.8876090E-01
          1   -1    0    0  501    0  0.00000000000E+00  0.00000000000E+00  0.20114007848E+04  0.20114007848E+04  0.00000000000E+00 0. -1.
         -1   -1    0    0    0  501 -0.00000000000E+00 -0.00000000000E+00 -0.28438941888E+03  0.28438941888E+03  0.00000000000E+00 0.  1.
         23    2    1    2    0    0 -0.46548132985E+03  0.59205553521E+03  0.82454538724E+03  0.11203551915E+04  0.90100134750E+02 0.  0.
         13    1    3    3    0    0 -0.14100113018E+03  0.11802101298E+03  0.21020347705E+03  0.27927724573E+03  0.00000000000E+00 0. -1.
        -13    1    3    3    0    0 -0.32448019966E+03  0.47403452223E+03  0.61434191020E+03  0.84107794577E+03  0.00000000000E+00 0.  1.
         22    1    1    2    0    0  0.46548132985E+03 -0.59205553521E+03  0.90246597867E+03  0.11754350122E+04  0.00000000000E+00 0. -1.
<mgrwt>
<rscale>  0 0.15126415E+04</rscale>
<asrwt>0</asrwt>
<pdfrwt beam="1">  1        1 0.30944627E+00 0.15126415E+04</pdfrwt>
<pdfrwt beam="2">  1       -1 0.43752220E-01 0.15126415E+04</pdfrwt>
<totfact> 0.14609660E+01</totfact>
</mgrwt>
</event>
<event>
 6    1  0.9562506E-007  0.1200182E+04  0.7818608E-02  0.9112697E-01
          1   -1    0    0  501    0  0.00000000000E+00  0.00000000000E+00  0.18882212347E+04  0.18882212347E+04  0.00000000000E+00 0. -1.
         -1   -1    0    0    0  501 -0.00000000000E+00 -0.00000000000E+00 -0.19071343117E+03  0.19071343117E+03  0.00000000000E+00 0.  1.
         23    2    1    2    0    0  0.33278082520E+03 -0.13946461095E+03  0.16769302232E+04  0.17175250753E+04  0.87200662580E+02 0.  0.
         11    1    3    3    0    0  0.16924860641E+03 -0.11650848511E+03  0.88084246514E+03  0.90449033509E+03  0.00000000000E+00 0. -1.
        -11    1    3    3    0    0  0.16353221878E+03 -0.22956125840E+02  0.79608775804E+03  0.81303474021E+03  0.00000000000E+00 0.  1.
         22    1    1    2    0    0 -0.33278082520E+03  0.13946461095E+03  0.20577580319E+02  0.36140959055E+03  0.00000000000E+00 0.  1.
<mgrwt>
<rscale>  0 0.12001819E+04</rscale>
<asrwt>0</asrwt>
<pdfrwt beam="1">  1        1 0.29049556E+00 0.12001819E+04</pdfrwt>
<pdfrwt beam="2">  1       -1 0.29340529E-01 0.12001819E+04</pdfrwt>
<totfact> 0.37310735E+01</totfact>
</mgrwt>
</event>
<event>
 6    1  0.9562506E-007  0.1756651E+04  0.7818608E-02  0.8729698E-01
          3   -1    0    0  501    0  0.00000000000E+00  0.00000000000E+00  0.10719373578E+04  0.10719373578E+04  0.00000000000E+00 0. -1.
         -3   -1    0    0    0  501 -0.00000000000E+00 -0.00000000000E+00 -0.71968344321E+03  0.71968344321E+03  0.00000000000E+00 0.  1.
         23    2    1    2    0    0  0.35453867640E+03 -0.78898237788E+03  0.34945953809E+02  0.87027656151E+03  0.89270421519E+02 0.  0.
         11    1    3    3    0    0  0.19457722300E+03 -0.52933763759E+03  0.66927535172E+01  0.56400658084E+03  0.00000000000E+00 0. -1.
        -11    1    3    3    0    0  0.15996145340E+03 -0.25964474029E+03  0.28253200292E+02  0.30626998067E+03  0.00000000000E+00 0.  1.
         22    1    1    2    0    0 -0.35453867640E+03  0.78898237788E+03  0.31730796077E+03  0.92134423949E+03  0.00000000000E+00 0. -1.
<mgrwt>
<rscale>  0 0.17566509E+04</rscale>
<asrwt>0</asrwt>
<pdfrwt beam="1">  1        3 0.16491344E+00 0.17566509E+04</pdfrwt>
<pdfrwt beam="2">  1       -3 0.11072053E+00 0.17566509E+04</pdfrwt>
<totfact> 0.42884969E-01</totfact>
</mgrwt>
</event>
<event>
 6    1  0.9562506E-007  0.2949185E+04  0.7818608E-02  0.8258392E-01
         -1   -1    0    0    0  501 -0.00000000000E+00  0.00000000000E+00  0.16105431685E+04  0.16105431685E+04  0.00000000000E+00 0.  1.
          1   -1    0    0  501    0  0.00000000000E+00 -0.00000000000E+00 -0.13501177202E+04  0.13501177202E+04  0.00000000000E+00 0. -1.
         23    2    1    2    0    0  0.73008135403E+03 -0.11370136203E+04 -0.45860959812E+03  0.14300302493E+04  0.94047828836E+02 0.  0.
         13    1    3    3    0    0  0.19251045527E+03 -0.37864795524E+03 -0.15377765981E+03  0.45175448869E+03  0.00000000000E+00 0.  1.
        -13    1    3    3    0    0  0.53757089877E+03 -0.75836566507E+03 -0.30483193832E+03  0.97827576060E+03  0.00000000000E+00 0. -1.
         22    1    1    2    0    0 -0.73008135403E+03  0.11370136203E+04  0.71903504651E+03  0.15306306394E+04  0.00000000000E+00 0.  1.
<mgrwt>
<rscale>  0 0.29491849E+04</rscale>
<asrwt>0</asrwt>
<pdfrwt beam="1">  1        1 0.20771042E+00 0.29491849E+04</pdfrwt>
<pdfrwt beam="2">  1       -1 0.24777587E+00 0.29491849E+04</pdfrwt>
<totfact> 0.51342813E-01</totfact>
</mgrwt>
</event>
<event>
 6    1  0.9562506E-007  0.5390862E+04  0.7818608E-02  0.7770888E-01
         -2   -1    0    0    0  501 -0.00000000000E+00  0.00000000000E+00  0.21964476991E+04  0.21964476991E+04  0.00000000000E+00 0.  1.
          2   -1    0    0  501    0  0.00000000000E+00 -0.00000000000E+00 -0.33077721854E+04  0.33077721854E+04  0.00000000000E+00 0. -1.
         23    2    1    2    0    0  0.15741256946E+04 -0.12997524208E+04 -0.23518135539E+04  0.31154877555E+04  0.89492483472E+02 0.  0.
         13    1    3    3    0    0  0.87835026503E+03 -0.77921848813E+03 -0.13744510189E+04  0.18077046893E+04  0.00000000000E+00 0. -1.
        -13    1    3    3    0    0  0.69577542953E+03 -0.52053393272E+03 -0.97736253492E+03  0.13077830661E+04  0.00000000000E+00 0.  1.
         22    1    1    2    0    0 -0.15741256946E+04  0.12997524208E+04  0.12404890676E+04  0.23887321291E+04  0.00000000000E+00 0.  1.
<mgrwt>
<rscale>  0 0.53908621E+04</rscale>
<asrwt>0</asrwt>
<pdfrwt beam="1">  1        2 0.50888803E+00 0.53908621E+04</pdfrwt>
<pdfrwt beam="2">  1       -2 0.33791503E+00 0.53908621E+04</pdfrwt>
<totfact> 0.14377046E-02</totfact>
</mgrwt>
</event>
<event>
 6    1  0.9562506E-007  0.3033180E+04  0.7818608E-02  0.8234319E-01
         -2   -1    0    0    0  501 -0.00000000000E+00  0.00000000000E+00  0.15406868028E+04  0.15406868028E+04  0.00000000000E+00 0.  1.
          2   -1    0    0  501    0  0.00000000000E+00 -0.00000000000E+00 -0.14928698867E+04  0.14928698867E+04  0.00000000000E+00 0. -1.
         23    2    1    2    0    0 -0.19029857249E+03  0.13999827136E+04  0.57128369089E+03  0.15268441722E+04  0.93396604522E+02 0.  0.
         11    1    3    3    0    0 -0.97120187641E+02  0.92240478793E+03  0.33735862604E+03  0.98695175475E+03  0.00000000000E+00 0. -1.
        -11    1    3    3    0    0 -0.93178384852E+02  0.47757792569E+03  0.23392506485E+03  0.53989241750E+03  0.00000000000E+00 0.  1.
         22    1    1    2    0    0  0.19029857249E+03 -0.13999827136E+04 -0.52346677477E+03  0.15067125172E+04  0.00000000000E+00 0. -1.
<mgrwt>
<rscale>  0 0.30331798E+04</rscale>
<asrwt>0</asrwt>
<pdfrwt beam="1">  1        2 0.22967229E+00 0.30331798E+04</pdfrwt>
<pdfrwt beam="2">  1       -2 0.23702874E+00 0.30331798E+04</pdfrwt>
<totfact> 0.84538536E-01</totfact>
</mgrwt>
</event>
<event>
 6    1  0.9562506E-007  0.3333265E+04  0.7818608E-02  0.8154482E-01
          1   -1    0    0  501    0  0.00000000000E+00  0.00000000000E+00  0.13810303284E+04  0.13810303284E+04  0.00000000000E+00 0. -1.
         -1   -1    0    0    0  501 -0.00000000000E+00 -0.00000000000E+00 -0.20112987873E+04  0.20112987873E+04  0.00000000000E+00 0.  1.
         23    2    1    2    0    0 -0.16483404432E+04 -0.44300611952E+02 -0.55308989875E+03  0.17415882848E+04  0.90733438972E+02 0.  0.
         11    1    3    3    0    0 -0.14284947881E+04 -0.99954012471E+01 -0.49145240229E+03  0.15107027277E+04  0.00000000000E+00 0. -1.
        -11    1    3    3    0    0 -0.21984565508E+03 -0.34305210704E+02 -0.61637496455E+02  0.23088555716E+03  0.00000000000E+00 0.  1.
         22    1    1    2    0    0  0.16483404432E+04  0.44300611952E+02 -0.77178560152E+02  0.16507408309E+04  0.00000000000E+00 0. -1.
<mgrwt>
<rscale>  0 0.33332654E+04</rscale>
<asrwt>0</asrwt>
<pdfrwt beam="1">  1        1 0.21246621E+00 0.33332654E+04</pdfrwt>
<pdfrwt beam="2">  1       -1 0.30943058E+00 0.33332654E+04</pdfrwt>
<totfact> 0.18795297E-01</totfact>
</mgrwt>
</event>
<event>
 6    1  0.9562506E-007  0.3478215E+04  0.7818608E-02  0.8118972E-01
          1   -1    0    0  501    0  0.00000000000E+00  0.00000000000E+00  0.10472021286E+04  0.10472021286E+04  0.00000000000E+00 0. -1.
         -1   -1    0    0    0  501 -0.00000000000E+00 -0.00000000000E+00 -0.28881674842E+04  0.28881674842E+04  0.00000000000E+00 0.  1.
         23    2    1    2    0    0 -0.12330494674E+04  0.69065694096E+03  0.22311826754E+03  0.14337982662E+04  0.92615914796E+02 0.  0.
         11    1    3    3    0    0 -0.69463807712E+03  0.42823987673E+03  0.97823516276E+02  0.82187644482E+03  0.00000000000E+00 0.  1.
        -11    1    3    3    0    0 -0.53841139028E+03  0.26241706424E+03  0.12529475127E+03  0.61192182138E+03  0.00000000000E+00 0. -1.
         22    1    1    2    0    0  0.12330494674E+04 -0.69065694096E+03 -0.20640836231E+04  0.25015713467E+04  0.00000000000E+00 0.  1.
<mgrwt>
<rscale>  0 0.34782151E+04</rscale>
<asrwt>0</asrwt>
<pdfrwt beam="1">  1        1 0.16110802E+00 0.34782151E+04</pdfrwt>
<pdfrwt beam="2">  1       -1 0.44433346E+00 0.34782151E+04</pdfrwt>
<totfact> 0.40211976E-02</totfact>
</mgrwt>
</event>
<event>
 6    1  0.9562506E-007  0.2311727E+04  0.7818608E-02  0.8473312E-01
         -2   -1    0    0    0  501 -0.00000000000E+00  0.00000000000E+00  0.75473939059E+03  0.75473939059E+03  0.00000000000E+00 0.  1.
          2   -1    0    0  501    0  0.00000000000E+00 -0.00000000000E+00 -0.17701737650E+04  0.17701737650E+04  0.00000000000E+00 0. -1.
         23    2    1    2    0    0  0.10258305158E+04  0.72449018099E+02 -0.10803929308E+04  0.14944779458E+04  0.92942660324E+02 0.  0.
         13    1    3    3    0    0  0.57255270050E+03  0.47084519616E+02 -0.66909161194E+03  0.88188272009E+03  0.00000000000E+00 0. -1.
        -13    1    3    3    0    0  0.45327781531E+03  0.25364498483E+02 -0.41130131890E+03  0.61259522572E+03  0.00000000000E+00 0.  1.
         22    1    1    2    0    0 -0.10258305158E+04 -0.72449018099E+02  0.64958556478E+02  0.10304352097E+04  0.00000000000E+00 0.  1.
<mgrwt>
<rscale>  0 0.23117265E+04</rscale>
<asrwt>0</asrwt>
<pdfrwt beam="1">  1        2 0.27233442E+00 0.23117265E+04</pdfrwt>
<pdfrwt beam="2">  1       -2 0.11611375E+00 0.23117265E+04</pdfrwt>
<totfact> 0.46763665E+00</totfact>
</mgrwt>
</event>
<event>
 6    1  0.9562506E-007  0.1978966E+04  0.7818608E-02  0.8616518E-01
          2   -1    0    0  501    0  0.00000000000E+00  0.00000000000E+00  0.62180954460E+03  0.62180954460E+03  0.00000000000E+00 0. -1.
         -2   -1    0    0    0  501 -0.00000000000E+00 -0.00000000000E+00 -0.15745610066E+04  0.15745610066E+04  0.00000000000E+00 0.  1.
         23    2    1    2    0    0  0.12854006224E+03  0.81737758413E+03 -0.10751613510E+04  0.13599419269E+04  0.94028991234E+02 0.  0.
         13    1    3    3    0    0  0.57849497273E+02  0.49829366564E+03 -0.71723015855E+03  0.87524981684E+03  0.00000000000E+00 0. -1.
        -13    1    3    3    0    0  0.70690564963E+02  0.31908391849E+03 -0.35793119247E+03  0.48469211006E+03  0.00000000000E+00 0.  1.
         22    1    1    2    0    0 -0.12854006224E+03 -0.81737758413E+03  0.12240988901E+03  0.83642862431E+03  0.00000000000E+00 0. -1.
<mgrwt>
<rscale>  0 0.19789665E+04</rscale>
<asrwt>0</asrwt>
<pdfrwt beam="1">  1        2 0.95663009E-01 0.19789665E+04</pdfrwt>
<pdfrwt beam="2">  1       -2 0.24224015E+00 0.19789665E+04</pdfrwt>
<totfact> 0.31697086E+00</totfact>
</mgrwt>
</event>
<event>
 6    1  0.9562506E-007  0.7174171E+03  0.7818608E-02  0.9687902E-01
         -2   -1    0    0    0  501 -0.00000000000E+00  0.00000000000E+00  0.12677009425E+03  0.12677009425E+03  0.00000000000E+00 0.  1.
          2   -1    0    0  501    0  0.00000000000E+00 -0.00000000000E+00 -0.10150014134E+04  0.10150014134E+04  0.00000000000E+00 0. -1.
         23    2    1    2    0    0  0.14297564023E+03  0.16069602062E+03 -0.55290586799E+01  0.23324053658E+03  0.90029621098E+02 0.  0.
         13    1    3    3    0    0  0.10814497245E+03  0.12232876902E+03 -0.43530145502E+02  0.16898087573E+03  0.00000000000E+00 0.  1.
        -13    1    3    3    0    0  0.34830667781E+02  0.38367251602E+02  0.38001086823E+02  0.64259660856E+02  0.00000000000E+00 0. -1.
         22    1    1    2    0    0 -0.14297564023E+03 -0.16069602062E+03 -0.88270226044E+03  0.90853097104E+03  0.00000000000E+00 0.  1.
<mgrwt>
<rscale>  0 0.71741710E+03</rscale>
<asrwt>0</asrwt>
<pdfrwt beam="1">  1        2 0.15615407E+00 0.71741710E+03</pdfrwt>
<pdfrwt beam="2">  1       -2 0.19503091E-01 0.71741710E+03</pdfrwt>
<totfact> 0.55318966E+02</totfact>
</mgrwt>
</event>
<event>
 6    1  0.9562506E-007  0.1475797E+04  0.7818608E-02  0.8900709E-01
          1   -1    0    0  501    0  0.00000000000E+00  0.00000000000E+00  0.10954495133E+04  0.10954495133E+04  0.00000000000E+00 0. -1.
         -1   -1    0    0    0  501 -0.00000000000E+00 -0.00000000000E+00 -0.49705088404E+03  0.49705088404E+03  0.00000000000E+00 0.  1.
         23    2    1    2    0    0  0.34254291029E+03  0.53096465693E+03  0.70552552230E+03  0.95161407083E+03  0.92433570166E+02 0.  0.
         13    1    3    3    0    0  0.28080486914E+03  0.37651180754E+03  0.48217213940E+03  0.67312887902E+03  0.00000000000E+00 0. -1.
        -13    1    3    3    0    0  0.61738041147E+02  0.15445284938E+03  0.22335338290E+03  0.27848519181E+03  0.00000000000E+00 0.  1.
         22    1    1    2    0    0 -0.34254291029E+03 -0.53096465693E+03 -0.10712689304E+03  0.64088632651E+03  0.00000000000E+00 0.  1.
<mgrwt>
<rscale>  0 0.14757969E+04</rscale>
<asrwt>0</asrwt>
<pdfrwt beam="1">  1        1 0.16853069E+00 0.14757969E+04</pdfrwt>
<pdfrwt beam="2">  1       -1 0.76469367E-01 0.14757969E+04</pdfrwt>
<totfact> 0.21264134E+01</totfact>
</mgrwt>
</event>
<event>
 6    1  0.9562506E-007  0.3116277E+04  0.7818608E-02  0.8211285E-01
          1   -1    0    0  501    0  0.00000000000E+00  0.00000000000E+00  0.26299731589E+04  0.26299731589E+04  0.00000000000E+00 0. -1.
         -1   -1    0    0    0  501 -0.00000000000E+00 -0.00000000000E+00 -0.92312584120E+03  0.92312584120E+03  0.00000000000E+00 0.  1.
         23    2    1    2    0    0  0.13377996648E+04  0.36690629002E+03  0.48328921207E+02  0.13909215235E+04  0.89436183745E+02 0.  0.
         13    1    3    3    0    0  0.17710255464E+03  0.79666017625E+02  0.14407662118E+02  0.19472947890E+03  0.00000000000E+00 0.  1.
        -13    1    3    3    0    0  0.11606971102E+04  0.28724027239E+03  0.33921259088E+02  0.11961920446E+04  0.00000000000E+00 0. -1.
         22    1    1    2    0    0 -0.13377996648E+04 -0.36690629002E+03  0.16585183965E+04  0.21621774766E+04  0.00000000000E+00 0. -1.
<mgrwt>
<rscale>  0 0.31162774E+04</rscale>
<asrwt>0</asrwt>
<pdfrwt beam="1">  1        1 0.40461125E+00 0.31162774E+04</pdfrwt>
<pdfrwt beam="2">  1       -1 0.14201936E+00 0.31162774E+04</pdfrwt>
<totfact> 0.37378210E-01</totfact>
</mgrwt>
</event>
<event>
 6    1  0.9562506E-007  0.1990449E+04  0.7818608E-02  0.8611099E-01
          2   -1    0    0  501    0  0.00000000000E+00  0.00000000000E+00  0.24707428285E+04  0.24707428285E+04  0.00000000000E+00 0. -1.
         -2   -1    0    0    0  501 -0.00000000000E+00 -0.00000000000E+00 -0.40088011134E+03  0.40088011134E+03  0.00000000000E+00 0.  1.
         23    2    1    2    0    0  0.13253600111E+03 -0.65386627289E+03  0.20985067259E+04  0.22038450025E+04  0.89974563864E+02 0.  0.
         11    1    3    3    0    0  0.65003387132E+02 -0.48039519804E+03  0.15942673889E+04  0.16663413497E+04  0.00000000000E+00 0. -1.
        -11    1    3    3    0    0  0.67532613980E+02 -0.17347107485E+03  0.50423933700E+03  0.53750365277E+03  0.00000000000E+00 0.  1.
         22    1    1    2    0    0 -0.13253600111E+03  0.65386627289E+03 -0.28644008665E+02  0.66777793738E+03  0.00000000000E+00 0.  1.
<mgrwt>
<rscale>  0 0.19904489E+04</rscale>
<asrwt>0</asrwt>
<pdfrwt beam="1">  1        2 0.38011427E+00 0.19904489E+04</pdfrwt>
<pdfrwt beam="2">  1       -2 0.61673865E-01 0.19904489E+04</pdfrwt>
<totfact> 0.82258134E+00</totfact>
</mgrwt>
</event>
<event>
 6    1  0.9562506E-007  0.2893621E+04  0.7818608E-02  0.8274778E-01
          2   -1    0    0  501    0  0.00000000000E+00  0.00000000000E+00  0.16329841422E+04  0.16329841422E+04  0.00000000000E+00 0. -1.
         -2   -1    0    0    0  501 -0.00000000000E+00 -0.00000000000E+00 -0.12818621964E+04  0.12818621964E+04  0.00000000000E+00 0.  1.
         23    2    1    2    0    0  0.61085291321E+03  0.10082113397E+04 -0.66669146237E+03  0.13574204107E+04  0.92093855878E+02 0.  0.
         11    1    3    3    0    0  0.38718666946E+03  0.69710970195E+03 -0.48541236688E+03  0.93354197521E+03  0.00000000000E+00 0.  1.
        -11    1    3    3    0    0  0.22366624376E+03  0.31110163775E+03 -0.18127909549E+03  0.42387843548E+03  0.00000000000E+00 0. -1.
         22    1    1    2    0    0 -0.61085291321E+03 -0.10082113397E+04  0.10178134082E+04  0.15574259279E+04  0.00000000000E+00 0. -1.
<mgrwt>
<rscale>  0 0.28936210E+04</rscale>
<asrwt>0</asrwt>
<pdfrwt beam="1">  1        2 0.25122833E+00 0.28936210E+04</pdfrwt>
<pdfrwt beam="2">  1       -2 0.19720957E+00 0.28936210E+04</pdfrwt>
<totfact> 0.12807798E+00</totfact>
</mgrwt>
</event>
<event>
 6    1  0.1061634E-006  0.2072916E+04  0.7818608E-02  0.8573269E-01
          2   -1    0    0  501    0  0.00000000000E+00  0.00000000000E+00  0.89799137960E+03  0.89799137960E+03  0.00000000000E+00 0. -1.
         -2   -1    0    0    0  501 -0.00000000000E+00 -0.00000000000E+00 -0.11962755310E+04  0.11962755310E+04  0.00000000000E+00 0.  1.
         23    2    1    2    0    0 -0.54531314695E+02  0.26047901845E+03 -0.11596422316E+04  0.11927344787E+04  0.83800047037E+02 0.  0.
         11    1    3    3    0    0 -0.30577896637E+02  0.18817878952E+03 -0.64829516641E+03  0.67574617082E+03  0.00000000000E+00 0. -1.
        -11    1    3    3    0    0 -0.23953418058E+02  0.72300228936E+02 -0.51134706523E+03  0.51698830786E+03  0.00000000000E+00 0.  1.
         22    1    1    2    0    0  0.54531314695E+02 -0.26047901845E+03  0.86135808026E+03  0.90153243190E+03  0.00000000000E+00 0. -1.
<mgrwt>
<rscale>  0 0.20729159E+04</rscale>
<asrwt>0</asrwt>
<pdfrwt beam="1">  1        2 0.13815252E+00 0.20729159E+04</pdfrwt>
<pdfrwt beam="2">  1       -2 0.18404239E+00 0.20729159E+04</pdfrwt>
<totfact> 0.46190229E+00</totfact>
</mgrwt>
</event>
<event>
 6    1  0.9562506E-007  0.2163966E+04  0.7818608E-02  0.8533578E-01
         -1   -1    0    0    0  501 -0.00000000000E+00  0.00000000000E+00  0.20551483534E+04  0.20551483534E+04  0.00000000000E+00 0.  1.
          1   -1    0    0  501    0  0.00000000000E+00 -0.00000000000E+00 -0.56963651361E+03  0.56963651361E+03  0.00000000000E+00 0. -1.
         23    2    1    2    0    0 -0.28874714903E+03  0.66397023083E+03  0.17162182961E+04  0.18648790489E+04  0.90206672106E+02 0.  0.
         11    1    3    3    0    0 -0.14174596393E+03  0.21829444514E+03  0.60037965660E+03  0.65437001392E+03  0.00000000000E+00 0.  1.
        -11    1    3    3    0    0 -0.14700118510E+03  0.44567578568E+03  0.11158386395E+04  0.12105090350E+04  0.00000000000E+00 0. -1.
         22    1    1    2    0    0  0.28874714903E+03 -0.66397023083E+03 -0.23070645626E+03  0.75990581815E+03  0.00000000000E+00 0. -1.
<mgrwt>
<rscale>  0 0.21639663E+04</rscale>
<asrwt>0</asrwt>
<pdfrwt beam="1">  1        1 0.87636388E-01 0.21639663E+04</pdfrwt>
<pdfrwt beam="2">  1       -1 0.31617667E+00 0.21639663E+04</pdfrwt>
<totfact> 0.87544911E-01</totfact>
</mgrwt>
</event>
<event>
 6    1  0.9562506E-007  0.2542265E+04  0.7818608E-02  0.8388081E-01
          1   -1    0    0  501    0  0.00000000000E+00  0.00000000000E+00  0.18639839896E+04  0.18639839896E+04  0.00000000000E+00 0. -1.
         -1   -1    0    0    0  501 -0.00000000000E+00 -0.00000000000E+00 -0.86684116437E+03  0.86684116437E+03  0.00000000000E+00 0.  1.
         23    2    1    2    0    0 -0.10805165280E+04  0.49472194800E+03  0.97873925982E+03  0.15422947739E+04  0.92069853986E+02 0.  0.
         13    1    3    3    0    0 -0.99444867669E+03  0.45894002294E+03  0.86758839372E+03  0.13972343168E+04  0.00000000000E+00 0. -1.
        -13    1    3    3    0    0 -0.86067851267E+02  0.35781925059E+02  0.11115086610E+03  0.14506045711E+03  0.00000000000E+00 0.  1.
         22    1    1    2    0    0  0.10805165280E+04 -0.49472194800E+03  0.18403565427E+02  0.11885303800E+04  0.00000000000E+00 0. -1.
<mgrwt>
<rscale>  0 0.25422652E+04</rscale>
<asrwt>0</asrwt>
<pdfrwt beam="1">  1        1 0.28676677E+00 0.25422652E+04</pdfrwt>
<pdfrwt beam="2">  1       -1 0.13336018E+00 0.25422652E+04</pdfrwt>
<totfact> 0.15505316E+00</totfact>
</mgrwt>
</event>
<event>
 6    1  0.9562506E-007  0.1843935E+04  0.7818608E-02  0.8683278E-01
          1   -1    0    0  501    0  0.00000000000E+00  0.00000000000E+00  0.19649706220E+04  0.19649706220E+04  0.00000000000E+00 0. -1.
         -1   -1    0    0    0  501 -0.00000000000E+00 -0.00000000000E+00 -0.43258879848E+03  0.43258879848E+03  0.00000000000E+00 0.  1.
         23    2    1    2    0    0 -0.63358445887E+03  0.66241847602E+03  0.67197000338E+03  0.11403657186E+04  0.93074071257E+02 0.  0.
         13    1    3    3    0    0 -0.30250673186E+03  0.37818284993E+03  0.33101385895E+03  0.58660273237E+03  0.00000000000E+00 0. -1.
        -13    1    3    3    0    0 -0.33107772700E+03  0.28423562610E+03  0.34095614443E+03  0.55376298620E+03  0.00000000000E+00 0.  1.
         22    1    1    2    0    0  0.63358445887E+03 -0.66241847602E+03  0.86041182010E+03  0.12571937019E+04  0.00000000000E+00 0. -1.
<mgrwt>
<rscale>  0 0.18439352E+04</rscale>
<asrwt>0</asrwt>
<pdfrwt beam="1">  1        1 0.30230317E+00 0.18439352E+04</pdfrwt>
<pdfrwt beam="2">  1       -1 0.66552124E-01 0.18439352E+04</pdfrwt>
<totfact> 0.67695489E+00</totfact>
</mgrwt>
</event>
<event>
 6    1  0.9562506E-007  0.3337702E+04  0.7818608E-02  0.8153368E-01
          2   -1    0    0  501    0  0.00000000000E+00  0.00000000000E+00  0.38820463860E+04  0.38820463860E+04  0.00000000000E+00 0. -1.
         -2   -1    0    0    0  501 -0.00000000000E+00 -0.00000000000E+00 -0.71742141284E+03  0.71742141284E+03  0.00000000000E+00 0.  1.
         23    2    1    2    0    0  0.17788405563E+03  0.10812394452E+04 -0.14864582885E+03  0.11096991987E+04  0.92818392899E+02 0.  0.
         11    1    3    3    0    0  0.14372491022E+03  0.65619660075E+03 -0.11943116056E+03  0.68228632609E+03  0.00000000000E+00 0.  1.
        -11    1    3    3    0    0  0.34159145416E+02  0.42504284444E+03 -0.29214668291E+02  0.42741287261E+03  0.00000000000E+00 0. -1.
         22    1    1    2    0    0 -0.17788405563E+03 -0.10812394452E+04  0.33132708020E+04  0.34897686001E+04  0.00000000000E+00 0. -1.
<mgrwt>
<rscale>  0 0.33377017E+04</rscale>
<asrwt>0</asrwt>
<pdfrwt beam="1">  1        2 0.59723789E+00 0.33377017E+04</pdfrwt>
<pdfrwt beam="2">  1       -2 0.11037253E+00 0.33377017E+04</pdfrwt>
<totfact> 0.22991402E-01</totfact>
</mgrwt>
</event>
<event>
 6    1  0.9562506E-007  0.2307957E+03  0.7818608E-02  0.1126081E+00
          1   -1    0    0  501    0  0.00000000000E+00  0.00000000000E+00  0.43240544521E+02  0.43240544521E+02  0.00000000000E+00 0. -1.
         -1   -1    0    0    0  501 -0.00000000000E+00 -0.00000000000E+00 -0.30796720058E+03  0.30796720058E+03  0.00000000000E+00 0.  1.
         23    2    1    2    0    0  0.90978258501E+02  0.93976891852E+01 -0.78647318443E+02  0.14386532308E+03  0.78399428600E+02 0.  0.
         11    1    3    3    0    0 -0.38867732654E+01 -0.43980760777E+01  0.11094624329E+02  0.12551524553E+02  0.00000000000E+00 0.  1.
        -11    1    3    3    0    0  0.94865031767E+02  0.13795765263E+02 -0.89741942772E+02  0.13131379853E+03  0.00000000000E+00 0. -1.
         22    1    1    2    0    0 -0.90978258501E+02 -0.93976891852E+01 -0.18607933761E+03  0.20734242202E+03  0.00000000000E+00 0.  1.
<mgrwt>
<rscale>  0 0.23079575E+03</rscale>
<asrwt>0</asrwt>
<pdfrwt beam="1">  1        1 0.66523913E-02 0.23079575E+03</pdfrwt>
<pdfrwt beam="2">  1       -1 0.47379571E-01 0.23079575E+03</pdfrwt>
<totfact> 0.50143541E+03</totfact>
</mgrwt>
</event>
<event>
 6    1  0.9562506E-007  0.2874905E+04  0.7818608E-02  0.8280383E-01
          2   -1    0    0  501    0  0.00000000000E+00  0.00000000000E+00  0.27768443442E+04  0.27768443442E+04  0.00000000000E+00 0. -1.
         -2   -1    0    0    0  501 -0.00000000000E+00 -0.00000000000E+00 -0.74410709168E+03  0.74410709168E+03  0.00000000000E+00 0.  1.
         23    2    1    2    0    0  0.87925633440E+03 -0.70830222985E+03  0.21040806492E+04  0.23896364352E+04  0.91777796413E+02 0.  0.
         11    1    3    3    0    0  0.72221206806E+03 -0.62383173022E+03  0.17859085598E+04  0.20249014008E+04  0.00000000000E+00 0. -1.
        -11    1    3    3    0    0  0.15704426634E+03 -0.84470499637E+02  0.31817208934E+03  0.36473503442E+03  0.00000000000E+00 0.  1.
         22    1    1    2    0    0 -0.87925633440E+03  0.70830222985E+03 -0.71343396686E+02  0.11313150006E+04  0.00000000000E+00 0.  1.
<mgrwt>
<rscale>  0 0.28749049E+04</rscale>
<asrwt>0</asrwt>
<pdfrwt beam="1">  1        2 0.42720682E+00 0.28749049E+04</pdfrwt>
<pdfrwt beam="2">  1       -2 0.11447802E+00 0.28749049E+04</pdfrwt>
<totfact> 0.12309630E+00</totfact>
</mgrwt>
</event>
<event>
 6    1  0.9562506E-007  0.2562832E+04  0.7818608E-02  0.8380937E-01
         -1   -1    0    0    0  501 -0.00000000000E+00  0.00000000000E+00  0.71603518234E+03  0.71603518234E+03  0.00000000000E+00 0.  1.
          1   -1    0    0  501    0  0.00000000000E+00 -0.00000000000E+00 -0.22932212305E+04  0.22932212305E+04  0.00000000000E+00 0. -1.
         23    2    1    2    0    0 -0.71094885049E+03 -0.84878460862E+03 -0.36248069117E+02  0.11117914105E+04  0.94247748658E+02 0.  0.
         11    1    3    3    0    0 -0.62525263422E+03 -0.72726488563E+03 -0.61085343876E+02  0.96103407312E+03  0.00000000000E+00 0.  1.
        -11    1    3    3    0    0 -0.85696216277E+02 -0.12151972298E+03  0.24837274759E+02  0.15075733739E+03  0.00000000000E+00 0. -1.
         22    1    1    2    0    0  0.71094885049E+03  0.84878460862E+03 -0.15409379791E+04  0.18974650024E+04  0.00000000000E+00 0. -1.
<mgrwt>
<rscale>  0 0.25628321E+04</rscale>
<asrwt>0</asrwt>
<pdfrwt beam="1">  1        1 0.35280327E+00 0.25628321E+04</pdfrwt>
<pdfrwt beam="2">  1       -1 0.11015926E+00 0.25628321E+04</pdfrwt>
<totfact> 0.12637953E+00</totfact>
</mgrwt>
</event>
<event>
 6    1  0.1289954E-006  0.1852425E+04  0.7818608E-02  0.8678907E-01
         -1   -1    0    0    0  501 -0.00000000000E+00  0.00000000000E+00  0.10595680008E+04  0.10595680008E+04  0.00000000000E+00 0.  1.
          1   -1    0    0  501    0  0.00000000000E+00 -0.00000000000E+00 -0.80964122208E+03  0.80964122208E+03  0.00000000000E+00 0. -1.
         23    2    1    2    0    0  0.54688298596E+03 -0.66617237393E+02 -0.62320321778E+03  0.83679707291E+03  0.91259158035E+02 0.  0.
         13    1    3    3    0    0  0.24729297912E+03  0.98020560803E+01 -0.24427115143E+03  0.34773307759E+03  0.00000000000E+00 0.  1.
        -13    1    3    3    0    0  0.29959000684E+03 -0.76419293473E+02 -0.37893206634E+03  0.48906399532E+03  0.00000000000E+00 0. -1.
         22    1    1    2    0    0 -0.54688298596E+03  0.66617237393E+02  0.87312999649E+03  0.10324121500E+04  0.00000000000E+00 0.  1.
<mgrwt>
<rscale>  0 0.18524254E+04</rscale>
<asrwt>0</asrwt>
<pdfrwt beam="1">  1        1 0.12456019E+00 0.18524254E+04</pdfrwt>
<pdfrwt beam="2">  1       -1 0.16301046E+00 0.18524254E+04</pdfrwt>
<totfact> 0.56501294E+00</totfact>
</mgrwt>
</event>
<event>
 6    1  0.9562506E-007  0.7310302E+03  0.7818608E-02  0.9665590E-01
         -1   -1    0    0    0  501 -0.00000000000E+00  0.00000000000E+00  0.67483799038E+02  0.67483799038E+02  0.00000000000E+00 0.  1.
          1   -1    0    0  501    0  0.00000000000E+00 -0.00000000000E+00 -0.19797532559E+04  0.19797532559E+04  0.00000000000E+00 0. -1.
         23    2    1    2    0    0 -0.14605022067E+03 -0.24014039031E+03 -0.34097554538E+03  0.45100316535E+03  0.90230031531E+02 0.  0.
         13    1    3    3    0    0 -0.17867862874E+02 -0.94260404245E+02 -0.75509824873E+02  0.12209020429E+03  0.00000000000E+00 0.  1.
        -13    1    3    3    0    0 -0.12818235780E+03 -0.14587998606E+03 -0.26546572051E+03  0.32891296106E+03  0.00000000000E+00 0. -1.
         22    1    1    2    0    0  0.14605022067E+03  0.24014039031E+03 -0.15712939115E+04  0.15962338896E+04  0.00000000000E+00 0. -1.
<mgrwt>
<rscale>  0 0.73103015E+03</rscale>
<asrwt>0</asrwt>
<pdfrwt beam="1">  1        1 0.30457737E+00 0.73103015E+03</pdfrwt>
<pdfrwt beam="2">  1       -1 0.10382125E-01 0.73103015E+03</pdfrwt>
<totfact> 0.18844456E+02</totfact>
</mgrwt>
</event>
<event>
 6    1  0.9562506E-007  0.2516916E+04  0.7818608E-02  0.8396984E-01
          2   -1    0    0  501    0  0.00000000000E+00  0.00000000000E+00  0.13780319176E+04  0.13780319176E+04  0.00000000000E+00 0. -1.
         -2   -1    0    0    0  501 -0.00000000000E+00 -0.00000000000E+00 -0.11492592652E+04  0.11492592652E+04  0.00000000000E+00 0.  1.
         23    2    1    2    0    0  0.71694361325E+03  0.10268814136E+04  0.87996269113E+01  0.12557245450E+04  0.90956678286E+02 0.  0.
         13    1    3    3    0    0  0.37808483983E+03  0.47745700988E+03  0.31125366109E+02  0.60982139254E+03  0.00000000000E+00 0.  1.
        -13    1    3    3    0    0  0.33885877342E+03  0.54942440375E+03 -0.22325739198E+02  0.64590315248E+03  0.00000000000E+00 0. -1.
         22    1    1    2    0    0 -0.71694361325E+03 -0.10268814136E+04  0.21997302553E+03  0.12715666377E+04  0.00000000000E+00 0.  1.
<mgrwt>
<rscale>  0 0.25169155E+04</rscale>
<asrwt>0</asrwt>
<pdfrwt beam="1">  1        2 0.21200491E+00 0.25169155E+04</pdfrwt>
<pdfrwt beam="2">  1       -2 0.17680912E+00 0.25169155E+04</pdfrwt>
<totfact> 0.25321507E+00</totfact>
</mgrwt>
</event>
<event>
 6    1  0.9562506E-007  0.1484844E+04  0.7818608E-02  0.8894595E-01
          2   -1    0    0  501    0  0.00000000000E+00  0.00000000000E+00  0.12610954714E+04  0.12610954714E+04  0.00000000000E+00 0. -1.
         -2   -1    0    0    0  501 -0.00000000000E+00 -0.00000000000E+00 -0.43707250270E+03  0.43707250270E+03  0.00000000000E+00 0.  1.
         23    2    1    2    0    0 -0.41397081666E+03 -0.28408264397E+03  0.10347262679E+04  0.11536767749E+04  0.90757181468E+02 0.  0.
         11    1    3    3    0    0 -0.54682689456E+02 -0.96559798735E+01  0.80840448770E+02  0.98074525902E+02  0.00000000000E+00 0. -1.
        -11    1    3    3    0    0 -0.35928812720E+03 -0.27442666409E+03  0.95388581908E+03  0.10556022490E+04  0.00000000000E+00 0.  1.
         22    1    1    2    0    0  0.41397081666E+03  0.28408264397E+03 -0.21070329918E+03  0.54449119913E+03  0.00000000000E+00 0.  1.
<mgrwt>
<rscale>  0 0.14848436E+04</rscale>
<asrwt>0</asrwt>
<pdfrwt beam="1">  1        2 0.19401469E+00 0.14848436E+04</pdfrwt>
<pdfrwt beam="2">  1       -2 0.67241924E-01 0.14848436E+04</pdfrwt>
<totfact> 0.34195055E+01</totfact>
</mgrwt>
</event>
<event>
 6    1  0.9562506E-007  0.8928591E+03  0.7818608E-02  0.9434552E-01
          2   -1    0    0  501    0  0.00000000000E+00  0.00000000000E+00  0.17672975324E+04  0.17672975324E+04  0.00000000000E+00 0. -1.
         -2   -1    0    0    0  501 -0.00000000000E+00 -0.00000000000E+00 -0.11277067502E+03  0.11277067502E+03  0.00000000000E+00 0.  1.
         23    2    1    2    0    0 -0.36653378252E+03  0.24509641494E+03  0.92957854249E+03  0.10315581452E+04  0.74677131835E+02 0.  0.
         11    1    3    3    0    0 -0.22385970060E+03  0.14221058505E+03  0.47318178893E+03  0.54243711288E+03  0.00000000000E+00 0. -1.
        -11    1    3    3    0    0 -0.14267408193E+03  0.10288582989E+03  0.45639675356E+03  0.48912103237E+03  0.00000000000E+00 0.  1.
         22    1    1    2    0    0  0.36653378252E+03 -0.24509641494E+03  0.72494831486E+03  0.84851006215E+03  0.00000000000E+00 0.  1.
<mgrwt>
<rscale>  0 0.89285908E+03</rscale>
<asrwt>0</asrwt>
<pdfrwt beam="1">  1        2 0.27189191E+00 0.89285908E+03</pdfrwt>
<pdfrwt beam="2">  1       -2 0.17349336E-01 0.89285908E+03</pdfrwt>
<totfact> 0.24787242E+02</totfact>
</mgrwt>
</event>
<event>
 6    1  0.9562506E-007  0.7865160E+03  0.7818608E-02  0.9579742E-01
          2   -1    0    0  501    0  0.00000000000E+00  0.00000000000E+00  0.16298583452E+04  0.16298583452E+04  0.00000000000E+00 0. -1.
         -2   -1    0    0    0  501 -0.00000000000E+00 -0.00000000000E+00 -0.94886675790E+02  0.94886675790E+02  0.00000000000E+00 0.  1.
         23    2    1    2    0    0 -0.91181993092E+02  0.37699632839E+03  0.77239092413E+03  0.86919269614E+03  0.92020736046E+02 0.  0.
         11    1    3    3    0    0  0.10799416099E+02  0.18227159526E+02  0.79698066893E+02  0.82465984496E+02  0.00000000000E+00 0. -1.
        -11    1    3    3    0    0 -0.10198140919E+03  0.35876916886E+03  0.69269285724E+03  0.78672671164E+03  0.00000000000E+00 0.  1.
         22    1    1    2    0    0  0.91181993092E+02 -0.37699632839E+03  0.76258074530E+03  0.85555232486E+03  0.00000000000E+00 0.  1.
<mgrwt>
<rscale>  0 0.78651596E+03</rscale>
<asrwt>0</asrwt>
<pdfrwt beam="1">  1        2 0.25074742E+00 0.78651596E+03</pdfrwt>
<pdfrwt beam="2">  1       -2 0.14597951E-01 0.78651596E+03</pdfrwt>
<totfact> 0.39867721E+02</totfact>
</mgrwt>
</event>
<event>
 6    1  0.9562506E-007  0.1795055E+04  0.7818608E-02  0.8708934E-01
          1   -1    0    0  501    0  0.00000000000E+00  0.00000000000E+00  0.82082086378E+03  0.82082086378E+03  0.00000000000E+00 0. -1.
         -1   -1    0    0    0  501 -0.00000000000E+00 -0.00000000000E+00 -0.98140194603E+03  0.98140194603E+03  0.00000000000E+00 0.  1.
         23    2    1    2    0    0  0.31856830139E+03  0.29231869271E+03 -0.86766291211E+03  0.97342808560E+03  0.88245838567E+02 0.  0.
         13    1    3    3    0    0  0.30362646461E+03  0.25901337805E+03 -0.74137351347E+03  0.84196891064E+03  0.00000000000E+00 0.  1.
        -13    1    3    3    0    0  0.14941836787E+02  0.33305314666E+02 -0.12628939864E+03  0.13145917496E+03  0.00000000000E+00 0. -1.
         22    1    1    2    0    0 -0.31856830139E+03 -0.29231869271E+03  0.70708182986E+03  0.82879472421E+03  0.00000000000E+00 0. -1.
<mgrwt>
<rscale>  0 0.17950545E+04</rscale>
<asrwt>0</asrwt>
<pdfrwt beam="1">  1        1 0.12628013E+00 0.17950545E+04</pdfrwt>
<pdfrwt beam="2">  1       -1 0.15098492E+00 0.17950545E+04</pdfrwt>
<totfact> 0.68635263E+00</totfact>
</mgrwt>
</event>
<event>
 6    1  0.9562506E-007  0.2455354E+04  0.7818608E-02  0.8419066E-01
         -1   -1    0    0    0  501 -0.00000000000E+00  0.00000000000E+00  0.77519644754E+03  0.77519644754E+03  0.00000000000E+00 0.  1.
          1   -1    0    0  501    0  0.00000000000E+00 -0.00000000000E+00 -0.19442690044E+04  0.19442690044E+04  0.00000000000E+00 0. -1.
         23    2    1    2    0    0  0.51875944960E+03  0.57436935231E+03 -0.16384099422E+04  0.18143195518E+04  0.91415413211E+02 0.  0.
         11    1    3    3    0    0  0.34594720748E+03  0.32293826421E+03 -0.10404276785E+04  0.11430040888E+04  0.00000000000E+00 0. -1.
        -11    1    3    3    0    0  0.17281224212E+03  0.25143108811E+03 -0.59798226369E+03  0.67131546294E+03  0.00000000000E+00 0.  1.
         22    1    1    2    0    0 -0.51875944960E+03 -0.57436935231E+03  0.46933738531E+03  0.90514590021E+03  0.00000000000E+00 0.  1.
<mgrwt>
<rscale>  0 0.24553537E+04</rscale>
<asrwt>0</asrwt>
<pdfrwt beam="1">  1        1 0.29911831E+00 0.24553537E+04</pdfrwt>
<pdfrwt beam="2">  1       -1 0.11926099E+00 0.24553537E+04</pdfrwt>
<totfact> 0.18221799E+00</totfact>
</mgrwt>
</event>
<event>
 6    1  0.9562506E-007  0.2691064E+04  0.7818608E-02  0.8337910E-01
          4   -1    0    0  501    0  0.00000000000E+00  0.00000000000E+00  0.19151168038E+04  0.19151168038E+04  0.00000000000E+00 0. -1.
         -4   -1    0    0    0  501 -0.00000000000E+00 -0.00000000000E+00 -0.94535043892E+03  0.94535043892E+03  0.00000000000E+00 0.  1.
         23    2    1    2    0    0 -0.15018163320E+03 -0.49646705139E+03 -0.83244355221E+03  0.98510204061E+03  0.91813434428E+02 0.  0.
         13    1    3    3    0    0 -0.28580658705E+02 -0.16975476078E+03 -0.34819670040E+03  0.38842563642E+03  0.00000000000E+00 0.  1.
        -13    1    3    3    0    0 -0.12160097450E+03 -0.32671229061E+03 -0.48424685180E+03  0.59667640419E+03  0.00000000000E+00 0. -1.
         22    1    1    2    0    0  0.15018163320E+03  0.49646705139E+03  0.18022099171E+04  0.18753652022E+04  0.00000000000E+00 0. -1.
<mgrwt>
<rscale>  0 0.26910641E+04</rscale>
<asrwt>0</asrwt>
<pdfrwt beam="1">  1        4 0.29463335E+00 0.26910641E+04</pdfrwt>
<pdfrwt beam="2">  1       -4 0.14543853E+00 0.26910641E+04</pdfrwt>
<totfact> 0.18862289E-02</totfact>
</mgrwt>
</event>
<event>
 6    1  0.9562506E-007  0.1591419E+04  0.7818608E-02  0.8825837E-01
          1   -1    0    0  501    0  0.00000000000E+00  0.00000000000E+00  0.99936558498E+03  0.99936558498E+03  0.00000000000E+00 0. -1.
         -1   -1    0    0    0  501 -0.00000000000E+00 -0.00000000000E+00 -0.63355537570E+03  0.63355537570E+03  0.00000000000E+00 0.  1.
         23    2    1    2    0    0 -0.60043114863E+03  0.92065828289E+02 -0.33946637146E+03  0.70211016556E+03  0.93421551274E+02 0.  0.
         13    1    3    3    0    0 -0.42123977734E+03  0.62270178709E+02 -0.28528404751E+03  0.51255001018E+03  0.00000000000E+00 0. -1.
        -13    1    3    3    0    0 -0.17919137129E+03  0.29795649580E+02 -0.54182323950E+02  0.18956015537E+03  0.00000000000E+00 0.  1.
         22    1    1    2    0    0  0.60043114863E+03 -0.92065828289E+02  0.70527658074E+03  0.93081079513E+03  0.00000000000E+00 0. -1.
<mgrwt>
<rscale>  0 0.15914188E+04</rscale>
<asrwt>0</asrwt>
<pdfrwt beam="1">  1        1 0.15374855E+00 0.15914188E+04</pdfrwt>
<pdfrwt beam="2">  1       -1 0.97470057E-01 0.15914188E+04</pdfrwt>
<totfact> 0.14700842E+01</totfact>
</mgrwt>
</event>
<event>
 6    1  0.9562506E-007  0.3719180E+04  0.7818608E-02  0.8063725E-01
         -2   -1    0    0    0  501 -0.00000000000E+00  0.00000000000E+00  0.10951536905E+04  0.10951536905E+04  0.00000000000E+00 0.  1.
          2   -1    0    0  501    0  0.00000000000E+00 -0.00000000000E+00 -0.31576158583E+04  0.31576158583E+04  0.00000000000E+00 0. -1.
         23    2    1    2    0    0  0.31384365530E+03  0.99765228623E+03 -0.27885033297E+04  0.29796066791E+04  0.92180358494E+02 0.  0.
         11    1    3    3    0    0 -0.32735991556E+01  0.58181736543E+02 -0.14630030728E+03  0.15747892185E+03  0.00000000000E+00 0.  1.
        -11    1    3    3    0    0  0.31711725446E+03  0.93947054968E+03 -0.26422030224E+04  0.28221277573E+04  0.00000000000E+00 0. -1.
         22    1    1    2    0    0 -0.31384365530E+03 -0.99765228623E+03  0.72604116188E+03  0.12731628698E+04  0.00000000000E+00 0.  1.
<mgrwt>
<rscale>  0 0.37191798E+04</rscale>
<asrwt>0</asrwt>
<pdfrwt beam="1">  1        2 0.48578706E+00 0.37191798E+04</pdfrwt>
<pdfrwt beam="2">  1       -2 0.16848518E+00 0.37191798E+04</pdfrwt>
<totfact> 0.24345266E-01</totfact>
</mgrwt>
</event>
<event>
 6    1  0.9562506E-007  0.1458643E+04  0.7818608E-02  0.8912430E-01
          1   -1    0    0  501    0  0.00000000000E+00  0.00000000000E+00  0.35583016047E+03  0.35583016047E+03  0.00000000000E+00 0. -1.
         -1   -1    0    0    0  501 -0.00000000000E+00 -0.00000000000E+00 -0.14948428038E+04  0.14948428038E+04  0.00000000000E+00 0.  1.
         23    2    1    2    0    0 -0.68925103696E+03  0.38362895533E+02 -0.28483143521E+03  0.75241787550E+03  0.92005484492E+02 0.  0.
         11    1    3    3    0    0 -0.18771002040E+03 -0.90081175352E+01 -0.39281761306E+02  0.19198764208E+03  0.00000000000E+00 0.  1.
        -11    1    3    3    0    0 -0.50154101656E+03  0.47371013068E+02 -0.24554967390E+03  0.56043023341E+03  0.00000000000E+00 0. -1.
         22    1    1    2    0    0  0.68925103696E+03 -0.38362895533E+02 -0.85418120811E+03  0.10982550888E+04  0.00000000000E+00 0.  1.
<mgrwt>
<rscale>  0 0.14586434E+04</rscale>
<asrwt>0</asrwt>
<pdfrwt beam="1">  1        1 0.54743101E-01 0.14586434E+04</pdfrwt>
<pdfrwt beam="2">  1       -1 0.22997582E+00 0.14586434E+04</pdfrwt>
<totfact> 0.64238623E+00</totfact>
</mgrwt>
</event>
<event>
 6    1  0.9562506E-007  0.2127870E+04  0.7818608E-02  0.8549065E-01
         -1   -1    0    0    0  501 -0.00000000000E+00  0.00000000000E+00  0.32862430292E+03  0.32862430292E+03  0.00000000000E+00 0.  1.
          1   -1    0    0  501    0  0.00000000000E+00 -0.00000000000E+00 -0.34445341120E+04  0.34445341120E+04  0.00000000000E+00 0. -1.
         23    2    1    2    0    0  0.43089424439E+03 -0.14987630146E+03 -0.32613344089E+04  0.32943253858E+04  0.90248904065E+02 0.  0.
         13    1    3    3    0    0  0.12844997238E+03 -0.85083759801E+02 -0.12200407179E+04  0.12297308628E+04  0.00000000000E+00 0.  1.
        -13    1    3    3    0    0  0.30244427201E+03 -0.64792541664E+02 -0.20412936910E+04  0.20645945229E+04  0.00000000000E+00 0. -1.
         22    1    1    2    0    0 -0.43089424439E+03  0.14987630146E+03  0.14542459985E+03  0.47883302918E+03  0.00000000000E+00 0.  1.
<mgrwt>
<rscale>  0 0.21278699E+04</rscale>
<asrwt>0</asrwt>
<pdfrwt beam="1">  1        1 0.52992832E+00 0.21278699E+04</pdfrwt>
<pdfrwt beam="2">  1       -1 0.50557586E-01 0.21278699E+04</pdfrwt>
<totfact> 0.99900941E-01</totfact>
</mgrwt>
</event>
<event>
 6    1  0.9562506E-007  0.3508718E+04  0.7818608E-02  0.8111727E-01
          2   -1    0    0  501    0  0.00000000000E+00  0.00000000000E+00  0.16491974890E+04  0.16491974890E+04  0.00000000000E+00 0. -1.
         -2   -1    0    0    0  501 -0.00000000000E+00 -0.00000000000E+00 -0.18662264974E+04  0.18662264974E+04  0.00000000000E+00 0.  1.
         23    2    1    2    0    0  0.46085164406E+03  0.62245103256E+03 -0.16844522636E+04  0.18561589274E+04  0.90094447911E+02 0.  0.
         13    1    3    3    0    0  0.36907774352E+03  0.47683251533E+03 -0.12209707291E+04  0.13617478290E+04  0.00000000000E+00 0. -1.
        -13    1    3    3    0    0  0.91773900539E+02  0.14561851723E+03 -0.46348153451E+03  0.49441109839E+03  0.00000000000E+00 0.  1.
         22    1    1    2    0    0 -0.46085164406E+03 -0.62245103256E+03  0.14674232553E+04  0.16592650590E+04  0.00000000000E+00 0. -1.
<mgrwt>
<rscale>  0 0.35087183E+04</rscale>
<asrwt>0</asrwt>
<pdfrwt beam="1">  1        2 0.25372269E+00 0.35087183E+04</pdfrwt>
<pdfrwt beam="2">  1       -2 0.28711177E+00 0.35087183E+04</pdfrwt>
<totfact> 0.32752689E-01</totfact>
</mgrwt>
</event>
<event>
 6    1  0.9562506E-007  0.4184496E+04  0.7818608E-02  0.7968328E-01
         -2   -1    0    0    0  501 -0.00000000000E+00  0.00000000000E+00  0.15348388573E+04  0.15348388573E+04  0.00000000000E+00 0.  1.
          2   -1    0    0  501    0  0.00000000000E+00 -0.00000000000E+00 -0.28520921052E+04  0.28520921052E+04  0.00000000000E+00 0. -1.
         23    2    1    2    0    0  0.17130203091E+04  0.79058813797E+03  0.28682618760E+03  0.19105345851E+04  0.91678544395E+02 0.  0.
         11    1    3    3    0    0  0.63968546948E+03  0.29212815149E+03  0.15174797513E+03  0.71941907447E+03  0.00000000000E+00 0.  1.
        -11    1    3    3    0    0  0.10733348396E+04  0.49845998648E+03  0.13507821246E+03  0.11911155106E+04  0.00000000000E+00 0. -1.
         22    1    1    2    0    0 -0.17130203091E+04 -0.79058813797E+03 -0.16040794355E+04  0.24763963775E+04  0.00000000000E+00 0. -1.
<mgrwt>
<rscale>  0 0.41844960E+04</rscale>
<asrwt>0</asrwt>
<pdfrwt beam="1">  1        2 0.43878340E+00 0.41844960E+04</pdfrwt>
<pdfrwt beam="2">  1       -2 0.23612906E+00 0.41844960E+04</pdfrwt>
<totfact> 0.13076713E-01</totfact>
</mgrwt>
</event>
<event>
 6    1  0.9562506E-007  0.1310747E+04  0.7818608E-02  0.9021086E-01
         -2   -1    0    0    0  501 -0.00000000000E+00  0.00000000000E+00  0.28044870421E+03  0.28044870421E+03  0.00000000000E+00 0.  1.
          2   -1    0    0  501    0  0.00000000000E+00 -0.00000000000E+00 -0.15315259215E+04  0.15315259215E+04  0.00000000000E+00 0. -1.
         23    2    1    2    0    0  0.50625538610E+03  0.41104945891E+03 -0.64384162931E+03  0.92091276876E+03  0.91061025669E+02 0.  0.
         11    1    3    3    0    0  0.43392702785E+03  0.37252705492E+03 -0.59607751478E+03  0.82606142373E+03  0.00000000000E+00 0. -1.
        -11    1    3    3    0    0  0.72328358252E+02  0.38522403990E+02 -0.47764114532E+02  0.94851345028E+02  0.00000000000E+00 0.  1.
         22    1    1    2    0    0 -0.50625538610E+03 -0.41104945891E+03 -0.60723558802E+03  0.89106185699E+03  0.00000000000E+00 0.  1.
<mgrwt>
<rscale>  0 0.13107471E+04</rscale>
<asrwt>0</asrwt>
<pdfrwt beam="1">  1        2 0.23561937E+00 0.13107471E+04</pdfrwt>
<pdfrwt beam="2">  1       -2 0.43145955E-01 0.13107471E+04</pdfrwt>
<totfact> 0.60762099E+01</totfact>
</mgrwt>
</event>
<event>
 6    1  0.9562506E-007  0.6697013E+03  0.7818608E-02  0.9770498E-01
         -1   -1    0    0    0  501 -0.00000000000E+00  0.00000000000E+00  0.67419055401E+02  0.67419055401E+02  0.00000000000E+00 0.  1.
          1   -1    0    0  501    0  0.00000000000E+00 -0.00000000000E+00 -0.16631047805E+04  0.16631047805E+04  0.00000000000E+00 0. -1.
         23    2    1    2    0    0  0.25837426478E+03 -0.20286370202E+03 -0.82417849863E+03  0.89199277339E+03  0.92032428430E+02 0.  0.
         13    1    3    3    0    0  0.26229522828E+03 -0.18337490851E+03 -0.75539680079E+03  0.82039592301E+03  0.00000000000E+00 0. -1.
        -13    1    3    3    0    0 -0.39209634923E+01 -0.19488793508E+02 -0.68781697833E+02  0.71596850377E+02  0.00000000000E+00 0.  1.
         22    1    1    2    0    0 -0.25837426478E+03  0.20286370202E+03 -0.77150722650E+03  0.83853106254E+03  0.00000000000E+00 0.  1.
<mgrwt>
<rscale>  0 0.66970129E+03</rscale>
<asrwt>0</asrwt>
<pdfrwt beam="1">  1        1 0.25586229E+00 0.66970129E+03</pdfrwt>
<pdfrwt beam="2">  1       -1 0.10372162E-01 0.66970129E+03</pdfrwt>
<totfact> 0.30890951E+02</totfact>
</mgrwt>
</event>
<event>
 6    1  0.9562506E-007  0.2725365E+04  0.7818608E-02  0.8326821E-01
         -2   -1    0    0    0  501 -0.00000000000E+00  0.00000000000E+00  0.80625704704E+03  0.80625704704E+03  0.00000000000E+00 0.  1.
          2   -1    0    0  501    0  0.00000000000E+00 -0.00000000000E+00 -0.23031164211E+04  0.23031164211E+04  0.00000000000E+00 0. -1.
         23    2    1    2    0    0 -0.90910816297E+03 -0.94262160698E+03 -0.11727724006E+04  0.17602828439E+04  0.90484480333E+02 0.  0.
         13    1    3    3    0    0 -0.16141396986E+03 -0.15465624368E+03 -0.24603644925E+03  0.33242586803E+03  0.00000000000E+00 0.  1.
        -13    1    3    3    0    0 -0.74769419311E+03 -0.78796536329E+03 -0.92673595132E+03  0.14278569759E+04  0.00000000000E+00 0. -1.
         22    1    1    2    0    0  0.90910816297E+03  0.94262160698E+03 -0.32408697349E+03  0.13490906242E+04  0.00000000000E+00 0.  1.
<mgrwt>
<rscale>  0 0.27253652E+04</rscale>
<asrwt>0</asrwt>
<pdfrwt beam="1">  1        2 0.35432560E+00 0.27253652E+04</pdfrwt>
<pdfrwt beam="2">  1       -2 0.12403955E+00 0.27253652E+04</pdfrwt>
<totfact> 0.19321607E+00</totfact>
</mgrwt>
</event>
<event>
 6    1  0.9562506E-007  0.2158362E+04  0.7818608E-02  0.8535961E-01
          1   -1    0    0  501    0  0.00000000000E+00  0.00000000000E+00  0.25524622765E+04  0.25524622765E+04  0.00000000000E+00 0. -1.
         -1   -1    0    0    0  501 -0.00000000000E+00 -0.00000000000E+00 -0.45627785216E+03  0.45627785216E+03  0.00000000000E+00 0.  1.
         23    2    1    2    0    0  0.13616871419E+03 -0.29807807106E+03  0.24805295665E+04  0.25036523704E+04  0.88632986270E+02 0.  0.
         13    1    3    3    0    0  0.78075653462E+01 -0.47560281992E+02  0.62945363212E+03  0.63129613771E+03  0.00000000000E+00 0. -1.
        -13    1    3    3    0    0  0.12836114884E+03 -0.25051778907E+03  0.18510759344E+04  0.18723562327E+04  0.00000000000E+00 0.  1.
         22    1    1    2    0    0 -0.13616871419E+03  0.29807807106E+03 -0.38434514221E+03  0.50508775823E+03  0.00000000000E+00 0.  1.
<mgrwt>
<rscale>  0 0.21583623E+04</rscale>
<asrwt>0</asrwt>
<pdfrwt beam="1">  1        1 0.39268650E+00 0.21583623E+04</pdfrwt>
<pdfrwt beam="2">  1       -1 0.70196594E-01 0.21583623E+04</pdfrwt>
<totfact> 0.23383661E+00</totfact>
</mgrwt>
</event>
<event>
 6    1  0.9562506E-007  0.4617020E+04  0.7818608E-02  0.7890464E-01
         -2   -1    0    0    0  501 -0.00000000000E+00  0.00000000000E+00  0.29015523160E+04  0.29015523160E+04  0.00000000000E+00 0.  1.
          2   -1    0    0  501    0  0.00000000000E+00 -0.00000000000E+00 -0.18366785378E+04  0.18366785378E+04  0.00000000000E+00 0. -1.
         23    2    1    2    0    0 -0.20178548427E+04  0.83494684383E+03  0.12977767161E+04  0.25420709833E+04  0.95005690734E+02 0.  0.
         11    1    3    3    0    0 -0.11593236714E+04  0.50387227045E+03  0.79889119127E+03  0.14953747943E+04  0.00000000000E+00 0.  1.
        -11    1    3    3    0    0 -0.85853117127E+03  0.33107457338E+03  0.49888552483E+03  0.10466961890E+04  0.00000000000E+00 0. -1.
         22    1    1    2    0    0  0.20178548427E+04 -0.83494684383E+03 -0.23290293788E+03  0.21961598705E+04  0.00000000000E+00 0. -1.
<mgrwt>
<rscale>  0 0.46170202E+04</rscale>
<asrwt>0</asrwt>
<pdfrwt beam="1">  1        2 0.28256593E+00 0.46170202E+04</pdfrwt>
<pdfrwt beam="2">  1       -2 0.44639266E+00 0.46170202E+04</pdfrwt>
<totfact> 0.22695623E-02</totfact>
</mgrwt>
</event>
<event>
 6    1  0.9562506E-007  0.1210427E+04  0.7818608E-02  0.9103778E-01
          4   -1    0    0  501    0  0.00000000000E+00  0.00000000000E+00  0.50235946861E+03  0.50235946861E+03  0.00000000000E+00 0. -1.
         -4   -1    0    0    0  501 -0.00000000000E+00 -0.00000000000E+00 -0.72912636551E+03  0.72912636551E+03  0.00000000000E+00 0.  1.
         23    2    1    2    0    0  0.40897891039E+03 -0.11525275419E+03 -0.54769390532E+03  0.69900006790E+03  0.89919600264E+02 0.  0.
         13    1    3    3    0    0  0.15875469174E+03 -0.89518839221E+02 -0.24708856277E+03  0.30703327601E+03  0.00000000000E+00 0.  1.
        -13    1    3    3    0    0  0.25022421865E+03 -0.25733914969E+02 -0.30060534255E+03  0.39196679189E+03  0.00000000000E+00 0. -1.
         22    1    1    2    0    0 -0.40897891039E+03  0.11525275419E+03  0.32092700842E+03  0.53248576622E+03  0.00000000000E+00 0. -1.
<mgrwt>
<rscale>  0 0.12104273E+04</rscale>
<asrwt>0</asrwt>
<pdfrwt beam="1">  1        4 0.77286073E-01 0.12104273E+04</pdfrwt>
<pdfrwt beam="2">  1       -4 0.11217329E+00 0.12104273E+04</pdfrwt>
<totfact> 0.18448438E+00</totfact>
</mgrwt>
</event>
<event>
 6    1  0.9562506E-007  0.2659530E+04  0.7818608E-02  0.8348257E-01
          3   -1    0    0  501    0  0.00000000000E+00  0.00000000000E+00  0.17252790211E+04  0.17252790211E+04  0.00000000000E+00 0. -1.
         -3   -1    0    0    0  501 -0.00000000000E+00 -0.00000000000E+00 -0.10249211943E+04  0.10249211943E+04  0.00000000000E+00 0.  1.
         23    2    1    2    0    0 -0.11627568985E+04  0.42734061373E+03  0.84574426467E+03  0.15028987998E+04  0.93796780945E+02 0.  0.
         13    1    3    3    0    0 -0.62360429482E+03  0.27416318118E+03  0.48803465309E+03  0.83798901487E+03  0.00000000000E+00 0. -1.
        -13    1    3    3    0    0 -0.53915260365E+03  0.15317743255E+03  0.35770961159E+03  0.66490978492E+03  0.00000000000E+00 0.  1.
         22    1    1    2    0    0  0.11627568985E+04 -0.42734061373E+03 -0.14538643784E+03  0.12473014156E+04  0.00000000000E+00 0. -1.
<mgrwt>
<rscale>  0 0.26595301E+04</rscale>
<asrwt>0</asrwt>
<pdfrwt beam="1">  1        3 0.26542754E+00 0.26595301E+04</pdfrwt>
<pdfrwt beam="2">  1       -3 0.15768018E+00 0.26595301E+04</pdfrwt>
<totfact> 0.39089583E-02</totfact>
</mgrwt>
</event>
<event>
 6    1  0.9562506E-007  0.1208730E+04  0.7818608E-02  0.9105249E-01
          1   -1    0    0  501    0  0.00000000000E+00  0.00000000000E+00  0.74480368434E+03  0.74480368434E+03  0.00000000000E+00 0. -1.
         -1   -1    0    0    0  501 -0.00000000000E+00 -0.00000000000E+00 -0.49040711918E+03  0.49040711918E+03  0.00000000000E+00 0.  1.
         23    2    1    2    0    0 -0.59844265315E+03  0.55627155530E+02  0.13101415828E+03  0.62165460572E+03  0.89787246294E+02 0.  0.
         11    1    3    3    0    0 -0.25498280930E+03  0.77108878610E+01  0.98093406719E+02  0.27330936184E+03  0.00000000000E+00 0. -1.
        -11    1    3    3    0    0 -0.34345984385E+03  0.47916267669E+02  0.32920751560E+02  0.34834524387E+03  0.00000000000E+00 0.  1.
         22    1    1    2    0    0  0.59844265315E+03 -0.55627155530E+02  0.12338240688E+03  0.61355619781E+03  0.00000000000E+00 0. -1.
<mgrwt>
<rscale>  0 0.12087300E+04</rscale>
<asrwt>0</asrwt>
<pdfrwt beam="1">  1        1 0.11458518E+00 0.12087300E+04</pdfrwt>
<pdfrwt beam="2">  1       -1 0.75447249E-01 0.12087300E+04</pdfrwt>
<totfact> 0.43261618E+01</totfact>
</mgrwt>
</event>
<event>
 6    1  0.9562506E-007  0.2645097E+04  0.7818608E-02  0.8353042E-01
         -2   -1    0    0    0  501 -0.00000000000E+00  0.00000000000E+00  0.65039085679E+03  0.65039085679E+03  0.00000000000E+00 0.  1.
          2   -1    0    0  501    0  0.00000000000E+00 -0.00000000000E+00 -0.26893598072E+04  0.26893598072E+04  0.00000000000E+00 0. -1.
         23    2    1    2    0    0  0.88381919845E+03  0.18071183213E+02 -0.22601163653E+04  0.24285047464E+04  0.89701591984E+02 0.  0.
         13    1    3    3    0    0  0.14152819263E+03 -0.18583928921E+02 -0.43711895140E+03  0.45983537206E+03  0.00000000000E+00 0. -1.
        -13    1    3    3    0    0  0.74229100581E+03  0.36655112134E+02 -0.18229974139E+04  0.19686693744E+04  0.00000000000E+00 0.  1.
         22    1    1    2    0    0 -0.88381919845E+03 -0.18071183213E+02  0.22114741485E+03  0.91124591758E+03  0.00000000000E+00 0.  1.
<mgrwt>
<rscale>  0 0.26450974E+04</rscale>
<asrwt>0</asrwt>
<pdfrwt beam="1">  1        2 0.41374766E+00 0.26450974E+04</pdfrwt>
<pdfrwt beam="2">  1       -2 0.10006013E+00 0.26450974E+04</pdfrwt>
<totfact> 0.19581770E+00</totfact>
</mgrwt>
</event>
<event>
 6    1  0.9562506E-007  0.1446473E+04  0.7818608E-02  0.8920850E-01
         -2   -1    0    0    0  501 -0.00000000000E+00  0.00000000000E+00  0.10992648336E+04  0.10992648336E+04  0.00000000000E+00 0.  1.
          2   -1    0    0  501    0  0.00000000000E+00 -0.00000000000E+00 -0.47583685844E+03  0.47583685844E+03  0.00000000000E+00 0. -1.
         23    2    1    2    0    0 -0.61112273056E+03  0.21452459935E+03 -0.30728431364E+02  0.65455163922E+03  0.89452872423E+02 0.  0.
         13    1    3    3    0    0 -0.49216288676E+03  0.19796437177E+03 -0.50285398098E+02  0.53286285370E+03  0.00000000000E+00 0.  1.
        -13    1    3    3    0    0 -0.11895984380E+03  0.16560227586E+02  0.19556966734E+02  0.12168878552E+03  0.00000000000E+00 0. -1.
         22    1    1    2    0    0  0.61112273056E+03 -0.21452459935E+03  0.65415640647E+03  0.92055005277E+03  0.00000000000E+00 0.  1.
<mgrwt>
<rscale>  0 0.14464726E+04</rscale>
<asrwt>0</asrwt>
<pdfrwt beam="1">  1        2 0.73205671E-01 0.14464726E+04</pdfrwt>
<pdfrwt beam="2">  1       -2 0.16911767E+00 0.14464726E+04</pdfrwt>
<totfact> 0.13666073E+01</totfact>
</mgrwt>
</event>
<event>
 6    1  0.9562506E-007  0.9972824E+03  0.7818608E-02  0.9311530E-01
         -2   -1    0    0    0  501 -0.00000000000E+00  0.00000000000E+00  0.24635321269E+03  0.24635321269E+03  0.00000000000E+00 0.  1.
          2   -1    0    0  501    0  0.00000000000E+00 -0.00000000000E+00 -0.10092948721E+04  0.10092948721E+04  0.00000000000E+00 0. -1.
         23    2    1    2    0    0  0.59556892341E+02  0.18951806419E+03 -0.95491984149E+03  0.97938780451E+03  0.88681722371E+02 0.  0.
         11    1    3    3    0    0  0.88845907384E+01  0.11188526787E+03 -0.35422444093E+03  0.37158068258E+03  0.00000000000E+00 0.  1.
        -11    1    3    3    0    0  0.50672301603E+02  0.77632796320E+02 -0.60069540056E+03  0.60780712193E+03  0.00000000000E+00 0. -1.
         22    1    1    2    0    0 -0.59556892341E+02 -0.18951806419E+03  0.19197818206E+03  0.27626028029E+03  0.00000000000E+00 0.  1.
<mgrwt>
<rscale>  0 0.99728238E+03</rscale>
<asrwt>0</asrwt>
<pdfrwt beam="1">  1        2 0.15527613E+00 0.99728238E+03</pdfrwt>
<pdfrwt beam="2">  1       -2 0.37900494E-01 0.99728238E+03</pdfrwt>
<totfact> 0.16282456E+02</totfact>
</mgrwt>
</event>
<event>
 6    1  0.9562506E-007  0.4704835E+04  0.7818608E-02  0.7875726E-01
         -1   -1    0    0    0  501 -0.00000000000E+00  0.00000000000E+00  0.18231860979E+04  0.18231860979E+04  0.00000000000E+00 0.  1.
          1   -1    0    0  501    0  0.00000000000E+00 -0.00000000000E+00 -0.30352736092E+04  0.30352736092E+04  0.00000000000E+00 0. -1.
         23    2    1    2    0    0 -0.16986023184E+04  0.69294857811E+02  0.10714804132E+04  0.20115782415E+04  0.91242163639E+02 0.  0.
         11    1    3    3    0    0 -0.81132080586E+03 -0.12501682233E+02  0.51176556929E+03  0.95932358461E+03  0.00000000000E+00 0. -1.
        -11    1    3    3    0    0 -0.88728151250E+03  0.81796540044E+02  0.55971484389E+03  0.10522546568E+04  0.00000000000E+00 0.  1.
         22    1    1    2    0    0  0.16986023184E+04 -0.69294857811E+02 -0.22835679246E+04  0.28468814656E+04  0.00000000000E+00 0. -1.
<mgrwt>
<rscale>  0 0.47048352E+04</rscale>
<asrwt>0</asrwt>
<pdfrwt beam="1">  1        1 0.46696517E+00 0.47048352E+04</pdfrwt>
<pdfrwt beam="2">  1       -1 0.28049017E+00 0.47048352E+04</pdfrwt>
<totfact> 0.18387750E-02</totfact>
</mgrwt>
</event>
<event>
 6    1  0.9562506E-007  0.1016195E+04  0.7818608E-02  0.9290959E-01
          2   -1    0    0  501    0  0.00000000000E+00  0.00000000000E+00  0.89245049053E+03  0.89245049053E+03  0.00000000000E+00 0. -1.
         -2   -1    0    0    0  501 -0.00000000000E+00 -0.00000000000E+00 -0.28927415385E+03  0.28927415385E+03  0.00000000000E+00 0.  1.
         23    2    1    2    0    0 -0.20712133912E+03 -0.58225716025E+02  0.83409585358E+03  0.86610888684E+03  0.90217668902E+02 0.  0.
         11    1    3    3    0    0 -0.26174113198E+02  0.13840938312E+02  0.21686201544E+03  0.21887391237E+03  0.00000000000E+00 0.  1.
        -11    1    3    3    0    0 -0.18094722592E+03 -0.72066654337E+02  0.61723383814E+03  0.64723497447E+03  0.00000000000E+00 0. -1.
         22    1    1    2    0    0  0.20712133912E+03  0.58225716025E+02 -0.23091951689E+03  0.31561575754E+03  0.00000000000E+00 0.  1.
<mgrwt>
<rscale>  0 0.10161946E+04</rscale>
<asrwt>0</asrwt>
<pdfrwt beam="1">  1        2 0.13730007E+00 0.10161946E+04</pdfrwt>
<pdfrwt beam="2">  1       -2 0.44503716E-01 0.10161946E+04</pdfrwt>
<totfact> 0.14165314E+02</totfact>
</mgrwt>
</event>
<event>
 6    1  0.9562506E-007  0.2615217E+04  0.7818608E-02  0.8363051E-01
          1   -1    0    0  501    0  0.00000000000E+00  0.00000000000E+00  0.28401127885E+04  0.28401127885E+04  0.00000000000E+00 0. -1.
         -1   -1    0    0    0  501 -0.00000000000E+00 -0.00000000000E+00 -0.60203243479E+03  0.60203243479E+03  0.00000000000E+00 0.  1.
         23    2    1    2    0    0 -0.40371755713E+03  0.99433925056E+03  0.14070267570E+03  0.10861546598E+04  0.90754012978E+02 0.  0.
         11    1    3    3    0    0 -0.78947025591E+02  0.25652013197E+03  0.67183296796E+02  0.27667454947E+03  0.00000000000E+00 0.  1.
        -11    1    3    3    0    0 -0.32477053154E+03  0.73781911860E+03  0.73519378904E+02  0.80948011032E+03  0.00000000000E+00 0. -1.
         22    1    1    2    0    0  0.40371755713E+03 -0.99433925056E+03  0.20973776780E+04  0.23559905635E+04  0.00000000000E+00 0. -1.
<mgrwt>
<rscale>  0 0.26152170E+04</rscale>
<asrwt>0</asrwt>
<pdfrwt beam="1">  1        1 0.43694042E+00 0.26152170E+04</pdfrwt>
<pdfrwt beam="2">  1       -1 0.92620376E-01 0.26152170E+04</pdfrwt>
<totfact> 0.77740215E-01</totfact>
</mgrwt>
</event>
<event>
 6    1  0.9562506E-007  0.1061984E+04  0.7818608E-02  0.9243058E-01
         -2   -1    0    0    0  501 -0.00000000000E+00  0.00000000000E+00  0.17869360861E+03  0.17869360861E+03  0.00000000000E+00 0.  1.
          2   -1    0    0  501    0  0.00000000000E+00 -0.00000000000E+00 -0.15778557927E+04  0.15778557927E+04  0.00000000000E+00 0. -1.
         23    2    1    2    0    0 -0.43734282505E+03  0.11039400363E+03 -0.25238856243E+03  0.52425669178E+03  0.87689849817E+02 0.  0.
         13    1    3    3    0    0 -0.25748970096E+03  0.68925081327E+02 -0.19732701202E+03  0.33164674370E+03  0.00000000000E+00 0. -1.
        -13    1    3    3    0    0 -0.17985312409E+03  0.41468922308E+02 -0.55061550419E+02  0.19260994807E+03  0.00000000000E+00 0.  1.
         22    1    1    2    0    0  0.43734282505E+03 -0.11039400363E+03 -0.11467736216E+04  0.12322927095E+04  0.00000000000E+00 0. -1.
<mgrwt>
<rscale>  0 0.10619845E+04</rscale>
<asrwt>0</asrwt>
<pdfrwt beam="1">  1        2 0.24274705E+00 0.10619845E+04</pdfrwt>
<pdfrwt beam="2">  1       -2 0.27491324E-01 0.10619845E+04</pdfrwt>
<totfact> 0.13760874E+02</totfact>
</mgrwt>
</event>
<event>
 6    1  0.9562506E-007  0.1835362E+04  0.7818608E-02  0.8687717E-01
          2   -1    0    0  501    0  0.00000000000E+00  0.00000000000E+00  0.15877254817E+04  0.15877254817E+04  0.00000000000E+00 0. -1.
         -2   -1    0    0    0  501 -0.00000000000E+00 -0.00000000000E+00 -0.53040529654E+03  0.53040529654E+03  0.00000000000E+00 0.  1.
         23    2    1    2    0    0 -0.42107119702E+03  0.21285039360E+03  0.14352414707E+04  0.15136221009E+04  0.92344690616E+02 0.  0.
         11    1    3    3    0    0 -0.88849682033E+02  0.31418837754E+02  0.18952507787E+03  0.21166285575E+03  0.00000000000E+00 0.  1.
        -11    1    3    3    0    0 -0.33222151499E+03  0.18143155585E+03  0.12457163929E+04  0.13019592451E+04  0.00000000000E+00 0. -1.
         22    1    1    2    0    0  0.42107119702E+03 -0.21285039360E+03 -0.37792128553E+03  0.60450867742E+03  0.00000000000E+00 0.  1.
<mgrwt>
<rscale>  0 0.18353616E+04</rscale>
<asrwt>0</asrwt>
<pdfrwt beam="1">  1        2 0.24426546E+00 0.18353616E+04</pdfrwt>
<pdfrwt beam="2">  1       -2 0.81600816E-01 0.18353616E+04</pdfrwt>
<totfact> 0.14098654E+01</totfact>
</mgrwt>
</event>
<event>
 6    1  0.9562506E-007  0.2582122E+04  0.7818608E-02  0.8374299E-01
         -1   -1    0    0    0  501 -0.00000000000E+00  0.00000000000E+00  0.54690866654E+04  0.54690866654E+04  0.00000000000E+00 0.  1.
          1   -1    0    0  501    0  0.00000000000E+00 -0.00000000000E+00 -0.30477463181E+03  0.30477463181E+03  0.00000000000E+00 0. -1.
         23    2    1    2    0    0  0.77499043219E+03  0.42045427480E+03  0.46893411081E+04  0.47723677389E+04  0.90453525413E+02 0.  0.
         13    1    3    3    0    0  0.33418638198E+03  0.15644278746E+03  0.17536172359E+04  0.17920179390E+04  0.00000000000E+00 0. -1.
        -13    1    3    3    0    0  0.44080405021E+03  0.26401148735E+03  0.29357238722E+04  0.29803498000E+04  0.00000000000E+00 0.  1.
         22    1    1    2    0    0 -0.77499043219E+03 -0.42045427480E+03  0.47497092547E+03  0.10014935583E+04  0.00000000000E+00 0. -1.
<mgrwt>
<rscale>  0 0.25821223E+04</rscale>
<asrwt>0</asrwt>
<pdfrwt beam="1">  1        1 0.46888409E-01 0.25821223E+04</pdfrwt>
<pdfrwt beam="2">  1       -1 0.84139788E+00 0.25821223E+04</pdfrwt>
<totfact> 0.27008009E-03</totfact>
</mgrwt>
</event>
<event>
 6    1  0.9562506E-007  0.9986440E+03  0.7818608E-02  0.9310033E-01
          1   -1    0    0  501    0  0.00000000000E+00  0.00000000000E+00  0.40895132305E+03  0.40895132305E+03  0.00000000000E+00 0. -1.
         -1   -1    0    0    0  501 -0.00000000000E+00 -0.00000000000E+00 -0.60966291739E+03  0.60966291739E+03  0.00000000000E+00 0.  1.
         23    2    1    2    0    0 -0.18408225457E+03 -0.35627645890E+03  0.19513032531E+03  0.45513396841E+03  0.90839934681E+02 0.  0.
         11    1    3    3    0    0 -0.94370266038E+02 -0.27227904972E+03  0.14170966030E+03  0.32112809882E+03  0.00000000000E+00 0.  1.
        -11    1    3    3    0    0 -0.89711988533E+02 -0.83997409180E+02  0.53420665005E+02  0.13400586959E+03  0.00000000000E+00 0. -1.
         22    1    1    2    0    0  0.18408225457E+03  0.35627645890E+03 -0.39584191965E+03  0.56348027203E+03  0.00000000000E+00 0.  1.
<mgrwt>
<rscale>  0 0.99864399E+03</rscale>
<asrwt>0</asrwt>
<pdfrwt beam="1">  1        1 0.62915589E-01 0.99864399E+03</pdfrwt>
<pdfrwt beam="2">  1       -1 0.93794294E-01 0.99864399E+03</pdfrwt>
<totfact> 0.64396204E+01</totfact>
</mgrwt>
</event>
<event>
 6    1  0.9562506E-007  0.1842519E+04  0.7818608E-02  0.8684009E-01
         -2   -1    0    0    0  501 -0.00000000000E+00  0.00000000000E+00  0.11145624223E+04  0.11145624223E+04  0.00000000000E+00 0.  1.
          2   -1    0    0  501    0  0.00000000000E+00 -0.00000000000E+00 -0.76148217529E+03  0.76148217529E+03  0.00000000000E+00 0. -1.
         23    2    1    2    0    0  0.34836123252E+03 -0.62493850758E+03 -0.41079868128E+03  0.82942398646E+03  0.85351661914E+02 0.  0.
         13    1    3    3    0    0  0.69117678976E+02 -0.12920342533E+03 -0.46132839263E+02  0.15361971723E+03  0.00000000000E+00 0.  1.
        -13    1    3    3    0    0  0.27924355354E+03 -0.49573508225E+03 -0.36466584202E+03  0.67580426922E+03  0.00000000000E+00 0. -1.
         22    1    1    2    0    0 -0.34836123252E+03  0.62493850758E+03  0.76387892831E+03  0.10466206112E+04  0.00000000000E+00 0.  1.
<mgrwt>
<rscale>  0 0.18425194E+04</rscale>
<asrwt>0</asrwt>
<pdfrwt beam="1">  1        2 0.11715110E+00 0.18425194E+04</pdfrwt>
<pdfrwt beam="2">  1       -2 0.17147114E+00 0.18425194E+04</pdfrwt>
<totfact> 0.71930171E+00</totfact>
</mgrwt>
</event>
<event>
 6    1  0.9562506E-007  0.1845065E+04  0.7818608E-02  0.8682695E-01
          2   -1    0    0  501    0  0.00000000000E+00  0.00000000000E+00  0.17996104850E+04  0.17996104850E+04  0.00000000000E+00 0. -1.
         -2   -1    0    0    0  501 -0.00000000000E+00 -0.00000000000E+00 -0.47291705475E+03  0.47291705475E+03  0.00000000000E+00 0.  1.
         23    2    1    2    0    0 -0.65873770438E+03  0.26046714683E+03 -0.58781858176E+02  0.71646832732E+03  0.89961433135E+02 0.  0.
         11    1    3    3    0    0 -0.18937510777E+03  0.11685561316E+03 -0.32890061153E+02  0.22494426397E+03  0.00000000000E+00 0.  1.
        -11    1    3    3    0    0 -0.46936259661E+03  0.14361153367E+03 -0.25891797023E+02  0.49152406335E+03  0.00000000000E+00 0. -1.
         22    1    1    2    0    0  0.65873770438E+03 -0.26046714683E+03  0.13854752884E+04  0.15560592124E+04  0.00000000000E+00 0. -1.
<mgrwt>
<rscale>  0 0.18450653E+04</rscale>
<asrwt>0</asrwt>
<pdfrwt beam="1">  1        2 0.27686315E+00 0.18450653E+04</pdfrwt>
<pdfrwt beam="2">  1       -2 0.72756471E-01 0.18450653E+04</pdfrwt>
<totfact> 0.13867242E+01</totfact>
</mgrwt>
</event>
<event>
 6    1  0.9562506E-007  0.1885910E+04  0.7818608E-02  0.8661902E-01
         -1   -1    0    0    0  501 -0.00000000000E+00  0.00000000000E+00  0.11563772044E+04  0.11563772044E+04  0.00000000000E+00 0.  1.
          1   -1    0    0  501    0  0.00000000000E+00 -0.00000000000E+00 -0.76892181804E+03  0.76892181804E+03  0.00000000000E+00 0. -1.
         23    2    1    2    0    0 -0.24979308018E+03  0.36846134216E+03 -0.65193103285E+03  0.79459814599E+03  0.90618973942E+02 0.  0.
         11    1    3    3    0    0 -0.11186141804E+03  0.13202987945E+03 -0.32508177973E+03  0.36827032113E+03  0.00000000000E+00 0. -1.
        -11    1    3    3    0    0 -0.13793166214E+03  0.23643146271E+03 -0.32684925313E+03  0.42632782486E+03  0.00000000000E+00 0.  1.
         22    1    1    2    0    0  0.24979308018E+03 -0.36846134216E+03  0.10393864193E+04  0.11307008765E+04  0.00000000000E+00 0.  1.
<mgrwt>
<rscale>  0 0.18859095E+04</rscale>
<asrwt>0</asrwt>
<pdfrwt beam="1">  1        1 0.11829566E+00 0.18859095E+04</pdfrwt>
<pdfrwt beam="2">  1       -1 0.17790419E+00 0.18859095E+04</pdfrwt>
<totfact> 0.47535731E+00</totfact>
</mgrwt>
</event>
<event>
 6    1  0.9562506E-007  0.1342184E+04  0.7818608E-02  0.8996766E-01
          1   -1    0    0  501    0  0.00000000000E+00  0.00000000000E+00  0.74401343273E+03  0.74401343273E+03  0.00000000000E+00 0. -1.
         -1   -1    0    0    0  501 -0.00000000000E+00 -0.00000000000E+00 -0.60531780665E+03  0.60531780665E+03  0.00000000000E+00 0.  1.
         23    2    1    2    0    0 -0.18273067350E+02 -0.57542569680E+03  0.41055879231E+03  0.71265375534E+03  0.88702962306E+02 0.  0.
         11    1    3    3    0    0 -0.47831208927E+02 -0.21111463814E+03  0.13803525155E+03  0.25673127128E+03  0.00000000000E+00 0.  1.
        -11    1    3    3    0    0  0.29558141576E+02 -0.36431105867E+03  0.27252354076E+03  0.45592248406E+03  0.00000000000E+00 0. -1.
         22    1    1    2    0    0  0.18273067350E+02  0.57542569680E+03 -0.27186316623E+03  0.63667748404E+03  0.00000000000E+00 0.  1.
<mgrwt>
<rscale>  0 0.13421842E+04</rscale>
<asrwt>0</asrwt>
<pdfrwt beam="1">  1        1 0.11446360E+00 0.13421842E+04</pdfrwt>
<pdfrwt beam="2">  1       -1 0.93125817E-01 0.13421842E+04</pdfrwt>
<totfact> 0.27209949E+01</totfact>
</mgrwt>
</event>
<event>
 6    1  0.9562506E-007  0.1273895E+04  0.7818608E-02  0.9050527E-01
          1   -1    0    0  501    0  0.00000000000E+00  0.00000000000E+00  0.52221862071E+03  0.52221862071E+03  0.00000000000E+00 0. -1.
         -1   -1    0    0    0  501 -0.00000000000E+00 -0.00000000000E+00 -0.77688202672E+03  0.77688202672E+03  0.00000000000E+00 0.  1.
         23    2    1    2    0    0 -0.14275391728E+03  0.36679842232E+02  0.50057972775E+03  0.52960972297E+03  0.90456083827E+02 0.  0.
         11    1    3    3    0    0 -0.18366538087E+02  0.30064391954E+02  0.21751865122E+03  0.22035326414E+03  0.00000000000E+00 0. -1.
        -11    1    3    3    0    0 -0.12438737919E+03  0.66154502786E+01  0.28306107653E+03  0.30925645883E+03  0.00000000000E+00 0.  1.
         22    1    1    2    0    0  0.14275391728E+03 -0.36679842232E+02 -0.75524313377E+03  0.76949092446E+03  0.00000000000E+00 0.  1.
<mgrwt>
<rscale>  0 0.12738952E+04</rscale>
<asrwt>0</asrwt>
<pdfrwt beam="1">  1        1 0.80341326E-01 0.12738952E+04</pdfrwt>
<pdfrwt beam="2">  1       -1 0.11952031E+00 0.12738952E+04</pdfrwt>
<totfact> 0.25688651E+01</totfact>
</mgrwt>
</event>
<event>
 6    1  0.9562506E-007  0.3000565E+04  0.7818608E-02  0.8243570E-01
         -2   -1    0    0    0  501 -0.00000000000E+00  0.00000000000E+00  0.16268192548E+04  0.16268192548E+04  0.00000000000E+00 0.  1.
          2   -1    0    0  501    0  0.00000000000E+00 -0.00000000000E+00 -0.13835880416E+04  0.13835880416E+04  0.00000000000E+00 0. -1.
         23    2    1    2    0    0 -0.29200299500E+02 -0.14523704532E+04  0.49242604214E+03  0.15365244471E+04  0.90506234988E+02 0.  0.
         11    1    3    3    0    0  0.73371879501E+01 -0.37973154039E+03  0.16801298149E+03  0.41530499521E+03  0.00000000000E+00 0. -1.
        -11    1    3    3    0    0 -0.36537487450E+02 -0.10726389128E+04  0.32441306065E+03  0.11212194518E+04  0.00000000000E+00 0.  1.
         22    1    1    2    0    0  0.29200299500E+02  0.14523704532E+04 -0.24919482896E+03  0.14738828494E+04  0.00000000000E+00 0. -1.
<mgrwt>
<rscale>  0 0.30005651E+04</rscale>
<asrwt>0</asrwt>
<pdfrwt beam="1">  1        2 0.21285970E+00 0.30005651E+04</pdfrwt>
<pdfrwt beam="2">  1       -2 0.25027989E+00 0.30005651E+04</pdfrwt>
<totfact> 0.81022062E-01</totfact>
</mgrwt>
</event>
<event>
 6    1  0.9562506E-007  0.1290052E+04  0.7818608E-02  0.9037491E-01
          2   -1    0    0  501    0  0.00000000000E+00  0.00000000000E+00  0.14228006444E+04  0.14228006444E+04  0.00000000000E+00 0. -1.
         -2   -1    0    0    0  501 -0.00000000000E+00 -0.00000000000E+00 -0.29242225338E+03  0.29242225338E+03  0.00000000000E+00 0.  1.
         23    2    1    2    0    0  0.22560368352E+03 -0.10450706438E+03 -0.21880391064E+03  0.34332216098E+03  0.90422377693E+02 0.  0.
         11    1    3    3    0    0  0.70125958736E+02 -0.21695069979E+02 -0.12183561201E+03  0.14224008754E+03  0.00000000000E+00 0.  1.
        -11    1    3    3    0    0  0.15547772478E+03 -0.82811994398E+02 -0.96968298634E+02  0.20108207344E+03  0.00000000000E+00 0. -1.
         22    1    1    2    0    0 -0.22560368352E+03  0.10450706438E+03  0.13491823017E+04  0.13719007368E+04  0.00000000000E+00 0. -1.
<mgrwt>
<rscale>  0 0.12900520E+04</rscale>
<asrwt>0</asrwt>
<pdfrwt beam="1">  1        2 0.21889240E+00 0.12900520E+04</pdfrwt>
<pdfrwt beam="2">  1       -2 0.44988040E-01 0.12900520E+04</pdfrwt>
<totfact> 0.64512972E+01</totfact>
</mgrwt>
</event>
<event>
 6    1  0.9562506E-007  0.9695579E+03  0.7818608E-02  0.9342578E-01
          1   -1    0    0  501    0  0.00000000000E+00  0.00000000000E+00  0.19099035373E+03  0.19099035373E+03  0.00000000000E+00 0. -1.
         -1   -1    0    0    0  501 -0.00000000000E+00 -0.00000000000E+00 -0.12304842877E+04  0.12304842877E+04  0.00000000000E+00 0.  1.
         23    2    1    2    0    0 -0.33884366802E+03  0.19574016970E+03 -0.93317979579E+03  0.10159725559E+04  0.90810008720E+02 0.  0.
         11    1    3    3    0    0 -0.16489090348E+03  0.71305066800E+02 -0.32596012698E+03  0.37218735467E+03  0.00000000000E+00 0.  1.
        -11    1    3    3    0    0 -0.17395276454E+03  0.12443510290E+03 -0.60721966881E+03  0.64378520123E+03  0.00000000000E+00 0. -1.
         22    1    1    2    0    0  0.33884366802E+03 -0.19574016970E+03 -0.10631413817E+03  0.40550208553E+03  0.00000000000E+00 0. -1.
<mgrwt>
<rscale>  0 0.96955790E+03</rscale>
<asrwt>0</asrwt>
<pdfrwt beam="1">  1        1 0.29383131E-01 0.96955790E+03</pdfrwt>
<pdfrwt beam="2">  1       -1 0.18930527E+00 0.96955790E+03</pdfrwt>
<totfact> 0.28410065E+01</totfact>
</mgrwt>
</event>
<event>
 6    1  0.9562506E-007  0.1671164E+04  0.7818608E-02  0.8777983E-01
          1   -1    0    0  501    0  0.00000000000E+00  0.00000000000E+00  0.18005124728E+04  0.18005124728E+04  0.00000000000E+00 0. -1.
         -1   -1    0    0    0  501 -0.00000000000E+00 -0.00000000000E+00 -0.38777720231E+03  0.38777720231E+03  0.00000000000E+00 0.  1.
         23    2    1    2    0    0  0.72501385186E+03  0.19858378847E+03  0.23907568517E+03  0.79453308638E+03  0.95105392511E+02 0.  0.
         11    1    3    3    0    0  0.25124489095E+03  0.11606592185E+03  0.91762776832E+02  0.29157451990E+03  0.00000000000E+00 0.  1.
        -11    1    3    3    0    0  0.47376896091E+03  0.82517866616E+02  0.14731290834E+03  0.50295856648E+03  0.00000000000E+00 0. -1.
         22    1    1    2    0    0 -0.72501385186E+03 -0.19858378847E+03  0.11736595853E+04  0.13937565888E+04  0.00000000000E+00 0. -1.
<mgrwt>
<rscale>  0 0.16711645E+04</rscale>
<asrwt>0</asrwt>
<pdfrwt beam="1">  1        1 0.27700192E+00 0.16711645E+04</pdfrwt>
<pdfrwt beam="2">  1       -1 0.59658032E-01 0.16711645E+04</pdfrwt>
<totfact> 0.11062129E+01</totfact>
</mgrwt>
</event>
<event>
 6    1  0.9562506E-007  0.2658311E+04  0.7818608E-02  0.8348660E-01
         -1   -1    0    0    0  501 -0.00000000000E+00  0.00000000000E+00  0.16705760052E+04  0.16705760052E+04  0.00000000000E+00 0.  1.
          1   -1    0    0  501    0  0.00000000000E+00 -0.00000000000E+00 -0.10575122772E+04  0.10575122772E+04  0.00000000000E+00 0. -1.
         23    2    1    2    0    0  0.72639747550E+03  0.63372004203E+02  0.14454823205E+04  0.16214763285E+04  0.89983563780E+02 0.  0.
         11    1    3    3    0    0  0.15464662692E+03 -0.14430053921E+02  0.36227384400E+03  0.39416512240E+03  0.00000000000E+00 0. -1.
        -11    1    3    3    0    0  0.57175084858E+03  0.77802058124E+02  0.10832084765E+04  0.12273112061E+04  0.00000000000E+00 0.  1.
         22    1    1    2    0    0 -0.72639747550E+03 -0.63372004203E+02 -0.83241859248E+03  0.11066119539E+04  0.00000000000E+00 0. -1.
<mgrwt>
<rscale>  0 0.26583112E+04</rscale>
<asrwt>0</asrwt>
<pdfrwt beam="1">  1        1 0.16269420E+00 0.26583112E+04</pdfrwt>
<pdfrwt beam="2">  1       -1 0.25701169E+00 0.26583112E+04</pdfrwt>
<totfact> 0.75091315E-01</totfact>
</mgrwt>
</event>
<event>
 6    1  0.9562506E-007  0.1341997E+04  0.7818608E-02  0.8996909E-01
         -2   -1    0    0    0  501 -0.00000000000E+00  0.00000000000E+00  0.51012626072E+03  0.51012626072E+03  0.00000000000E+00 0.  1.
          2   -1    0    0  501    0  0.00000000000E+00 -0.00000000000E+00 -0.88260292996E+03  0.88260292996E+03  0.00000000000E+00 0. -1.
         23    2    1    2    0    0 -0.52822690635E+03 -0.40782383994E+03 -0.15830132335E+03  0.69186185102E+03  0.90937137118E+02 0.  0.
         11    1    3    3    0    0 -0.25045452782E+03 -0.25016046596E+03 -0.76644824237E+02  0.36219077614E+03  0.00000000000E+00 0.  1.
        -11    1    3    3    0    0 -0.27777237853E+03 -0.15766337398E+03 -0.81656499115E+02  0.32967107488E+03  0.00000000000E+00 0. -1.
         22    1    1    2    0    0  0.52822690635E+03  0.40782383994E+03 -0.21417534588E+03  0.70086733966E+03  0.00000000000E+00 0.  1.
<mgrwt>
<rscale>  0 0.13419969E+04</rscale>
<asrwt>0</asrwt>
<pdfrwt beam="1">  1        2 0.13578507E+00 0.13419969E+04</pdfrwt>
<pdfrwt beam="2">  1       -2 0.78480963E-01 0.13419969E+04</pdfrwt>
<totfact> 0.42514270E+01</totfact>
</mgrwt>
</event>
<event>
 6    1  0.9562506E-007  0.1631682E+04  0.7818608E-02  0.8801318E-01
          2   -1    0    0  501    0  0.00000000000E+00  0.00000000000E+00  0.32104865644E+04  0.32104865644E+04  0.00000000000E+00 0. -1.
         -2   -1    0    0    0  501 -0.00000000000E+00 -0.00000000000E+00 -0.20731939462E+03  0.20731939462E+03  0.00000000000E+00 0.  1.
         23    2    1    2    0    0  0.26258152725E+02 -0.68257256880E+03  0.24305309394E+04  0.25264547069E+04  0.94328874859E+02 0.  0.
         11    1    3    3    0    0  0.42125758516E+02 -0.18283076834E+03  0.58177184087E+03  0.61127746908E+03  0.00000000000E+00 0.  1.
        -11    1    3    3    0    0 -0.15867605791E+02 -0.49974180045E+03  0.18487590985E+04  0.19151772378E+04  0.00000000000E+00 0. -1.
         22    1    1    2    0    0 -0.26258152725E+02  0.68257256880E+03  0.57263623044E+03  0.89135125213E+03  0.00000000000E+00 0.  1.
<mgrwt>
<rscale>  0 0.16316815E+04</rscale>
<asrwt>0</asrwt>
<pdfrwt beam="1">  1        2 0.49392097E+00 0.16316815E+04</pdfrwt>
<pdfrwt beam="2">  1       -2 0.31895294E-01 0.16316815E+04</pdfrwt>
<totfact> 0.11247418E+01</totfact>
</mgrwt>
</event>
<event>
 6    1  0.9562506E-007  0.2162412E+04  0.7818608E-02  0.8534238E-01
          1   -1    0    0  501    0  0.00000000000E+00  0.00000000000E+00  0.21995960540E+04  0.21995960540E+04  0.00000000000E+00 0. -1.
         -1   -1    0    0    0  501 -0.00000000000E+00 -0.00000000000E+00 -0.53146433376E+03  0.53146433376E+03  0.00000000000E+00 0.  1.
         23    2    1    2    0    0 -0.90527341129E+03  0.60837205327E+02  0.15737909086E+04  0.18188535563E+04  0.90494864435E+02 0.  0.
         11    1    3    3    0    0 -0.44427620600E+03 -0.15007130449E+02  0.75435877667E+03  0.87559335603E+03  0.00000000000E+00 0. -1.
        -11    1    3    3    0    0 -0.46099720529E+03  0.75844335775E+02  0.81943213192E+03  0.94326020025E+03  0.00000000000E+00 0.  1.
         22    1    1    2    0    0  0.90527341129E+03 -0.60837205327E+02  0.94340811693E+02  0.91220683153E+03  0.00000000000E+00 0.  1.
<mgrwt>
<rscale>  0 0.21624124E+04</rscale>
<asrwt>0</asrwt>
<pdfrwt beam="1">  1        1 0.33839939E+00 0.21624124E+04</pdfrwt>
<pdfrwt beam="2">  1       -1 0.81763745E-01 0.21624124E+04</pdfrwt>
<totfact> 0.29682717E+00</totfact>
</mgrwt>
</event>
<event>
 6    1  0.9562506E-007  0.2527417E+04  0.7818608E-02  0.8393283E-01
          2   -1    0    0  501    0  0.00000000000E+00  0.00000000000E+00  0.88932799282E+03  0.88932799282E+03  0.00000000000E+00 0. -1.
         -2   -1    0    0    0  501 -0.00000000000E+00 -0.00000000000E+00 -0.17956916507E+04  0.17956916507E+04  0.00000000000E+00 0.  1.
         23    2    1    2    0    0  0.85444963848E+03  0.92670534970E+03 -0.39175908252E+03  0.13235186855E+04  0.96744727026E+02 0.  0.
         13    1    3    3    0    0  0.48508593177E+03  0.59267386675E+03 -0.22263764038E+03  0.79758271824E+03  0.00000000000E+00 0. -1.
        -13    1    3    3    0    0  0.36936370671E+03  0.33403148295E+03 -0.16912144214E+03  0.52593596723E+03  0.00000000000E+00 0.  1.
         22    1    1    2    0    0 -0.85444963848E+03 -0.92670534970E+03 -0.51460457540E+03  0.13615009581E+04  0.00000000000E+00 0.  1.
<mgrwt>
<rscale>  0 0.25274167E+04</rscale>
<asrwt>0</asrwt>
<pdfrwt beam="1">  1        2 0.13681969E+00 0.25274167E+04</pdfrwt>
<pdfrwt beam="2">  1       -2 0.27626025E+00 0.25274167E+04</pdfrwt>
<totfact> 0.11775871E+00</totfact>
</mgrwt>
</event>
<event>
 6    1  0.9562506E-007  0.5370533E+04  0.7818608E-02  0.7773759E-01
          1   -1    0    0  501    0  0.00000000000E+00  0.00000000000E+00  0.35792839329E+04  0.35792839329E+04  0.00000000000E+00 0. -1.
         -1   -1    0    0    0  501 -0.00000000000E+00 -0.00000000000E+00 -0.20145530351E+04  0.20145530351E+04  0.00000000000E+00 0.  1.
         23    2    1    2    0    0  0.72186602334E+03  0.20406985204E+04 -0.87118497020E+03  0.23351214046E+04  0.91036889084E+02 0.  0.
         11    1    3    3    0    0  0.69266935690E+03  0.19964199156E+04 -0.84354698040E+03  0.22753142256E+04  0.00000000000E+00 0. -1.
        -11    1    3    3    0    0  0.29196666438E+02  0.44278604862E+02 -0.27637989804E+02  0.59807179000E+02  0.00000000000E+00 0.  1.
         22    1    1    2    0    0 -0.72186602334E+03 -0.20406985204E+04  0.24359158680E+04  0.32587155633E+04  0.00000000000E+00 0. -1.
<mgrwt>
<rscale>  0 0.53705334E+04</rscale>
<asrwt>0</asrwt>
<pdfrwt beam="1">  1        1 0.55065906E+00 0.53705334E+04</pdfrwt>
<pdfrwt beam="2">  1       -1 0.30993124E+00 0.53705334E+04</pdfrwt>
<totfact> 0.43084258E-03</totfact>
</mgrwt>
</event>
<event>
 6    1  0.9562506E-007  0.3749667E+04  0.7818608E-02  0.8057043E-01
          2   -1    0    0  501    0  0.00000000000E+00  0.00000000000E+00  0.28718102408E+04  0.28718102408E+04  0.00000000000E+00 0. -1.
         -2   -1    0    0    0  501 -0.00000000000E+00 -0.00000000000E+00 -0.12239669075E+04  0.12239669075E+04  0.00000000000E+00 0.  1.
         23    2    1    2    0    0 -0.15976231235E+04 -0.20973323147E+03  0.18690159220E+04  0.24693377898E+04  0.89559646773E+02 0.  0.
         13    1    3    3    0    0 -0.88278842749E+03 -0.15126023291E+03  0.99584244794E+03  0.13393644937E+04  0.00000000000E+00 0. -1.
        -13    1    3    3    0    0 -0.71483469596E+03 -0.58472998563E+02  0.87317347406E+03  0.11299732961E+04  0.00000000000E+00 0.  1.
         22    1    1    2    0    0  0.15976231235E+04  0.20973323147E+03 -0.22117258878E+03  0.16264393585E+04  0.00000000000E+00 0.  1.
<mgrwt>
<rscale>  0 0.37496670E+04</rscale>
<asrwt>0</asrwt>
<pdfrwt beam="1">  1        2 0.44181696E+00 0.37496670E+04</pdfrwt>
<pdfrwt beam="2">  1       -2 0.18830260E+00 0.37496670E+04</pdfrwt>
<totfact> 0.26775797E-01</totfact>
</mgrwt>
</event>
<event>
 6    1  0.9562506E-007  0.3135600E+04  0.7818608E-02  0.8206035E-01
         -2   -1    0    0    0  501 -0.00000000000E+00  0.00000000000E+00  0.11474715549E+04  0.11474715549E+04  0.00000000000E+00 0.  1.
          2   -1    0    0  501    0  0.00000000000E+00 -0.00000000000E+00 -0.21420979383E+04  0.21420979383E+04  0.00000000000E+00 0. -1.
         23    2    1    2    0    0  0.16245108675E+03 -0.50177347745E+03 -0.20451550634E+04  0.21140791761E+04  0.92220124292E+02 0.  0.
         13    1    3    3    0    0  0.85659162717E+02 -0.19589324119E+03 -0.98886741753E+03  0.10117165727E+04  0.00000000000E+00 0. -1.
        -13    1    3    3    0    0  0.76791924037E+02 -0.30588023626E+03 -0.10562876458E+04  0.11023626033E+04  0.00000000000E+00 0.  1.
         22    1    1    2    0    0 -0.16245108675E+03  0.50177347745E+03  0.10505286800E+04  0.11754903171E+04  0.00000000000E+00 0.  1.
<mgrwt>
<rscale>  0 0.31355998E+04</rscale>
<asrwt>0</asrwt>
<pdfrwt beam="1">  1        2 0.32955353E+00 0.31355998E+04</pdfrwt>
<pdfrwt beam="2">  1       -2 0.17653409E+00 0.31355998E+04</pdfrwt>
<totfact> 0.90306824E-01</totfact>
</mgrwt>
</event>
<event>
 6    1  0.9562506E-007  0.1318638E+04  0.7818608E-02  0.9014914E-01
         -1   -1    0    0    0  501 -0.00000000000E+00  0.00000000000E+00  0.16328155711E+04  0.16328155711E+04  0.00000000000E+00 0.  1.
          1   -1    0    0  501    0  0.00000000000E+00 -0.00000000000E+00 -0.26622830301E+03  0.26622830301E+03  0.00000000000E+00 0. -1.
         23    2    1    2    0    0  0.16432481375E+03 -0.54752733147E+03  0.22241884315E+03  0.62001681898E+03  0.90343184074E+02 0.  0.
         11    1    3    3    0    0  0.10265304243E+03 -0.35346554854E+03  0.18868710898E+03  0.41361620642E+03  0.00000000000E+00 0. -1.
        -11    1    3    3    0    0  0.61671771328E+02 -0.19406178294E+03  0.33731734175E+02  0.20640061256E+03  0.00000000000E+00 0.  1.
         22    1    1    2    0    0 -0.16432481375E+03  0.54752733147E+03  0.11441684249E+04  0.12790270551E+04  0.00000000000E+00 0.  1.
<mgrwt>
<rscale>  0 0.13186383E+04</rscale>
<asrwt>0</asrwt>
<pdfrwt beam="1">  1        1 0.40958202E-01 0.13186383E+04</pdfrwt>
<pdfrwt beam="2">  1       -1 0.25120239E+00 0.13186383E+04</pdfrwt>
<totfact> 0.68934658E+00</totfact>
</mgrwt>
</event>
<event>
 6    1  0.9562506E-007  0.2595787E+04  0.7818608E-02  0.8369634E-01
         -2   -1    0    0    0  501 -0.00000000000E+00  0.00000000000E+00  0.89216806774E+03  0.89216806774E+03  0.00000000000E+00 0.  1.
          2   -1    0    0  501    0  0.00000000000E+00 -0.00000000000E+00 -0.18881282415E+04  0.18881282415E+04  0.00000000000E+00 0. -1.
         23    2    1    2    0    0 -0.97497914825E+03  0.64632218592E+03 -0.10968965736E+04  0.16061988413E+04  0.91520035755E+02 0.  0.
         13    1    3    3    0    0 -0.80561995649E+03  0.49575573538E+03 -0.86137898292E+03  0.12793635198E+04  0.00000000000E+00 0.  1.
        -13    1    3    3    0    0 -0.16935919175E+03  0.15056645055E+03 -0.23551759071E+03  0.32683532152E+03  0.00000000000E+00 0. -1.
         22    1    1    2    0    0  0.97497914825E+03 -0.64632218592E+03  0.10093639984E+03  0.11740974680E+04  0.00000000000E+00 0.  1.
<mgrwt>
<rscale>  0 0.25957871E+04</rscale>
<asrwt>0</asrwt>
<pdfrwt beam="1">  1        2 0.29048127E+00 0.25957871E+04</pdfrwt>
<pdfrwt beam="2">  1       -2 0.13725663E+00 0.25957871E+04</pdfrwt>
<totfact> 0.25794685E+00</totfact>
</mgrwt>
</event>
<event>
 6    1  0.9562506E-007  0.4226204E+04  0.7818608E-02  0.7960406E-01
         -2   -1    0    0    0  501 -0.00000000000E+00  0.00000000000E+00  0.18558251293E+04  0.18558251293E+04  0.00000000000E+00 0.  1.
          2   -1    0    0  501    0  0.00000000000E+00 -0.00000000000E+00 -0.24060454674E+04  0.24060454674E+04  0.00000000000E+00 0. -1.
         23    2    1    2    0    0 -0.15942899957E+04  0.10977106434E+04  0.57700873539E+03  0.20219209028E+04  0.92172715902E+02 0.  0.
         13    1    3    3    0    0 -0.51832084048E+03  0.31490589060E+03  0.20696846955E+03  0.64082615505E+03  0.00000000000E+00 0. -1.
        -13    1    3    3    0    0 -0.10759691552E+04  0.78280475285E+03  0.37004026584E+03  0.13810947478E+04  0.00000000000E+00 0.  1.
         22    1    1    2    0    0  0.15942899957E+04 -0.10977106434E+04 -0.11272290734E+04  0.22399496939E+04  0.00000000000E+00 0. -1.
<mgrwt>
<rscale>  0 0.42262038E+04</rscale>
<asrwt>0</asrwt>
<pdfrwt beam="1">  1        2 0.37016084E+00 0.42262038E+04</pdfrwt>
<pdfrwt beam="2">  1       -2 0.28551156E+00 0.42262038E+04</pdfrwt>
<totfact> 0.11907229E-01</totfact>
</mgrwt>
</event>
<event>
 6    1  0.9562506E-007  0.2901518E+04  0.7818608E-02  0.8272426E-01
         -1   -1    0    0    0  501 -0.00000000000E+00  0.00000000000E+00  0.81685042415E+03  0.81685042415E+03  0.00000000000E+00 0.  1.
          1   -1    0    0  501    0  0.00000000000E+00 -0.00000000000E+00 -0.25766054294E+04  0.25766054294E+04  0.00000000000E+00 0. -1.
         23    2    1    2    0    0 -0.38514014560E+03  0.13871012655E+04 -0.10768716692E+04  0.18001220834E+04  0.91673719707E+02 0.  0.
         13    1    3    3    0    0 -0.13957891846E+03  0.61034815522E+03 -0.51201176855E+03  0.80880355847E+03  0.00000000000E+00 0. -1.
        -13    1    3    3    0    0 -0.24556122714E+03  0.77675311024E+03 -0.56485990066E+03  0.99131852495E+03  0.00000000000E+00 0.  1.
         22    1    1    2    0    0  0.38514014560E+03 -0.13871012655E+04 -0.68288333604E+03  0.15933337701E+04  0.00000000000E+00 0. -1.
<mgrwt>
<rscale>  0 0.29015177E+04</rscale>
<asrwt>0</asrwt>
<pdfrwt beam="1">  1        1 0.39640083E+00 0.29015177E+04</pdfrwt>
<pdfrwt beam="2">  1       -1 0.12566930E+00 0.29015177E+04</pdfrwt>
<totfact> 0.56758014E-01</totfact>
</mgrwt>
</event>
<event>
 6    1  0.9562506E-007  0.2044035E+04  0.7818608E-02  0.8586305E-01
         -2   -1    0    0    0  501 -0.00000000000E+00  0.00000000000E+00  0.14282202310E+04  0.14282202310E+04  0.00000000000E+00 0.  1.
          2   -1    0    0  501    0  0.00000000000E+00 -0.00000000000E+00 -0.73134378738E+03  0.73134378738E+03  0.00000000000E+00 0. -1.
         23    2    1    2    0    0 -0.25310186950E+03 -0.41272734204E+03 -0.59950318167E+03  0.77572712479E+03  0.89129636407E+02 0.  0.
         13    1    3    3    0    0 -0.13552213946E+03 -0.27846725311E+03 -0.42729077361E+03  0.52771930659E+03  0.00000000000E+00 0. -1.
        -13    1    3    3    0    0 -0.11757973004E+03 -0.13426008893E+03 -0.17221240806E+03  0.24800781820E+03  0.00000000000E+00 0.  1.
         22    1    1    2    0    0  0.25310186950E+03  0.41272734204E+03  0.12963796253E+04  0.13838368936E+04  0.00000000000E+00 0.  1.
<mgrwt>
<rscale>  0 0.20440352E+04</rscale>
<asrwt>0</asrwt>
<pdfrwt beam="1">  1        2 0.11251443E+00 0.20440352E+04</pdfrwt>
<pdfrwt beam="2">  1       -2 0.21972619E+00 0.20440352E+04</pdfrwt>
<totfact> 0.35572162E+00</totfact>
</mgrwt>
</event>
<event>
 6    1  0.9562506E-007  0.1968011E+04  0.7818608E-02  0.8621724E-01
          1   -1    0    0  501    0  0.00000000000E+00  0.00000000000E+00  0.13704369941E+04  0.13704369941E+04  0.00000000000E+00 0. -1.
         -1   -1    0    0    0  501 -0.00000000000E+00 -0.00000000000E+00 -0.70653853593E+03  0.70653853593E+03  0.00000000000E+00 0.  1.
         23    2    1    2    0    0 -0.24346949462E+03 -0.90117201576E+03  0.10996794464E+02  0.93782278381E+03  0.89455282347E+02 0.  0.
         11    1    3    3    0    0 -0.12728009297E+03 -0.61382371025E+03  0.26975885890E+02  0.62746112848E+03  0.00000000000E+00 0. -1.
        -11    1    3    3    0    0 -0.11618940165E+03 -0.28734830551E+03 -0.15979091426E+02  0.31036165533E+03  0.00000000000E+00 0.  1.
         22    1    1    2    0    0  0.24346949462E+03  0.90117201576E+03  0.65290166375E+03  0.11391527463E+04  0.00000000000E+00 0. -1.
<mgrwt>
<rscale>  0 0.19680107E+04</rscale>
<asrwt>0</asrwt>
<pdfrwt beam="1">  1        1 0.21083646E+00 0.19680107E+04</pdfrwt>
<pdfrwt beam="2">  1       -1 0.10869824E+00 0.19680107E+04</pdfrwt>
<totfact> 0.58856390E+00</totfact>
</mgrwt>
</event>
<event>
 6    1  0.9562506E-007  0.1196819E+04  0.7818608E-02  0.9115645E-01
          1   -1    0    0  501    0  0.00000000000E+00  0.00000000000E+00  0.60721420363E+03  0.60721420363E+03  0.00000000000E+00 0. -1.
         -1   -1    0    0    0  501 -0.00000000000E+00 -0.00000000000E+00 -0.58973258410E+03  0.58973258410E+03  0.00000000000E+00 0.  1.
         23    2    1    2    0    0  0.35299024362E+03 -0.39208893981E+03  0.28375103406E+03  0.60598549465E+03  0.91476344398E+02 0.  0.
         13    1    3    3    0    0  0.89358825527E+02 -0.91221397366E+02  0.26610683540E+02  0.13043953203E+03  0.00000000000E+00 0.  1.
        -13    1    3    3    0    0  0.26363141809E+03 -0.30086754244E+03  0.25714035052E+03  0.47554596262E+03  0.00000000000E+00 0. -1.
         22    1    1    2    0    0 -0.35299024362E+03  0.39208893981E+03 -0.26626941453E+03  0.59096129309E+03  0.00000000000E+00 0.  1.
<mgrwt>
<rscale>  0 0.11968191E+04</rscale>
<asrwt>0</asrwt>
<pdfrwt beam="1">  1        1 0.93417570E-01 0.11968191E+04</pdfrwt>
<pdfrwt beam="2">  1       -1 0.90728090E-01 0.11968191E+04</pdfrwt>
<totfact> 0.39561019E+01</totfact>
</mgrwt>
</event>
<event>
 6    1  0.9562506E-007  0.2264817E+04  0.7818608E-02  0.8491924E-01
          1   -1    0    0  501    0  0.00000000000E+00  0.00000000000E+00  0.18026780718E+04  0.18026780718E+04  0.00000000000E+00 0. -1.
         -1   -1    0    0    0  501 -0.00000000000E+00 -0.00000000000E+00 -0.71135788701E+03  0.71135788701E+03  0.00000000000E+00 0.  1.
         23    2    1    2    0    0 -0.10608664548E+04 -0.36899997875E+03  0.68974597054E+03  0.13211988079E+04  0.90654105177E+02 0.  0.
         13    1    3    3    0    0 -0.77651450078E+03 -0.30978895082E+03  0.52682731728E+03  0.98817558470E+03  0.00000000000E+00 0.  1.
        -13    1    3    3    0    0 -0.28435195402E+03 -0.59211027929E+02  0.16291865326E+03  0.33302322316E+03  0.00000000000E+00 0. -1.
         22    1    1    2    0    0  0.10608664548E+04  0.36899997875E+03  0.40157421430E+03  0.11928371510E+04  0.00000000000E+00 0. -1.
<mgrwt>
<rscale>  0 0.22648172E+04</rscale>
<asrwt>0</asrwt>
<pdfrwt beam="1">  1        1 0.27733509E+00 0.22648172E+04</pdfrwt>
<pdfrwt beam="2">  1       -1 0.10943968E+00 0.22648172E+04</pdfrwt>
<totfact> 0.28408674E+00</totfact>
</mgrwt>
</event>
<event>
 6    1  0.9562506E-007  0.5135558E+03  0.7818608E-02  0.1010300E+00
         -2   -1    0    0    0  501 -0.00000000000E+00  0.00000000000E+00  0.41452335504E+02  0.41452335504E+02  0.00000000000E+00 0.  1.
          2   -1    0    0  501    0  0.00000000000E+00 -0.00000000000E+00 -0.15906196673E+04  0.15906196673E+04  0.00000000000E+00 0. -1.
         23    2    1    2    0    0  0.13954261357E+03  0.17764182143E+03 -0.11298242172E+04  0.11557555057E+04  0.90770420742E+02 0.  0.
         13    1    3    3    0    0  0.15198339845E+02  0.15896558688E+01 -0.22882684954E+03  0.22933652917E+03  0.00000000000E+00 0. -1.
        -13    1    3    3    0    0  0.12434427373E+03  0.17605216556E+03 -0.90099736769E+03  0.92641897649E+03  0.00000000000E+00 0.  1.
         22    1    1    2    0    0 -0.13954261357E+03 -0.17764182143E+03 -0.41934311454E+03  0.47631649713E+03  0.00000000000E+00 0.  1.
<mgrwt>
<rscale>  0 0.51355584E+03</rscale>
<asrwt>0</asrwt>
<pdfrwt beam="1">  1        2 0.24471068E+00 0.51355584E+03</pdfrwt>
<pdfrwt beam="2">  1       -2 0.63772833E-02 0.51355584E+03</pdfrwt>
<totfact> 0.16277337E+03</totfact>
</mgrwt>
</event>
<event>
 6    1  0.9562506E-007  0.5390437E+04  0.7818608E-02  0.7770948E-01
         -2   -1    0    0    0  501 -0.00000000000E+00  0.00000000000E+00  0.14687070123E+04  0.14687070123E+04  0.00000000000E+00 0.  1.
          2   -1    0    0  501    0  0.00000000000E+00 -0.00000000000E+00 -0.49459848006E+04  0.49459848006E+04  0.00000000000E+00 0. -1.
         23    2    1    2    0    0  0.11992080394E+04  0.23322543052E+04 -0.10032161763E+04  0.28093498145E+04  0.92160825503E+02 0.  0.
         13    1    3    3    0    0  0.39238372638E+03  0.85222686066E+03 -0.37699760314E+03  0.10111294692E+04  0.00000000000E+00 0.  1.
        -13    1    3    3    0    0  0.80682431301E+03  0.14800274446E+04 -0.62621857316E+03  0.17982203453E+04  0.00000000000E+00 0. -1.
         22    1    1    2    0    0 -0.11992080394E+04 -0.23322543052E+04 -0.24740616120E+04  0.36053419985E+04  0.00000000000E+00 0. -1.
<mgrwt>
<rscale>  0 0.53904369E+04</rscale>
<asrwt>0</asrwt>
<pdfrwt beam="1">  1        2 0.76092073E+00 0.53904369E+04</pdfrwt>
<pdfrwt beam="2">  1       -2 0.22595493E+00 0.53904369E+04</pdfrwt>
<totfact> 0.25189265E-03</totfact>
</mgrwt>
</event>
<event>
 6    1  0.9562506E-007  0.1253605E+04  0.7818608E-02  0.9067189E-01
         -2   -1    0    0    0  501 -0.00000000000E+00  0.00000000000E+00  0.31231200863E+03  0.31231200863E+03  0.00000000000E+00 0.  1.
          2   -1    0    0  501    0  0.00000000000E+00 -0.00000000000E+00 -0.12579761896E+04  0.12579761896E+04  0.00000000000E+00 0. -1.
         23    2    1    2    0    0 -0.40898455372E+03 -0.75811518608E+02 -0.10570803889E+04  0.11396731463E+04  0.91761540707E+02 0.  0.
         13    1    3    3    0    0 -0.22482895350E+03 -0.48334908940E+02 -0.46076135703E+03  0.51496150331E+03  0.00000000000E+00 0. -1.
        -13    1    3    3    0    0 -0.18415560022E+03 -0.27476609668E+02 -0.59631903186E+03  0.62471164302E+03  0.00000000000E+00 0.  1.
         22    1    1    2    0    0  0.40898455372E+03  0.75811518608E+02  0.11141620792E+03  0.43061505190E+03  0.00000000000E+00 0.  1.
<mgrwt>
<rscale>  0 0.12536045E+04</rscale>
<asrwt>0</asrwt>
<pdfrwt beam="1">  1        2 0.19353480E+00 0.12536045E+04</pdfrwt>
<pdfrwt beam="2">  1       -2 0.48048001E-01 0.12536045E+04</pdfrwt>
<totfact> 0.70577953E+01</totfact>
</mgrwt>
</event>
<event>
 6    1  0.9562506E-007  0.1852408E+04  0.7818608E-02  0.8678916E-01
         -2   -1    0    0    0  501 -0.00000000000E+00  0.00000000000E+00  0.32212858146E+03  0.32212858146E+03  0.00000000000E+00 0.  1.
          2   -1    0    0  501    0  0.00000000000E+00 -0.00000000000E+00 -0.26630784793E+04  0.26630784793E+04  0.00000000000E+00 0. -1.
         23    2    1    2    0    0 -0.58645883116E+03  0.95579481835E+02 -0.23135652274E+04  0.23903799278E+04  0.90899612188E+02 0.  0.
         11    1    3    3    0    0 -0.24816508447E+03  0.85548894552E+02 -0.98248111215E+03  0.10169432916E+04  0.00000000000E+00 0. -1.
        -11    1    3    3    0    0 -0.33829374669E+03  0.10030587282E+02 -0.13310841153E+04  0.13734366362E+04  0.00000000000E+00 0.  1.
         22    1    1    2    0    0  0.58645883116E+03 -0.95579481835E+02 -0.27384670423E+02  0.59482713301E+03  0.00000000000E+00 0.  1.
<mgrwt>
<rscale>  0 0.18524078E+04</rscale>
<asrwt>0</asrwt>
<pdfrwt beam="1">  1        2 0.40970439E+00 0.18524078E+04</pdfrwt>
<pdfrwt beam="2">  1       -2 0.49558243E-01 0.18524078E+04</pdfrwt>
<totfact> 0.10135184E+01</totfact>
</mgrwt>
</event>
<event>
 6    1  0.9562506E-007  0.1907850E+04  0.7818608E-02  0.8650959E-01
          2   -1    0    0  501    0  0.00000000000E+00  0.00000000000E+00  0.11221174756E+04  0.11221174756E+04  0.00000000000E+00 0. -1.
         -2   -1    0    0    0  501 -0.00000000000E+00 -0.00000000000E+00 -0.81094239048E+03  0.81094239048E+03  0.00000000000E+00 0.  1.
         23    2    1    2    0    0 -0.79086248023E+03 -0.46516444220E+03 -0.10034384679E+03  0.92748080291E+03  0.91161018342E+02 0.  0.
         13    1    3    3    0    0 -0.61980750060E+03 -0.31993477220E+03 -0.82745126857E+02  0.70240042161E+03  0.00000000000E+00 0.  1.
        -13    1    3    3    0    0 -0.17105497963E+03 -0.14522967000E+03 -0.17598719932E+02  0.22508038130E+03  0.00000000000E+00 0. -1.
         22    1    1    2    0    0  0.79086248023E+03  0.46516444220E+03  0.41151893187E+03  0.10055790631E+04  0.00000000000E+00 0. -1.
<mgrwt>
<rscale>  0 0.19078497E+04</rscale>
<asrwt>0</asrwt>
<pdfrwt beam="1">  1        2 0.17263346E+00 0.19078497E+04</pdfrwt>
<pdfrwt beam="2">  1       -2 0.12476037E+00 0.19078497E+04</pdfrwt>
<totfact> 0.95223767E+00</totfact>
</mgrwt>
</event>
<event>
 6    1  0.9562506E-007  0.2634324E+04  0.7818608E-02  0.8356635E-01
          2   -1    0    0  501    0  0.00000000000E+00  0.00000000000E+00  0.16019817282E+04  0.16019817282E+04  0.00000000000E+00 0. -1.
         -2   -1    0    0    0  501 -0.00000000000E+00 -0.00000000000E+00 -0.10829807149E+04  0.10829807149E+04  0.00000000000E+00 0.  1.
         23    2    1    2    0    0 -0.25327277717E+03 -0.12891600208E+04  0.32786450439E+03  0.13573277705E+04  0.93610279696E+02 0.  0.
         13    1    3    3    0    0 -0.14239438532E+03 -0.58186630378E+03  0.11065231332E+03  0.60917032995E+03  0.00000000000E+00 0.  1.
        -13    1    3    3    0    0 -0.11087839185E+03 -0.70729371703E+03  0.21721219107E+03  0.74815744057E+03  0.00000000000E+00 0. -1.
         22    1    1    2    0    0  0.25327277717E+03  0.12891600208E+04  0.19113650888E+03  0.13276346726E+04  0.00000000000E+00 0.  1.
<mgrwt>
<rscale>  0 0.26343237E+04</rscale>
<asrwt>0</asrwt>
<pdfrwt beam="1">  1        2 0.24645873E+00 0.26343237E+04</pdfrwt>
<pdfrwt beam="2">  1       -2 0.16661242E+00 0.26343237E+04</pdfrwt>
<totfact> 0.22117276E+00</totfact>
</mgrwt>
</event>
<event>
 6    1  0.9562506E-007  0.9979326E+03  0.7818608E-02  0.9310815E-01
          2   -1    0    0  501    0  0.00000000000E+00  0.00000000000E+00  0.20807465078E+03  0.20807465078E+03  0.00000000000E+00 0. -1.
         -2   -1    0    0    0  501 -0.00000000000E+00 -0.00000000000E+00 -0.11965291488E+04  0.11965291488E+04  0.00000000000E+00 0.  1.
         23    2    1    2    0    0  0.19919193006E+03 -0.38846074766E+03 -0.17085924612E+03  0.47775905885E+03  0.92095922018E+02 0.  0.
         13    1    3    3    0    0  0.18669306984E+03 -0.27839126461E+03 -0.12235718454E+03  0.35682948189E+03  0.00000000000E+00 0. -1.
        -13    1    3    3    0    0  0.12498860221E+02 -0.11006948305E+03 -0.48502061582E+02  0.12092957696E+03  0.00000000000E+00 0.  1.
         22    1    1    2    0    0 -0.19919193006E+03  0.38846074766E+03 -0.81759525185E+03  0.92684474068E+03  0.00000000000E+00 0.  1.
<mgrwt>
<rscale>  0 0.99793263E+03</rscale>
<asrwt>0</asrwt>
<pdfrwt beam="1">  1        2 0.32011484E-01 0.99793263E+03</pdfrwt>
<pdfrwt beam="2">  1       -2 0.18408141E+00 0.99793263E+03</pdfrwt>
<totfact> 0.28083142E+01</totfact>
</mgrwt>
</event>
<event>
 6    1  0.9562506E-007  0.2081287E+04  0.7818608E-02  0.8569532E-01
          2   -1    0    0  501    0  0.00000000000E+00  0.00000000000E+00  0.12002590812E+04  0.12002590812E+04  0.00000000000E+00 0. -1.
         -2   -1    0    0    0  501 -0.00000000000E+00 -0.00000000000E+00 -0.90225444364E+03  0.90225444364E+03  0.00000000000E+00 0.  1.
         23    2    1    2    0    0  0.18290373465E+03 -0.69798323874E+02 -0.88218993274E+03  0.90619216085E+03  0.67820150418E+02 0.  0.
         13    1    3    3    0    0  0.75103940714E+02 -0.22381073256E+02 -0.21836417100E+03  0.23200091708E+03  0.00000000000E+00 0.  1.
        -13    1    3    3    0    0  0.10779979393E+03 -0.47417250618E+02 -0.66382576174E+03  0.67419124377E+03  0.00000000000E+00 0. -1.
         22    1    1    2    0    0 -0.18290373465E+03  0.69798323874E+02  0.11801945703E+04  0.11963213640E+04  0.00000000000E+00 0. -1.
<mgrwt>
<rscale>  0 0.20812872E+04</rscale>
<asrwt>0</asrwt>
<pdfrwt beam="1">  1        2 0.18465524E+00 0.20812872E+04</pdfrwt>
<pdfrwt beam="2">  1       -2 0.13880838E+00 0.20812872E+04</pdfrwt>
<totfact> 0.64181050E+00</totfact>
</mgrwt>
</event>
<event>
 6    1  0.9562506E-007  0.1589354E+04  0.7818608E-02  0.8827115E-01
         -1   -1    0    0    0  501 -0.00000000000E+00  0.00000000000E+00  0.42322030000E+03  0.42322030000E+03  0.00000000000E+00 0.  1.
          1   -1    0    0  501    0  0.00000000000E+00 -0.00000000000E+00 -0.14921588271E+04  0.14921588271E+04  0.00000000000E+00 0. -1.
         23    2    1    2    0    0  0.29147854003E+03  0.71179539352E+03 -0.76480656019E+03  0.10882705038E+04  0.88267736485E+02 0.  0.
         13    1    3    3    0    0  0.15844340006E+03  0.31246128546E+03 -0.30031583234E+03  0.46143901557E+03  0.00000000000E+00 0.  1.
        -13    1    3    3    0    0  0.13303513997E+03  0.39933410806E+03 -0.46449072785E+03  0.62683148819E+03  0.00000000000E+00 0. -1.
         22    1    1    2    0    0 -0.29147854003E+03 -0.71179539352E+03 -0.30413196695E+03  0.82710862337E+03  0.00000000000E+00 0.  1.
<mgrwt>
<rscale>  0 0.15893545E+04</rscale>
<asrwt>0</asrwt>
<pdfrwt beam="1">  1        1 0.22956290E+00 0.15893545E+04</pdfrwt>
<pdfrwt beam="2">  1       -1 0.65110814E-01 0.15893545E+04</pdfrwt>
<totfact> 0.15212795E+01</totfact>
</mgrwt>
</event>
<event>
 6    1  0.9562506E-007  0.3018579E+04  0.7818608E-02  0.8238445E-01
         -2   -1    0    0    0  501 -0.00000000000E+00  0.00000000000E+00  0.79748796500E+03  0.79748796500E+03  0.00000000000E+00 0.  1.
          2   -1    0    0  501    0  0.00000000000E+00 -0.00000000000E+00 -0.28564128182E+04  0.28564128182E+04  0.00000000000E+00 0. -1.
         23    2    1    2    0    0 -0.10241872139E+04 -0.10018089698E+04 -0.15996269595E+04  0.21493958095E+04  0.92278248752E+02 0.  0.
         13    1    3    3    0    0 -0.74533610529E+03 -0.75021647823E+03 -0.12354575163E+04  0.16262551917E+04  0.00000000000E+00 0. -1.
        -13    1    3    3    0    0 -0.27885110857E+03 -0.25159249154E+03 -0.36416944323E+03  0.52314061774E+03  0.00000000000E+00 0.  1.
         22    1    1    2    0    0  0.10241872139E+04  0.10018089698E+04 -0.45929789373E+03  0.15045049738E+04  0.00000000000E+00 0.  1.
<mgrwt>
<rscale>  0 0.30185790E+04</rscale>
<asrwt>0</asrwt>
<pdfrwt beam="1">  1        2 0.43944813E+00 0.30185790E+04</pdfrwt>
<pdfrwt beam="2">  1       -2 0.12269046E+00 0.30185790E+04</pdfrwt>
<totfact> 0.91710397E-01</totfact>
</mgrwt>
</event>
<event>
 6    1  0.9562506E-007  0.3464013E+03  0.7818608E-02  0.1064102E+00
          2   -1    0    0  501    0  0.00000000000E+00  0.00000000000E+00  0.31487758508E+03  0.31487758508E+03  0.00000000000E+00 0. -1.
         -2   -1    0    0    0  501 -0.00000000000E+00 -0.00000000000E+00 -0.95270245145E+02  0.95270245145E+02  0.00000000000E+00 0.  1.
         23    2    1    2    0    0  0.10649965410E+03  0.82476515339E+02  0.12496505372E+02  0.16308619885E+03  0.91084541508E+02 0.  0.
         11    1    3    3    0    0  0.10100000078E+03  0.56467219375E+02 -0.23760319993E+02  0.11812747279E+03  0.00000000000E+00 0.  1.
        -11    1    3    3    0    0  0.54996533218E+01  0.26009295964E+02  0.36256825365E+02  0.44958726058E+02  0.00000000000E+00 0. -1.
         22    1    1    2    0    0 -0.10649965410E+03 -0.82476515339E+02  0.20711083457E+03  0.24706163138E+03  0.00000000000E+00 0. -1.
<mgrwt>
<rscale>  0 0.34640130E+03</rscale>
<asrwt>0</asrwt>
<pdfrwt beam="1">  1        2 0.48442705E-01 0.34640130E+03</pdfrwt>
<pdfrwt beam="2">  1       -2 0.14656961E-01 0.34640130E+03</pdfrwt>
<totfact> 0.37017488E+03</totfact>
</mgrwt>
</event>
<event>
 6    1  0.9562506E-007  0.4540795E+04  0.7818608E-02  0.7903533E-01
         -1   -1    0    0    0  501 -0.00000000000E+00  0.00000000000E+00  0.14008917218E+04  0.14008917218E+04  0.00000000000E+00 0.  1.
          1   -1    0    0  501    0  0.00000000000E+00 -0.00000000000E+00 -0.36795888576E+04  0.36795888576E+04  0.00000000000E+00 0. -1.
         23    2    1    2    0    0 -0.64678050320E+03 -0.11980323636E+04 -0.31713366549E+04  0.34524720184E+04  0.92629884459E+02 0.  0.
         11    1    3    3    0    0 -0.38213445513E+03 -0.63596474454E+03 -0.18042600510E+04  0.19508542307E+04  0.00000000000E+00 0.  1.
        -11    1    3    3    0    0 -0.26464604807E+03 -0.56206761904E+03 -0.13670766040E+04  0.15016177877E+04  0.00000000000E+00 0. -1.
         22    1    1    2    0    0  0.64678050320E+03  0.11980323636E+04  0.89263951920E+03  0.16280085610E+04  0.00000000000E+00 0.  1.
<mgrwt>
<rscale>  0 0.45407953E+04</rscale>
<asrwt>0</asrwt>
<pdfrwt beam="1">  1        1 0.56609059E+00 0.45407953E+04</pdfrwt>
<pdfrwt beam="2">  1       -1 0.21552181E+00 0.45407953E+04</pdfrwt>
<totfact> 0.15808434E-02</totfact>
</mgrwt>
</event>
<event>
 6    1  0.9562506E-007  0.1160615E+04  0.7818608E-02  0.9148046E-01
         -1   -1    0    0    0  501 -0.00000000000E+00  0.00000000000E+00  0.71109928890E+03  0.71109928890E+03  0.00000000000E+00 0.  1.
          1   -1    0    0  501    0  0.00000000000E+00 -0.00000000000E+00 -0.47357229098E+03  0.47357229098E+03  0.00000000000E+00 0. -1.
         23    2    1    2    0    0 -0.11943338829E+03  0.53884646635E+03  0.29042927286E+03  0.63021824619E+03  0.90587122477E+02 0.  0.
         11    1    3    3    0    0 -0.94532925226E+02  0.25145912903E+03  0.16801088204E+03  0.31685300063E+03  0.00000000000E+00 0.  1.
        -11    1    3    3    0    0 -0.24900463060E+02  0.28738733732E+03  0.12241839082E+03  0.31336524556E+03  0.00000000000E+00 0. -1.
         22    1    1    2    0    0  0.11943338829E+03 -0.53884646635E+03 -0.52902274941E+02  0.55445333368E+03  0.00000000000E+00 0. -1.
<mgrwt>
<rscale>  0 0.11606152E+04</rscale>
<asrwt>0</asrwt>
<pdfrwt beam="1">  1        1 0.72857276E-01 0.11606152E+04</pdfrwt>
<pdfrwt beam="2">  1       -1 0.10939989E+00 0.11606152E+04</pdfrwt>
<totfact> 0.36665447E+01</totfact>
</mgrwt>
</event>
<event>
 6    1  0.9562506E-007  0.7799450E+03  0.7818608E-02  0.9589508E-01
         -1   -1    0    0    0  501 -0.00000000000E+00  0.00000000000E+00  0.35929800262E+03  0.35929800262E+03  0.00000000000E+00 0.  1.
          1   -1    0    0  501    0  0.00000000000E+00 -0.00000000000E+00 -0.42326581760E+03  0.42326581760E+03  0.00000000000E+00 0. -1.
         23    2    1    2    0    0  0.27069538423E+03 -0.11750719403E+03  0.21518415590E+03  0.37634989316E+03  0.90835507573E+02 0.  0.
         11    1    3    3    0    0  0.21541210442E+03 -0.70353228036E+02  0.11945300780E+03  0.25616590815E+03  0.00000000000E+00 0.  1.
        -11    1    3    3    0    0  0.55283279815E+02 -0.47153965997E+02  0.95731148104E+02  0.12018398501E+03  0.00000000000E+00 0. -1.
         22    1    1    2    0    0 -0.27069538423E+03  0.11750719403E+03 -0.27915197088E+03  0.40621392706E+03  0.00000000000E+00 0. -1.
<mgrwt>
<rscale>  0 0.77994503E+03</rscale>
<asrwt>0</asrwt>
<pdfrwt beam="1">  1        1 0.65117818E-01 0.77994503E+03</pdfrwt>
<pdfrwt beam="2">  1       -1 0.55276616E-01 0.77994503E+03</pdfrwt>
<totfact> 0.18632250E+02</totfact>
</mgrwt>
</event>
<event>
 6    1  0.9562506E-007  0.2149231E+04  0.7818608E-02  0.8539862E-01
         -1   -1    0    0    0  501 -0.00000000000E+00  0.00000000000E+00  0.10174626842E+04  0.10174626842E+04  0.00000000000E+00 0.  1.
          1   -1    0    0  501    0  0.00000000000E+00 -0.00000000000E+00 -0.11349783505E+04  0.11349783505E+04  0.00000000000E+00 0. -1.
         23    2    1    2    0    0  0.81560305579E+03  0.12088992887E+03 -0.74624202083E+03  0.11155613173E+04  0.88188318764E+02 0.  0.
         13    1    3    3    0    0  0.19957561813E+03  0.18949361572E+02 -0.23233451109E+03  0.30686940333E+03  0.00000000000E+00 0.  1.
        -13    1    3    3    0    0  0.61602743766E+03  0.10194056730E+03 -0.51390750973E+03  0.80869191400E+03  0.00000000000E+00 0. -1.
         22    1    1    2    0    0 -0.81560305579E+03 -0.12088992887E+03  0.62872635454E+03  0.10368797174E+04  0.00000000000E+00 0.  1.
<mgrwt>
<rscale>  0 0.21492307E+04</rscale>
<asrwt>0</asrwt>
<pdfrwt beam="1">  1        1 0.17461205E+00 0.21492307E+04</pdfrwt>
<pdfrwt beam="2">  1       -1 0.15653272E+00 0.21492307E+04</pdfrwt>
<totfact> 0.33950133E+00</totfact>
</mgrwt>
</event>
<event>
 6    1  0.9562506E-007  0.5183001E+04  0.7818608E-02  0.7800881E-01
          2   -1    0    0  501    0  0.00000000000E+00  0.00000000000E+00  0.36155252892E+04  0.36155252892E+04  0.00000000000E+00 0. -1.
         -2   -1    0    0    0  501 -0.00000000000E+00 -0.00000000000E+00 -0.18575099443E+04  0.18575099443E+04  0.00000000000E+00 0.  1.
         23    2    1    2    0    0 -0.17484866192E+03 -0.21019001305E+04 -0.70926228318E+03  0.22271123898E+04  0.91762721505E+02 0.  0.
         11    1    3    3    0    0 -0.72602699194E+02 -0.11407602692E+04 -0.34210376763E+03  0.11931639165E+04  0.00000000000E+00 0.  1.
        -11    1    3    3    0    0 -0.10224596272E+03 -0.96113986132E+03 -0.36715851556E+03  0.10339484733E+04  0.00000000000E+00 0. -1.
         22    1    1    2    0    0  0.17484866192E+03  0.21019001305E+04  0.24672776281E+04  0.32459228437E+04  0.00000000000E+00 0. -1.
<mgrwt>
<rscale>  0 0.51830007E+04</rscale>
<asrwt>0</asrwt>
<pdfrwt beam="1">  1        2 0.55623466E+00 0.51830007E+04</pdfrwt>
<pdfrwt beam="2">  1       -2 0.28577076E+00 0.51830007E+04</pdfrwt>
<totfact> 0.18700585E-02</totfact>
</mgrwt>
</event>
<event>
 6    1  0.9562506E-007  0.1999445E+04  0.7818608E-02  0.8606880E-01
         -2   -1    0    0    0  501 -0.00000000000E+00  0.00000000000E+00  0.13395831144E+04  0.13395831144E+04  0.00000000000E+00 0.  1.
          2   -1    0    0  501    0  0.00000000000E+00 -0.00000000000E+00 -0.74608649217E+03  0.74608649217E+03  0.00000000000E+00 0. -1.
         23    2    1    2    0    0  0.26768513531E+03  0.21245196139E+03  0.12750842683E+04  0.13232045996E+04  0.90770884957E+02 0.  0.
         11    1    3    3    0    0  0.22608387876E+03  0.19272635388E+03  0.11893295626E+04  0.12258720065E+04  0.00000000000E+00 0.  1.
        -11    1    3    3    0    0  0.41601256554E+02  0.19725607507E+02  0.85754705655E+02  0.97332593104E+02  0.00000000000E+00 0. -1.
         22    1    1    2    0    0 -0.26768513531E+03 -0.21245196139E+03 -0.68158764608E+03  0.76246500697E+03  0.00000000000E+00 0. -1.
<mgrwt>
<rscale>  0 0.19994448E+04</rscale>
<asrwt>0</asrwt>
<pdfrwt beam="1">  1        2 0.11478254E+00 0.19994448E+04</pdfrwt>
<pdfrwt beam="2">  1       -2 0.20608971E+00 0.19994448E+04</pdfrwt>
<totfact> 0.42549712E+00</totfact>
</mgrwt>
</event>
<event>
 6    1  0.9562506E-007  0.7243703E+03  0.7818608E-02  0.9676440E-01
         -3   -1    0    0    0  501 -0.00000000000E+00  0.00000000000E+00  0.65584296780E+03  0.65584296780E+03  0.00000000000E+00 0.  1.
          3   -1    0    0  501    0  0.00000000000E+00 -0.00000000000E+00 -0.20001449226E+03  0.20001449226E+03  0.00000000000E+00 0. -1.
         23    2    1    2    0    0  0.97339690711E+01 -0.35615676176E+03  0.21357773005E+03  0.42501199729E+03  0.89874145128E+02 0.  0.
         13    1    3    3    0    0 -0.48550393858E+01 -0.14658262375E+03  0.13905401742E+03  0.20210407406E+03  0.00000000000E+00 0.  1.
        -13    1    3    3    0    0  0.14589008457E+02 -0.20957413802E+03  0.74523712632E+02  0.22290792323E+03  0.00000000000E+00 0. -1.
         22    1    1    2    0    0 -0.97339690711E+01  0.35615676176E+03  0.24225074548E+03  0.43084546277E+03  0.00000000000E+00 0.  1.
<mgrwt>
<rscale>  0 0.72437034E+03</rscale>
<asrwt>0</asrwt>
<pdfrwt beam="1">  1        3 0.30771461E-01 0.72437034E+03</pdfrwt>
<pdfrwt beam="2">  1       -3 0.10089892E+00 0.72437034E+03</pdfrwt>
<totfact> 0.23307018E+01</totfact>
</mgrwt>
</event>
<event>
 6    1  0.9562506E-007  0.1180813E+04  0.7818608E-02  0.9129819E-01
         -1   -1    0    0    0  501 -0.00000000000E+00  0.00000000000E+00  0.94535861170E+03  0.94535861170E+03  0.00000000000E+00 0.  1.
          1   -1    0    0  501    0  0.00000000000E+00 -0.00000000000E+00 -0.36872764107E+03  0.36872764107E+03  0.00000000000E+00 0. -1.
         23    2    1    2    0    0 -0.18347258880E+03 -0.54470045016E+03  0.42207501565E+03  0.71889862313E+03  0.91143514583E+02 0.  0.
         13    1    3    3    0    0 -0.44064504281E+02 -0.91826614032E+02  0.11800736456E+03  0.15588311542E+03  0.00000000000E+00 0. -1.
        -13    1    3    3    0    0 -0.13940808452E+03 -0.45287383613E+03  0.30406765108E+03  0.56301550771E+03  0.00000000000E+00 0.  1.
         22    1    1    2    0    0  0.18347258880E+03  0.54470045016E+03  0.15455595498E+03  0.59518762964E+03  0.00000000000E+00 0. -1.
<mgrwt>
<rscale>  0 0.11808130E+04</rscale>
<asrwt>0</asrwt>
<pdfrwt beam="1">  1        1 0.56727330E-01 0.11808130E+04</pdfrwt>
<pdfrwt beam="2">  1       -1 0.14543979E+00 0.11808130E+04</pdfrwt>
<totfact> 0.25114283E+01</totfact>
</mgrwt>
</event>
<event>
 6    1  0.9562506E-007  0.2988573E+04  0.7818608E-02  0.8247001E-01
         -2   -1    0    0    0  501 -0.00000000000E+00  0.00000000000E+00  0.10421166983E+04  0.10421166983E+04  0.00000000000E+00 0.  1.
          2   -1    0    0  501    0  0.00000000000E+00 -0.00000000000E+00 -0.21426506475E+04  0.21426506475E+04  0.00000000000E+00 0. -1.
         23    2    1    2    0    0 -0.41184559504E+03 -0.26258336357E+03  0.95228058986E+03  0.10746454657E+04  0.97250902552E+02 0.  0.
         11    1    3    3    0    0 -0.30665120900E+03 -0.23906581336E+03  0.77732652926E+03  0.86915128729E+03  0.00000000000E+00 0.  1.
        -11    1    3    3    0    0 -0.10519438604E+03 -0.23517550205E+02  0.17495406060E+03  0.20549417837E+03  0.00000000000E+00 0. -1.
         22    1    1    2    0    0  0.41184559504E+03  0.26258336357E+03 -0.20528145391E+04  0.21101218801E+04  0.00000000000E+00 0. -1.
<mgrwt>
<rscale>  0 0.29885729E+04</rscale>
<asrwt>0</asrwt>
<pdfrwt beam="1">  1        2 0.32963856E+00 0.29885729E+04</pdfrwt>
<pdfrwt beam="2">  1       -2 0.16032565E+00 0.29885729E+04</pdfrwt>
<totfact> 0.11936920E+00</totfact>
</mgrwt>
</event>
<event>
 6    1  0.9562506E-007  0.4384714E+04  0.7818608E-02  0.7931137E-01
          2   -1    0    0  501    0  0.00000000000E+00  0.00000000000E+00  0.18359942580E+04  0.18359942580E+04  0.00000000000E+00 0. -1.
         -2   -1    0    0    0  501 -0.00000000000E+00 -0.00000000000E+00 -0.26178896067E+04  0.26178896067E+04  0.00000000000E+00 0.  1.
         23    2    1    2    0    0 -0.21017918128E+04  0.33778783260E+03  0.13707303962E+03  0.21352350463E+04  0.93862880761E+02 0.  0.
         13    1    3    3    0    0 -0.50858133121E+03  0.11079471167E+03  0.61943090451E+02  0.52418258750E+03  0.00000000000E+00 0.  1.
        -13    1    3    3    0    0 -0.15932104816E+04  0.22699312093E+03  0.75129949164E+02  0.16110524588E+04  0.00000000000E+00 0. -1.
         22    1    1    2    0    0  0.21017918128E+04 -0.33778783260E+03 -0.91896838828E+03  0.23186488184E+04  0.00000000000E+00 0.  1.
<mgrwt>
<rscale>  0 0.43847145E+04</rscale>
<asrwt>0</asrwt>
<pdfrwt beam="1">  1        2 0.28246065E+00 0.43847145E+04</pdfrwt>
<pdfrwt beam="2">  1       -2 0.40275225E+00 0.43847145E+04</pdfrwt>
<totfact> 0.44877861E-02</totfact>
</mgrwt>
</event>
<event>
 6    1  0.1019543E-006  0.2283132E+04  0.7818608E-02  0.8484602E-01
         -1   -1    0    0    0  501 -0.00000000000E+00  0.00000000000E+00  0.93406011371E+03  0.93406011371E+03  0.00000000000E+00 0.  1.
          1   -1    0    0  501    0  0.00000000000E+00 -0.00000000000E+00 -0.13951702962E+04  0.13951702962E+04  0.00000000000E+00 0. -1.
         23    2    1    2    0    0 -0.50744887066E+03 -0.98677041027E+03 -0.49676835785E+03  0.12190539806E+04  0.89964477513E+02 0.  0.
         11    1    3    3    0    0 -0.20208902696E+03 -0.35270645976E+03 -0.13926753962E+03  0.42969439043E+03  0.00000000000E+00 0.  1.
        -11    1    3    3    0    0 -0.30535984370E+03 -0.63406395051E+03 -0.35750081823E+03  0.78935959012E+03  0.00000000000E+00 0. -1.
         22    1    1    2    0    0  0.50744887066E+03  0.98677041027E+03  0.35658175313E+02  0.11101764294E+04  0.00000000000E+00 0. -1.
<mgrwt>
<rscale>  0 0.22831320E+04</rscale>
<asrwt>0</asrwt>
<pdfrwt beam="1">  1        1 0.21464158E+00 0.22831320E+04</pdfrwt>
<pdfrwt beam="2">  1       -1 0.14370156E+00 0.22831320E+04</pdfrwt>
<totfact> 0.27429260E+00</totfact>
</mgrwt>
</event>
<event>
 6    1  0.9562506E-007  0.4126711E+04  0.7818608E-02  0.7979462E-01
         -2   -1    0    0    0  501 -0.00000000000E+00  0.00000000000E+00  0.21280799530E+04  0.21280799530E+04  0.00000000000E+00 0.  1.
          2   -1    0    0  501    0  0.00000000000E+00 -0.00000000000E+00 -0.20005993104E+04  0.20005993104E+04  0.00000000000E+00 0. -1.
         23    2    1    2    0    0  0.39253144888E+03 -0.13957345873E+04  0.15310540792E+04  0.21107163380E+04  0.94026005294E+02 0.  0.
         11    1    3    3    0    0  0.13153625785E+03 -0.57046083355E+03  0.67158317360E+03  0.89092721858E+03  0.00000000000E+00 0. -1.
        -11    1    3    3    0    0  0.26099519103E+03 -0.82527375376E+03  0.85947090558E+03  0.12197891195E+04  0.00000000000E+00 0.  1.
         22    1    1    2    0    0 -0.39253144888E+03  0.13957345873E+04 -0.14035734365E+04  0.20179629254E+04  0.00000000000E+00 0. -1.
<mgrwt>
<rscale>  0 0.41267107E+04</rscale>
<asrwt>0</asrwt>
<pdfrwt beam="1">  1        2 0.30778451E+00 0.41267107E+04</pdfrwt>
<pdfrwt beam="2">  1       -2 0.32739692E+00 0.41267107E+04</pdfrwt>
<totfact> 0.11231617E-01</totfact>
</mgrwt>
</event>
<event>
 6    1  0.9562506E-007  0.1073142E+04  0.7818608E-02  0.9231772E-01
          2   -1    0    0  501    0  0.00000000000E+00  0.00000000000E+00  0.65083856838E+03  0.65083856838E+03  0.00000000000E+00 0. -1.
         -2   -1    0    0    0  501 -0.00000000000E+00 -0.00000000000E+00 -0.44236536103E+03  0.44236536103E+03  0.00000000000E+00 0.  1.
         23    2    1    2    0    0  0.69952565923E+02  0.34086024066E+03  0.51599062316E+03  0.62882689923E+03  0.89988226269E+02 0.  0.
         11    1    3    3    0    0  0.66789368163E+02  0.11957684583E+03  0.17331291488E+03  0.22089999597E+03  0.00000000000E+00 0.  1.
        -11    1    3    3    0    0  0.31631977595E+01  0.22128339483E+03  0.34267770828E+03  0.40792690325E+03  0.00000000000E+00 0. -1.
         22    1    1    2    0    0 -0.69952565923E+02 -0.34086024066E+03 -0.30751741581E+03  0.46437703019E+03  0.00000000000E+00 0.  1.
<mgrwt>
<rscale>  0 0.10731420E+04</rscale>
<asrwt>0</asrwt>
<pdfrwt beam="1">  1        2 0.10012901E+00 0.10731420E+04</pdfrwt>
<pdfrwt beam="2">  1       -2 0.68056209E-01 0.10731420E+04</pdfrwt>
<totfact> 0.88292485E+01</totfact>
</mgrwt>
</event>
<event>
 6    1  0.9562506E-007  0.3087526E+04  0.7818608E-02  0.8219170E-01
          2   -1    0    0  501    0  0.00000000000E+00  0.00000000000E+00  0.19498999732E+04  0.19498999732E+04  0.00000000000E+00 0. -1.
         -2   -1    0    0    0  501 -0.00000000000E+00 -0.00000000000E+00 -0.12222185220E+04  0.12222185220E+04  0.00000000000E+00 0.  1.
         23    2    1    2    0    0 -0.10992138654E+04  0.28925097608E+03 -0.70711913577E+03  0.13416568121E+04  0.89934866690E+02 0.  0.
         11    1    3    3    0    0 -0.22424425972E+03  0.29089111342E+02 -0.11593290369E+03  0.25411041414E+03  0.00000000000E+00 0. -1.
        -11    1    3    3    0    0 -0.87496960565E+03  0.26016186474E+03 -0.59118623208E+03  0.10875463979E+04  0.00000000000E+00 0.  1.
         22    1    1    2    0    0  0.10992138654E+04 -0.28925097608E+03  0.14348005870E+04  0.18304616831E+04  0.00000000000E+00 0. -1.
<mgrwt>
<rscale>  0 0.30875258E+04</rscale>
<asrwt>0</asrwt>
<pdfrwt beam="1">  1        2 0.29998461E+00 0.30875258E+04</pdfrwt>
<pdfrwt beam="2">  1       -2 0.18803362E+00 0.30875258E+04</pdfrwt>
<totfact> 0.96760564E-01</totfact>
</mgrwt>
</event>
<event>
 6    1  0.9562506E-007  0.2722917E+04  0.7818608E-02  0.8327607E-01
          2   -1    0    0  501    0  0.00000000000E+00  0.00000000000E+00  0.13857235026E+04  0.13857235026E+04  0.00000000000E+00 0. -1.
         -2   -1    0    0    0  501 -0.00000000000E+00 -0.00000000000E+00 -0.13376187083E+04  0.13376187083E+04  0.00000000000E+00 0.  1.
         23    2    1    2    0    0 -0.85313818765E+03 -0.71775368111E+02  0.10809007113E+04  0.13818266960E+04  0.90012217972E+02 0.  0.
         13    1    3    3    0    0 -0.12813808261E+03  0.14942495660E+02  0.13275449211E+03  0.18511186231E+03  0.00000000000E+00 0. -1.
        -13    1    3    3    0    0 -0.72500010504E+03 -0.86717863771E+02  0.94814621921E+03  0.11967148337E+04  0.00000000000E+00 0.  1.
         22    1    1    2    0    0  0.85313818765E+03  0.71775368111E+02 -0.10327959169E+04  0.13415155149E+04  0.00000000000E+00 0.  1.
<mgrwt>
<rscale>  0 0.27229173E+04</rscale>
<asrwt>0</asrwt>
<pdfrwt beam="1">  1        2 0.21318823E+00 0.27229173E+04</pdfrwt>
<pdfrwt beam="2">  1       -2 0.20578749E+00 0.27229173E+04</pdfrwt>
<totfact> 0.15743558E+00</totfact>
</mgrwt>
</event>
<event>
 6    1  0.9562506E-007  0.2453256E+04  0.7818608E-02  0.8419830E-01
          2   -1    0    0  501    0  0.00000000000E+00  0.00000000000E+00  0.29322185677E+04  0.29322185677E+04  0.00000000000E+00 0. -1.
         -2   -1    0    0    0  501 -0.00000000000E+00 -0.00000000000E+00 -0.51313253653E+03  0.51313253653E+03  0.00000000000E+00 0.  1.
         23    2    1    2    0    0 -0.64282318878E+03 -0.86876898444E+03  0.40031924677E+03  0.11555038320E+04  0.83381089459E+02 0.  0.
         11    1    3    3    0    0 -0.80539785071E+02 -0.16083767551E+03  0.65162201547E+02  0.19131525646E+03  0.00000000000E+00 0.  1.
        -11    1    3    3    0    0 -0.56228340371E+03 -0.70793130893E+03  0.33515704523E+03  0.96418857555E+03  0.00000000000E+00 0. -1.
         22    1    1    2    0    0  0.64282318878E+03  0.86876898444E+03  0.20187667844E+04  0.22898472722E+04  0.00000000000E+00 0. -1.
<mgrwt>
<rscale>  0 0.24532564E+04</rscale>
<asrwt>0</asrwt>
<pdfrwt beam="1">  1        2 0.45111054E+00 0.24532564E+04</pdfrwt>
<pdfrwt beam="2">  1       -2 0.78943469E-01 0.24532564E+04</pdfrwt>
<totfact> 0.24475415E+00</totfact>
</mgrwt>
</event>
<event>
 6    1  0.9562506E-007  0.3489079E+04  0.7818608E-02  0.8116383E-01
          1   -1    0    0  501    0  0.00000000000E+00  0.00000000000E+00  0.26513045075E+04  0.26513045075E+04  0.00000000000E+00 0. -1.
         -1   -1    0    0    0  501 -0.00000000000E+00 -0.00000000000E+00 -0.11478945263E+04  0.11478945263E+04  0.00000000000E+00 0.  1.
         23    2    1    2    0    0 -0.23225850604E+03  0.11747930924E+02  0.26335660933E+04  0.26453641820E+04  0.90549765233E+02 0.  0.
         13    1    3    3    0    0 -0.12010899731E+03 -0.77694394894E+00  0.18267585414E+04  0.18307030189E+04  0.00000000000E+00 0. -1.
        -13    1    3    3    0    0 -0.11214950873E+03  0.12524874873E+02  0.80680755197E+03  0.81466116313E+03  0.00000000000E+00 0.  1.
         22    1    1    2    0    0  0.23225850604E+03 -0.11747930924E+02 -0.11301561121E+04  0.11538348518E+04  0.00000000000E+00 0.  1.
<mgrwt>
<rscale>  0 0.34890789E+04</rscale>
<asrwt>0</asrwt>
<pdfrwt beam="1">  1        1 0.40789300E+00 0.34890789E+04</pdfrwt>
<pdfrwt beam="2">  1       -1 0.17659916E+00 0.34890789E+04</pdfrwt>
<totfact> 0.19092743E-01</totfact>
</mgrwt>
</event>
<event>
 6    1  0.9562506E-007  0.2013320E+04  0.7818608E-02  0.8600418E-01
         -4   -1    0    0    0  501 -0.00000000000E+00  0.00000000000E+00  0.55271994563E+03  0.55271994563E+03  0.00000000000E+00 0.  1.
          4   -1    0    0  501    0  0.00000000000E+00 -0.00000000000E+00 -0.18334132415E+04  0.18334132415E+04  0.00000000000E+00 0. -1.
         23    2    1    2    0    0  0.29845223339E+03  0.21710209413E+03 -0.17489986658E+04  0.17898807453E+04  0.92030943203E+02 0.  0.
         13    1    3    3    0    0  0.15377906150E+03  0.55620840709E+02 -0.76222179221E+03  0.77956637831E+03  0.00000000000E+00 0. -1.
        -13    1    3    3    0    0  0.14467317188E+03  0.16148125342E+03 -0.98677687359E+03  0.10103143670E+04  0.00000000000E+00 0.  1.
         22    1    1    2    0    0 -0.29845223339E+03 -0.21710209413E+03  0.46830536993E+03  0.59625244183E+03  0.00000000000E+00 0.  1.
<mgrwt>
<rscale>  0 0.20133197E+04</rscale>
<asrwt>0</asrwt>
<pdfrwt beam="1">  1        4 0.28206358E+00 0.20133197E+04</pdfrwt>
<pdfrwt beam="2">  1       -4 0.85033837E-01 0.20133197E+04</pdfrwt>
<totfact> 0.89585178E-02</totfact>
</mgrwt>
</event>
<event>
 6    1  0.9562506E-007  0.2707984E+04  0.7818608E-02  0.8332419E-01
          2   -1    0    0  501    0  0.00000000000E+00  0.00000000000E+00  0.16590066044E+04  0.16590066044E+04  0.00000000000E+00 0. -1.
         -2   -1    0    0    0  501 -0.00000000000E+00 -0.00000000000E+00 -0.11050556125E+04  0.11050556125E+04  0.00000000000E+00 0.  1.
         23    2    1    2    0    0  0.12495022248E+04 -0.51703995800E+03  0.25709056027E+03  0.13796084460E+04  0.92939657635E+02 0.  0.
         11    1    3    3    0    0  0.47547003114E+03 -0.24026509732E+03  0.12256564944E+03  0.54664559445E+03  0.00000000000E+00 0. -1.
        -11    1    3    3    0    0  0.77403219368E+03 -0.27677486068E+03  0.13452491083E+03  0.83296285150E+03  0.00000000000E+00 0.  1.
         22    1    1    2    0    0 -0.12495022248E+04  0.51703995800E+03  0.29686043167E+03  0.13844537709E+04  0.00000000000E+00 0. -1.
<mgrwt>
<rscale>  0 0.27079842E+04</rscale>
<asrwt>0</asrwt>
<pdfrwt beam="1">  1        2 0.25523178E+00 0.27079842E+04</pdfrwt>
<pdfrwt beam="2">  1       -2 0.17000856E+00 0.27079842E+04</pdfrwt>
<totfact> 0.19315247E+00</totfact>
</mgrwt>
</event>
<event>
 6    1  0.9562506E-007  0.2694294E+04  0.7818608E-02  0.8336859E-01
          2   -1    0    0  501    0  0.00000000000E+00  0.00000000000E+00  0.29909567305E+04  0.29909567305E+04  0.00000000000E+00 0. -1.
         -2   -1    0    0    0  501 -0.00000000000E+00 -0.00000000000E+00 -0.60676402606E+03  0.60676402606E+03  0.00000000000E+00 0.  1.
         23    2    1    2    0    0  0.19468879203E+03  0.12405569412E+04  0.18391530655E+04  0.22287965592E+04  0.90359579459E+02 0.  0.
         13    1    3    3    0    0  0.71249350084E+02  0.73876802456E+03  0.10933012573E+04  0.13214243464E+04  0.00000000000E+00 0.  1.
        -13    1    3    3    0    0  0.12343944195E+03  0.50178891666E+03  0.74585180822E+03  0.90737221278E+03  0.00000000000E+00 0. -1.
         22    1    1    2    0    0 -0.19468879203E+03 -0.12405569412E+04  0.54503963888E+03  0.13689241974E+04  0.00000000000E+00 0.  1.
<mgrwt>
<rscale>  0 0.26942939E+04</rscale>
<asrwt>0</asrwt>
<pdfrwt beam="1">  1        2 0.46014718E+00 0.26942939E+04</pdfrwt>
<pdfrwt beam="2">  1       -2 0.93348313E-01 0.26942939E+04</pdfrwt>
<totfact> 0.15029090E+00</totfact>
</mgrwt>
</event>
<event>
 6    1  0.9562506E-007  0.3908588E+04  0.7818608E-02  0.8023245E-01
         -2   -1    0    0    0  501 -0.00000000000E+00  0.00000000000E+00  0.11943988488E+04  0.11943988488E+04  0.00000000000E+00 0.  1.
          2   -1    0    0  501    0  0.00000000000E+00 -0.00000000000E+00 -0.31976459970E+04  0.31976459970E+04  0.00000000000E+00 0. -1.
         23    2    1    2    0    0  0.13545520456E+04 -0.10397415973E+04  0.63594443048E+02  0.17110547308E+04  0.88262138289E+02 0.  0.
         13    1    3    3    0    0  0.69697349476E+03 -0.51423050636E+03 -0.87168462560E+01  0.86618765257E+03  0.00000000000E+00 0. -1.
        -13    1    3    3    0    0  0.65757855085E+03 -0.52551109096E+03  0.72311289304E+02  0.84486707820E+03  0.00000000000E+00 0.  1.
         22    1    1    2    0    0 -0.13545520456E+04  0.10397415973E+04 -0.20668415913E+04  0.26809901150E+04  0.00000000000E+00 0. -1.
<mgrwt>
<rscale>  0 0.39085878E+04</rscale>
<asrwt>0</asrwt>
<pdfrwt beam="1">  1        2 0.49194554E+00 0.39085878E+04</pdfrwt>
<pdfrwt beam="2">  1       -2 0.18375367E+00 0.39085878E+04</pdfrwt>
<totfact> 0.17653070E-01</totfact>
</mgrwt>
</event>
<event>
 6    1  0.9562506E-007  0.9963309E+03  0.7818608E-02  0.9312578E-01
         -2   -1    0    0    0  501 -0.00000000000E+00  0.00000000000E+00  0.20657242169E+03  0.20657242169E+03  0.00000000000E+00 0.  1.
          2   -1    0    0  501    0  0.00000000000E+00 -0.00000000000E+00 -0.12013647945E+04  0.12013647945E+04  0.00000000000E+00 0. -1.
         23    2    1    2    0    0  0.48652043365E+03 -0.22832335887E+02 -0.38445889282E+03  0.62708485836E+03  0.90572244086E+02 0.  0.
         11    1    3    3    0    0  0.33196851450E+03 -0.47458627438E+02 -0.22613335679E+03  0.40446472157E+03  0.00000000000E+00 0.  1.
        -11    1    3    3    0    0  0.15455191915E+03  0.24626291551E+02 -0.15832553603E+03  0.22262013680E+03  0.00000000000E+00 0. -1.
         22    1    1    2    0    0 -0.48652043365E+03  0.22832335887E+02 -0.61033348002E+03  0.78085235784E+03  0.00000000000E+00 0.  1.
<mgrwt>
<rscale>  0 0.99633094E+03</rscale>
<asrwt>0</asrwt>
<pdfrwt beam="1">  1        2 0.18482535E+00 0.99633094E+03</pdfrwt>
<pdfrwt beam="2">  1       -2 0.31780373E-01 0.99633094E+03</pdfrwt>
<totfact> 0.17348434E+02</totfact>
</mgrwt>
</event>
<event>
 6    1  0.9697282E-007  0.3304082E+04  0.7818608E-02  0.8161857E-01
          2   -1    0    0  501    0  0.00000000000E+00  0.00000000000E+00  0.25869431957E+04  0.25869431957E+04  0.00000000000E+00 0. -1.
         -2   -1    0    0    0  501 -0.00000000000E+00 -0.00000000000E+00 -0.10550056430E+04  0.10550056430E+04  0.00000000000E+00 0.  1.
         23    2    1    2    0    0 -0.16148910588E+04  0.27585033580E+03  0.98877913693E+03  0.19159744460E+04  0.96474641463E+02 0.  0.
         11    1    3    3    0    0 -0.11547309855E+04  0.22566461644E+03  0.67042404739E+03  0.13541774519E+04  0.00000000000E+00 0.  1.
        -11    1    3    3    0    0 -0.46016007334E+03  0.50185719359E+02  0.31835508953E+03  0.56179699408E+03  0.00000000000E+00 0. -1.
         22    1    1    2    0    0  0.16148910588E+04 -0.27585033580E+03  0.54315841582E+03  0.17259743927E+04  0.00000000000E+00 0.  1.
<mgrwt>
<rscale>  0 0.33040821E+04</rscale>
<asrwt>0</asrwt>
<pdfrwt beam="1">  1        2 0.39799126E+00 0.33040821E+04</pdfrwt>
<pdfrwt beam="2">  1       -2 0.16230856E+00 0.33040821E+04</pdfrwt>
<totfact> 0.62626428E-01</totfact>
</mgrwt>
</event>
<event>
 6    1  0.9562506E-007  0.2875621E+04  0.7818608E-02  0.8280168E-01
         -2   -1    0    0    0  501 -0.00000000000E+00  0.00000000000E+00  0.26601508206E+04  0.26601508206E+04  0.00000000000E+00 0.  1.
          2   -1    0    0  501    0  0.00000000000E+00 -0.00000000000E+00 -0.77713606746E+03  0.77713606746E+03  0.00000000000E+00 0. -1.
         23    2    1    2    0    0  0.25469794244E+03  0.13854138237E+04  0.60664367674E+03  0.15364014024E+04  0.90940716638E+02 0.  0.
         11    1    3    3    0    0  0.73999659587E+02  0.62964843257E+03  0.29322765986E+03  0.69850952661E+03  0.00000000000E+00 0. -1.
        -11    1    3    3    0    0  0.18069828285E+03  0.75576539116E+03  0.31341601688E+03  0.83789187581E+03  0.00000000000E+00 0.  1.
         22    1    1    2    0    0 -0.25469794244E+03 -0.13854138237E+04  0.12763710764E+04  0.19008854857E+04  0.00000000000E+00 0.  1.
<mgrwt>
<rscale>  0 0.28756211E+04</rscale>
<asrwt>0</asrwt>
<pdfrwt beam="1">  1        2 0.11955940E+00 0.28756211E+04</pdfrwt>
<pdfrwt beam="2">  1       -2 0.40925397E+00 0.28756211E+04</pdfrwt>
<totfact> 0.19966421E-01</totfact>
</mgrwt>
</event>
<event>
 6    1  0.9562506E-007  0.1876541E+04  0.7818608E-02  0.8666622E-01
          1   -1    0    0  501    0  0.00000000000E+00  0.00000000000E+00  0.31821821943E+04  0.31821821943E+04  0.00000000000E+00 0. -1.
         -1   -1    0    0    0  501 -0.00000000000E+00 -0.00000000000E+00 -0.27665034565E+03  0.27665034565E+03  0.00000000000E+00 0.  1.
         23    2    1    2    0    0  0.82374532512E+03  0.24346112164E+03  0.77091043065E+03  0.11578678995E+04  0.92333646277E+02 0.  0.
         11    1    3    3    0    0  0.48517767650E+03  0.19033421895E+03  0.46021157870E+03  0.69528353198E+03  0.00000000000E+00 0. -1.
        -11    1    3    3    0    0  0.33856764862E+03  0.53126902688E+02  0.31069885195E+03  0.46258436753E+03  0.00000000000E+00 0.  1.
         22    1    1    2    0    0 -0.82374532512E+03 -0.24346112164E+03  0.21346214180E+04  0.23009646405E+04  0.00000000000E+00 0. -1.
<mgrwt>
<rscale>  0 0.18765413E+04</rscale>
<asrwt>0</asrwt>
<pdfrwt beam="1">  1        1 0.48956647E+00 0.18765413E+04</pdfrwt>
<pdfrwt beam="2">  1       -1 0.42561594E-01 0.18765413E+04</pdfrwt>
<totfact> 0.22404527E+00</totfact>
</mgrwt>
</event>
<event>
 6    1  0.9562506E-007  0.1418497E+04  0.7818608E-02  0.8940537E-01
          2   -1    0    0  501    0  0.00000000000E+00  0.00000000000E+00  0.12278524553E+04  0.12278524553E+04  0.00000000000E+00 0. -1.
         -2   -1    0    0    0  501 -0.00000000000E+00 -0.00000000000E+00 -0.40968553446E+03  0.40968553446E+03  0.00000000000E+00 0.  1.
         23    2    1    2    0    0 -0.37462257881E+03 -0.42867750065E+03 -0.71840028031E+02  0.58102540340E+03  0.91230771396E+02 0.  0.
         13    1    3    3    0    0 -0.19269141914E+03 -0.28067567761E+03 -0.63660722967E+02  0.34635459671E+03  0.00000000000E+00 0.  1.
        -13    1    3    3    0    0 -0.18193115967E+03 -0.14800182304E+03 -0.81793050636E+01  0.23467080669E+03  0.00000000000E+00 0. -1.
         22    1    1    2    0    0  0.37462257881E+03  0.42867750065E+03  0.89000694888E+03  0.10565125864E+04  0.00000000000E+00 0. -1.
<mgrwt>
<rscale>  0 0.14184969E+04</rscale>
<asrwt>0</asrwt>
<pdfrwt beam="1">  1        2 0.18890038E+00 0.14184969E+04</pdfrwt>
<pdfrwt beam="2">  1       -2 0.63028544E-01 0.14184969E+04</pdfrwt>
<totfact> 0.41328372E+01</totfact>
</mgrwt>
</event>
<event>
 6    1  0.9562506E-007  0.1319869E+04  0.7818608E-02  0.9013955E-01
          2   -1    0    0  501    0  0.00000000000E+00  0.00000000000E+00  0.18300202595E+04  0.18300202595E+04  0.00000000000E+00 0. -1.
         -2   -1    0    0    0  501 -0.00000000000E+00 -0.00000000000E+00 -0.23798302721E+03  0.23798302721E+03  0.00000000000E+00 0.  1.
         23    2    1    2    0    0  0.34720633355E+03 -0.24831019482E+03  0.15819669377E+04  0.16410236599E+04  0.90161352042E+02 0.  0.
         11    1    3    3    0    0  0.32563260348E+02 -0.12124285908E+02  0.24239654674E+03  0.24487435575E+03  0.00000000000E+00 0.  1.
        -11    1    3    3    0    0  0.31464307320E+03 -0.23618590891E+03  0.13395703910E+04  0.13961493042E+04  0.00000000000E+00 0. -1.
         22    1    1    2    0    0 -0.34720633355E+03  0.24831019482E+03  0.10070294607E+02  0.42697962685E+03  0.00000000000E+00 0.  1.
<mgrwt>
<rscale>  0 0.13198693E+04</rscale>
<asrwt>0</asrwt>
<pdfrwt beam="1">  1        2 0.28154157E+00 0.13198693E+04</pdfrwt>
<pdfrwt beam="2">  1       -2 0.36612775E-01 0.13198693E+04</pdfrwt>
<totfact> 0.57110731E+01</totfact>
</mgrwt>
</event>
<event>
 6    1  0.9562506E-007  0.2430659E+04  0.7818608E-02  0.8428114E-01
         -2   -1    0    0    0  501 -0.00000000000E+00  0.00000000000E+00  0.17589424484E+04  0.17589424484E+04  0.00000000000E+00 0.  1.
          2   -1    0    0  501    0  0.00000000000E+00 -0.00000000000E+00 -0.83972375886E+03  0.83972375886E+03  0.00000000000E+00 0. -1.
         23    2    1    2    0    0 -0.48377168157E+03 -0.67113859318E+03 -0.48948514308E+03  0.96498675916E+03  0.84508513884E+02 0.  0.
         13    1    3    3    0    0 -0.19660435999E+03 -0.30505036075E+03 -0.25818327622E+03  0.44538477868E+03  0.00000000000E+00 0.  1.
        -13    1    3    3    0    0 -0.28716732158E+03 -0.36608823243E+03 -0.23130186685E+03  0.51960198048E+03  0.00000000000E+00 0. -1.
         22    1    1    2    0    0  0.48377168157E+03  0.67113859318E+03  0.14087038327E+04  0.16336794481E+04  0.00000000000E+00 0.  1.
<mgrwt>
<rscale>  0 0.24306590E+04</rscale>
<asrwt>0</asrwt>
<pdfrwt beam="1">  1        2 0.12918827E+00 0.24306590E+04</pdfrwt>
<pdfrwt beam="2">  1       -2 0.27060653E+00 0.24306590E+04</pdfrwt>
<totfact> 0.13909352E+00</totfact>
</mgrwt>
</event>
<event>
 6    1  0.9562506E-007  0.3497914E+04  0.7818608E-02  0.8114284E-01
          2   -1    0    0  501    0  0.00000000000E+00  0.00000000000E+00  0.15489794102E+04  0.15489794102E+04  0.00000000000E+00 0. -1.
         -2   -1    0    0    0  501 -0.00000000000E+00 -0.00000000000E+00 -0.19747526664E+04  0.19747526664E+04  0.00000000000E+00 0.  1.
         23    2    1    2    0    0 -0.82998383987E+03 -0.14444368156E+04  0.31962251418E+03  0.16986606415E+04  0.89546270069E+02 0.  0.
         11    1    3    3    0    0 -0.26593497113E+03 -0.51599774405E+03  0.14544204301E+03  0.59843835824E+03  0.00000000000E+00 0. -1.
        -11    1    3    3    0    0 -0.56404886874E+03 -0.92843907157E+03  0.17418047117E+03  0.11002222832E+04  0.00000000000E+00 0.  1.
         22    1    1    2    0    0  0.82998383987E+03  0.14444368156E+04 -0.74539577039E+03  0.18250714351E+04  0.00000000000E+00 0.  1.
<mgrwt>
<rscale>  0 0.34979144E+04</rscale>
<asrwt>0</asrwt>
<pdfrwt beam="1">  1        2 0.23830452E+00 0.34979144E+04</pdfrwt>
<pdfrwt beam="2">  1       -2 0.30380810E+00 0.34979144E+04</pdfrwt>
<totfact> 0.29484123E-01</totfact>
</mgrwt>
</event>
<event>
 6    1  0.9562506E-007  0.1421137E+04  0.7818608E-02  0.8938659E-01
         -1   -1    0    0    0  501 -0.00000000000E+00  0.00000000000E+00  0.40136749259E+03  0.40136749259E+03  0.00000000000E+00 0.  1.
          1   -1    0    0  501    0  0.00000000000E+00 -0.00000000000E+00 -0.12579687521E+04  0.12579687521E+04  0.00000000000E+00 0. -1.
         23    2    1    2    0    0 -0.23956374278E+03  0.14772478066E+03 -0.11881163037E+04  0.12244619844E+04  0.92051086515E+02 0.  0.
         11    1    3    3    0    0 -0.16248539195E+03  0.14595866911E+03 -0.84259990118E+03  0.87044817718E+03  0.00000000000E+00 0. -1.
        -11    1    3    3    0    0 -0.77078350833E+02  0.17661115532E+01 -0.34551640250E+03  0.35401380723E+03  0.00000000000E+00 0.  1.
         22    1    1    2    0    0  0.23956374278E+03 -0.14772478066E+03  0.33151504421E+03  0.43487426024E+03  0.00000000000E+00 0.  1.
<mgrwt>
<rscale>  0 0.14211372E+04</rscale>
<asrwt>0</asrwt>
<pdfrwt beam="1">  1        1 0.19353365E+00 0.14211372E+04</pdfrwt>
<pdfrwt beam="2">  1       -1 0.61748845E-01 0.14211372E+04</pdfrwt>
<totfact> 0.25110030E+01</totfact>
</mgrwt>
</event>
<event>
 6    1  0.9562506E-007  0.2692921E+04  0.7818608E-02  0.8337305E-01
         -2   -1    0    0    0  501 -0.00000000000E+00  0.00000000000E+00  0.12219878003E+04  0.12219878003E+04  0.00000000000E+00 0.  1.
          2   -1    0    0  501    0  0.00000000000E+00 -0.00000000000E+00 -0.14836122788E+04  0.14836122788E+04  0.00000000000E+00 0. -1.
         23    2    1    2    0    0  0.60558267502E+03  0.34174855581E+03  0.10256640673E+04  0.12425094284E+04  0.91216495711E+02 0.  0.
         13    1    3    3    0    0  0.56892886206E+03  0.30352465073E+03  0.97683409187E+03  0.11704751628E+04  0.00000000000E+00 0. -1.
        -13    1    3    3    0    0  0.36653812966E+02  0.38223905077E+02  0.48829975434E+02  0.72034265633E+02  0.00000000000E+00 0.  1.
         22    1    1    2    0    0 -0.60558267502E+03 -0.34174855581E+03 -0.12872885459E+04  0.14630906506E+04  0.00000000000E+00 0. -1.
<mgrwt>
<rscale>  0 0.26929212E+04</rscale>
<asrwt>0</asrwt>
<pdfrwt beam="1">  1        2 0.22824804E+00 0.26929212E+04</pdfrwt>
<pdfrwt beam="2">  1       -2 0.18799812E+00 0.26929212E+04</pdfrwt>
<totfact> 0.18202602E+00</totfact>
</mgrwt>
</event>
<event>
 6    1  0.9562506E-007  0.1937828E+04  0.7818608E-02  0.8636253E-01
         -2   -1    0    0    0  501 -0.00000000000E+00  0.00000000000E+00  0.47008089760E+03  0.47008089760E+03  0.00000000000E+00 0.  1.
          2   -1    0    0  501    0  0.00000000000E+00 -0.00000000000E+00 -0.19970918910E+04  0.19970918910E+04  0.00000000000E+00 0. -1.
         23    2    1    2    0    0  0.40414975881E+03 -0.87710466784E+03 -0.82234453592E+03  0.12716794000E+04  0.90930384090E+02 0.  0.
         11    1    3    3    0    0  0.11378942996E+03 -0.24584593211E+03 -0.28587220346E+03  0.39384155877E+03  0.00000000000E+00 0. -1.
        -11    1    3    3    0    0  0.29036032885E+03 -0.63125873573E+03 -0.53647233246E+03  0.87783784123E+03  0.00000000000E+00 0.  1.
         22    1    1    2    0    0 -0.40414975881E+03  0.87710466784E+03 -0.70466645751E+03  0.11954933886E+04  0.00000000000E+00 0. -1.
<mgrwt>
<rscale>  0 0.19378284E+04</rscale>
<asrwt>0</asrwt>
<pdfrwt beam="1">  1        2 0.30724490E+00 0.19378284E+04</pdfrwt>
<pdfrwt beam="2">  1       -2 0.72320139E-01 0.19378284E+04</pdfrwt>
<totfact> 0.10835522E+01</totfact>
</mgrwt>
</event>
<event>
 6    1  0.9562506E-007  0.1606961E+04  0.7818608E-02  0.8816283E-01
         -2   -1    0    0    0  501 -0.00000000000E+00  0.00000000000E+00  0.11626336067E+04  0.11626336067E+04  0.00000000000E+00 0.  1.
          2   -1    0    0  501    0  0.00000000000E+00 -0.00000000000E+00 -0.55527452157E+03  0.55527452157E+03  0.00000000000E+00 0. -1.
         23    2    1    2    0    0 -0.33049973025E+03 -0.27324042508E+02  0.10839305012E+04  0.11373075861E+04  0.92663579878E+02 0.  0.
         13    1    3    3    0    0 -0.27513624954E+03 -0.58749683179E+01  0.76730630559E+03  0.81516466904E+03  0.00000000000E+00 0. -1.
        -13    1    3    3    0    0 -0.55363480713E+02 -0.21449074190E+02  0.31662419559E+03  0.32214291706E+03  0.00000000000E+00 0.  1.
         22    1    1    2    0    0  0.33049973025E+03  0.27324042508E+02 -0.47657141604E+03  0.58060054218E+03  0.00000000000E+00 0. -1.
<mgrwt>
<rscale>  0 0.16069609E+04</rscale>
<asrwt>0</asrwt>
<pdfrwt beam="1">  1        2 0.85426850E-01 0.16069609E+04</pdfrwt>
<pdfrwt beam="2">  1       -2 0.17886671E+00 0.16069609E+04</pdfrwt>
<totfact> 0.96224003E+00</totfact>
</mgrwt>
</event>
<event>
 6    1  0.9562506E-007  0.3265479E+04  0.7818608E-02  0.8171735E-01
          2   -1    0    0  501    0  0.00000000000E+00  0.00000000000E+00  0.23652233085E+04  0.23652233085E+04  0.00000000000E+00 0. -1.
         -2   -1    0    0    0  501 -0.00000000000E+00 -0.00000000000E+00 -0.11270982209E+04  0.11270982209E+04  0.00000000000E+00 0.  1.
         23    2    1    2    0    0 -0.97331665047E+03 -0.73365535014E+03  0.17792563973E+04  0.21587479210E+04  0.94041395925E+02 0.  0.
         11    1    3    3    0    0 -0.86135918364E+03 -0.65105877919E+03  0.15191318539E+04  0.18637539448E+04  0.00000000000E+00 0.  1.
        -11    1    3    3    0    0 -0.11195746683E+03 -0.82596570951E+02  0.26012454333E+03  0.29499397613E+03  0.00000000000E+00 0. -1.
         22    1    1    2    0    0  0.97331665047E+03  0.73365535014E+03 -0.54113130969E+03  0.13335736085E+04  0.00000000000E+00 0.  1.
<mgrwt>
<rscale>  0 0.32654794E+04</rscale>
<asrwt>0</asrwt>
<pdfrwt beam="1">  1        2 0.36388051E+00 0.32654794E+04</pdfrwt>
<pdfrwt beam="2">  1       -2 0.17339973E+00 0.32654794E+04</pdfrwt>
<totfact> 0.70285303E-01</totfact>
</mgrwt>
</event>
<event>
 6    1  0.9562506E-007  0.2976364E+04  0.7818608E-02  0.8250513E-01
         -2   -1    0    0    0  501 -0.00000000000E+00  0.00000000000E+00  0.17246351532E+04  0.17246351532E+04  0.00000000000E+00 0.  1.
          2   -1    0    0  501    0  0.00000000000E+00 -0.00000000000E+00 -0.12841472185E+04  0.12841472185E+04  0.00000000000E+00 0. -1.
         23    2    1    2    0    0 -0.13610007217E+04  0.34900259940E+03 -0.27096377566E+03  0.14338889419E+04  0.92143101402E+02 0.  0.
         13    1    3    3    0    0 -0.10055938284E+04  0.21670358196E+03 -0.20704062176E+03  0.10493070138E+04  0.00000000000E+00 0.  1.
        -13    1    3    3    0    0 -0.35540689335E+03  0.13229901744E+03 -0.63923153894E+02  0.38458192815E+03  0.00000000000E+00 0. -1.
         22    1    1    2    0    0  0.13610007217E+04 -0.34900259940E+03  0.71145171034E+03  0.15748934297E+04  0.00000000000E+00 0.  1.
<mgrwt>
<rscale>  0 0.29763638E+04</rscale>
<asrwt>0</asrwt>
<pdfrwt beam="1">  1        2 0.19756111E+00 0.29763638E+04</pdfrwt>
<pdfrwt beam="2">  1       -2 0.26532848E+00 0.29763638E+04</pdfrwt>
<totfact> 0.74972106E-01</totfact>
</mgrwt>
</event>
<event>
 6    1  0.9562506E-007  0.1871152E+04  0.7818608E-02  0.8669350E-01
          1   -1    0    0  501    0  0.00000000000E+00  0.00000000000E+00  0.48561746580E+03  0.48561746580E+03  0.00000000000E+00 0. -1.
         -1   -1    0    0    0  501 -0.00000000000E+00 -0.00000000000E+00 -0.18024531262E+04  0.18024531262E+04  0.00000000000E+00 0.  1.
         23    2    1    2    0    0 -0.70190501599E+03 -0.23826072843E+03  0.33587621895E+02  0.74758954132E+03  0.91231396820E+02 0.  0.
         13    1    3    3    0    0 -0.32904073641E+03 -0.63778583865E+02  0.14782419828E+02  0.33549073596E+03  0.00000000000E+00 0. -1.
        -13    1    3    3    0    0 -0.37286427958E+03 -0.17448214456E+03  0.18805202066E+02  0.41209880536E+03  0.00000000000E+00 0.  1.
         22    1    1    2    0    0  0.70190501599E+03  0.23826072843E+03 -0.13504232823E+04  0.15404810507E+04  0.00000000000E+00 0.  1.
<mgrwt>
<rscale>  0 0.18711523E+04</rscale>
<asrwt>0</asrwt>
<pdfrwt beam="1">  1        1 0.74710381E-01 0.18711523E+04</pdfrwt>
<pdfrwt beam="2">  1       -1 0.27730048E+00 0.18711523E+04</pdfrwt>
<totfact> 0.20062586E+00</totfact>
</mgrwt>
</event>
<event>
 6    1  0.9562506E-007  0.2892316E+04  0.7818608E-02  0.8275167E-01
         -2   -1    0    0    0  501 -0.00000000000E+00  0.00000000000E+00  0.96356207399E+03  0.96356207399E+03  0.00000000000E+00 0.  1.
          2   -1    0    0  501    0  0.00000000000E+00 -0.00000000000E+00 -0.21704598494E+04  0.21704598494E+04  0.00000000000E+00 0. -1.
         23    2    1    2    0    0  0.97723654415E+02 -0.14008190511E+04 -0.23572927484E+03  0.14266812476E+04  0.89482761741E+02 0.  0.
         13    1    3    3    0    0  0.49871829517E+01 -0.71428134245E+03 -0.12014512127E+03  0.72433249156E+03  0.00000000000E+00 0. -1.
        -13    1    3    3    0    0  0.92736471463E+02 -0.68653770867E+03 -0.11558415357E+03  0.70234875605E+03  0.00000000000E+00 0.  1.
         22    1    1    2    0    0 -0.97723654415E+02  0.14008190511E+04 -0.97116850054E+03  0.17073406757E+04  0.00000000000E+00 0. -1.
<mgrwt>
<rscale>  0 0.28923159E+04</rscale>
<asrwt>0</asrwt>
<pdfrwt beam="1">  1        2 0.33391690E+00 0.28923159E+04</pdfrwt>
<pdfrwt beam="2">  1       -2 0.14824032E+00 0.28923159E+04</pdfrwt>
<totfact> 0.14323111E+00</totfact>
</mgrwt>
</event>
<event>
 6    1  0.9562506E-007  0.1225708E+04  0.7818608E-02  0.9090648E-01
          2   -1    0    0  501    0  0.00000000000E+00  0.00000000000E+00  0.10300853701E+04  0.10300853701E+04  0.00000000000E+00 0. -1.
         -2   -1    0    0    0  501 -0.00000000000E+00 -0.00000000000E+00 -0.36462003179E+03  0.36462003179E+03  0.00000000000E+00 0.  1.
         23    2    1    2    0    0 -0.48190290027E+03  0.37260095816E+03  0.31186368451E+03  0.69036456901E+03  0.91007698129E+02 0.  0.
         13    1    3    3    0    0 -0.35177894372E+03  0.22389496472E+03  0.19022291455E+03  0.45832536226E+03  0.00000000000E+00 0.  1.
        -13    1    3    3    0    0 -0.13012395655E+03  0.14870599344E+03  0.12164076995E+03  0.23203920675E+03  0.00000000000E+00 0. -1.
         22    1    1    2    0    0  0.48190290027E+03 -0.37260095816E+03  0.35360165384E+03  0.70434083291E+03  0.00000000000E+00 0.  1.
<mgrwt>
<rscale>  0 0.12257076E+04</rscale>
<asrwt>0</asrwt>
<pdfrwt beam="1">  1        2 0.15847467E+00 0.12257076E+04</pdfrwt>
<pdfrwt beam="2">  1       -2 0.56095390E-01 0.12257076E+04</pdfrwt>
<totfact> 0.70827057E+01</totfact>
</mgrwt>
</event>
<event>
 6    1  0.9562506E-007  0.3607134E+04  0.7818608E-02  0.8088860E-01
          1   -1    0    0  501    0  0.00000000000E+00  0.00000000000E+00  0.35154615506E+04  0.35154615506E+04  0.00000000000E+00 0. -1.
         -1   -1    0    0    0  501 -0.00000000000E+00 -0.00000000000E+00 -0.92529920231E+03  0.92529920231E+03  0.00000000000E+00 0.  1.
         23    2    1    2    0    0  0.11741829433E+04 -0.12762893487E+04  0.19004825962E+04  0.25744064868E+04  0.90080935253E+02 0.  0.
         13    1    3    3    0    0  0.95243305457E+03 -0.10075755756E+04  0.14719732204E+04  0.20221380827E+04  0.00000000000E+00 0. -1.
        -13    1    3    3    0    0  0.22174988871E+03 -0.26871377314E+03  0.42850937586E+03  0.55226840415E+03  0.00000000000E+00 0.  1.
         22    1    1    2    0    0 -0.11741829433E+04  0.12762893487E+04  0.68967975201E+03  0.18663542660E+04  0.00000000000E+00 0.  1.
<mgrwt>
<rscale>  0 0.36071339E+04</rscale>
<asrwt>0</asrwt>
<pdfrwt beam="1">  1        1 0.54084023E+00 0.36071339E+04</pdfrwt>
<pdfrwt beam="2">  1       -1 0.14235373E+00 0.36071339E+04</pdfrwt>
<totfact> 0.78688331E-02</totfact>
</mgrwt>
</event>
<event>
 6    1  0.9562506E-007  0.2863091E+04  0.7818608E-02  0.8283945E-01
          1   -1    0    0  501    0  0.00000000000E+00  0.00000000000E+00  0.26056201290E+04  0.26056201290E+04  0.00000000000E+00 0. -1.
         -1   -1    0    0    0  501 -0.00000000000E+00 -0.00000000000E+00 -0.78650069967E+03  0.78650069967E+03  0.00000000000E+00 0.  1.
         23    2    1    2    0    0  0.28232693477E+03 -0.14016584335E+04  0.94576845614E+03  0.17166815476E+04  0.90347665808E+02 0.  0.
         11    1    3    3    0    0  0.16117097717E+03 -0.72828102856E+03  0.44188172928E+03  0.86696528369E+03  0.00000000000E+00 0.  1.
        -11    1    3    3    0    0  0.12115595760E+03 -0.67337740497E+03  0.50388672686E+03  0.84971626387E+03  0.00000000000E+00 0. -1.
         22    1    1    2    0    0 -0.28232693477E+03  0.14016584335E+04  0.87335097321E+03  0.16754392811E+04  0.00000000000E+00 0.  1.
<mgrwt>
<rscale>  0 0.28630907E+04</rscale>
<asrwt>0</asrwt>
<pdfrwt beam="1">  1        1 0.40086463E+00 0.28630907E+04</pdfrwt>
<pdfrwt beam="2">  1       -1 0.12100011E+00 0.28630907E+04</pdfrwt>
<totfact> 0.59693394E-01</totfact>
</mgrwt>
</event>
<event>
 6    1  0.9562506E-007  0.2392491E+04  0.7818608E-02  0.8442320E-01
         -1   -1    0    0    0  501 -0.00000000000E+00  0.00000000000E+00  0.12254704206E+04  0.12254704206E+04  0.00000000000E+00 0.  1.
          1   -1    0    0  501    0  0.00000000000E+00 -0.00000000000E+00 -0.11677173853E+04  0.11677173853E+04  0.00000000000E+00 0. -1.
         23    2    1    2    0    0  0.11170115319E+04  0.20308993627E+03  0.40051069027E+03  0.12072522703E+04  0.89938570563E+02 0.  0.
         13    1    3    3    0    0  0.28183703228E+03  0.14832165960E+02  0.83570588730E+02  0.29434019299E+03  0.00000000000E+00 0. -1.
        -13    1    3    3    0    0  0.83517449960E+03  0.18825777031E+03  0.31694010154E+03  0.91291207727E+03  0.00000000000E+00 0.  1.
         22    1    1    2    0    0 -0.11170115319E+04 -0.20308993627E+03 -0.34275765498E+03  0.11859355356E+04  0.00000000000E+00 0. -1.
<mgrwt>
<rscale>  0 0.23924908E+04</rscale>
<asrwt>0</asrwt>
<pdfrwt beam="1">  1        1 0.17964883E+00 0.23924908E+04</pdfrwt>
<pdfrwt beam="2">  1       -1 0.18853391E+00 0.23924908E+04</pdfrwt>
<totfact> 0.18312972E+00</totfact>
</mgrwt>
</event>
<event>
 6    1  0.9562506E-007  0.7256558E+03  0.7818608E-02  0.9674336E-01
          2   -1    0    0  501    0  0.00000000000E+00  0.00000000000E+00  0.28589279469E+04  0.28589279469E+04  0.00000000000E+00 0. -1.
         -2   -1    0    0    0  501 -0.00000000000E+00 -0.00000000000E+00 -0.46046665401E+02  0.46046665401E+02  0.00000000000E+00 0.  1.
         23    2    1    2    0    0  0.29864917658E+03 -0.33510734296E+02  0.22037441446E+04  0.22257380177E+04  0.84304022997E+02 0.  0.
         13    1    3    3    0    0  0.14863952890E+03  0.11759368296E+01  0.81104331126E+03  0.82455220885E+03  0.00000000000E+00 0.  1.
        -13    1    3    3    0    0  0.15000964768E+03 -0.34686671126E+02  0.13927008334E+04  0.14011858088E+04  0.00000000000E+00 0. -1.
         22    1    1    2    0    0 -0.29864917658E+03  0.33510734296E+02  0.60913713686E+03  0.67923659463E+03  0.00000000000E+00 0.  1.
<mgrwt>
<rscale>  0 0.72565584E+03</rscale>
<asrwt>0</asrwt>
<pdfrwt beam="1">  1        2 0.43983493E+00 0.72565584E+03</pdfrwt>
<pdfrwt beam="2">  1       -2 0.70841046E-02 0.72565584E+03</pdfrwt>
<totfact> 0.26771877E+02</totfact>
</mgrwt>
</event>
<event>
 6    1  0.9562506E-007  0.2754176E+04  0.7818608E-02  0.8317638E-01
          2   -1    0    0  501    0  0.00000000000E+00  0.00000000000E+00  0.94387326971E+03  0.94387326971E+03  0.00000000000E+00 0. -1.
         -2   -1    0    0    0  501 -0.00000000000E+00 -0.00000000000E+00 -0.20091381443E+04  0.20091381443E+04  0.00000000000E+00 0.  1.
         23    2    1    2    0    0 -0.35701053913E+03 -0.12042013372E+04 -0.11347217309E+04  0.16950838960E+04  0.90325094196E+02 0.  0.
         11    1    3    3    0    0 -0.25900677797E+03 -0.82645430262E+03 -0.72794519741E+03  0.11313776716E+04  0.00000000000E+00 0. -1.
        -11    1    3    3    0    0 -0.98003761157E+02 -0.37774703455E+03 -0.40677653345E+03  0.56370622444E+03  0.00000000000E+00 0.  1.
         22    1    1    2    0    0  0.35701053913E+03  0.12042013372E+04  0.69456856317E+02  0.12579275179E+04  0.00000000000E+00 0. -1.
<mgrwt>
<rscale>  0 0.27541763E+04</rscale>
<asrwt>0</asrwt>
<pdfrwt beam="1">  1        2 0.14521127E+00 0.27541763E+04</pdfrwt>
<pdfrwt beam="2">  1       -2 0.30909817E+00 0.27541763E+04</pdfrwt>
<totfact> 0.66899989E-01</totfact>
</mgrwt>
</event>
<event>
 6    1  0.9562506E-007  0.1387110E+04  0.7818608E-02  0.8963202E-01
         -2   -1    0    0    0  501 -0.00000000000E+00  0.00000000000E+00  0.10861520157E+04  0.10861520157E+04  0.00000000000E+00 0.  1.
          2   -1    0    0  501    0  0.00000000000E+00 -0.00000000000E+00 -0.44286462864E+03  0.44286462864E+03  0.00000000000E+00 0. -1.
         23    2    1    2    0    0 -0.34157083929E+03 -0.63450609380E+02  0.98099180206E+03  0.10445159838E+04  0.89286654441E+02 0.  0.
         11    1    3    3    0    0 -0.11213101031E+03 -0.52517008469E+02  0.43233353827E+03  0.44971511868E+03  0.00000000000E+00 0.  1.
        -11    1    3    3    0    0 -0.22943982898E+03 -0.10933600911E+02  0.54865826379E+03  0.59480086514E+03  0.00000000000E+00 0. -1.
         22    1    1    2    0    0  0.34157083929E+03  0.63450609380E+02 -0.33770441503E+03  0.48450066049E+03  0.00000000000E+00 0. -1.
<mgrwt>
<rscale>  0 0.13871097E+04</rscale>
<asrwt>0</asrwt>
<pdfrwt beam="1">  1        2 0.68133020E-01 0.13871097E+04</pdfrwt>
<pdfrwt beam="2">  1       -2 0.16710031E+00 0.13871097E+04</pdfrwt>
<totfact> 0.15409798E+01</totfact>
</mgrwt>
</event>
<event>
 6    1  0.9562506E-007  0.3065473E+04  0.7818608E-02  0.8225278E-01
          2   -1    0    0  501    0  0.00000000000E+00  0.00000000000E+00  0.20224503902E+04  0.20224503902E+04  0.00000000000E+00 0. -1.
         -2   -1    0    0    0  501 -0.00000000000E+00 -0.00000000000E+00 -0.11616015706E+04  0.11616015706E+04  0.00000000000E+00 0.  1.
         23    2    1    2    0    0 -0.29113407571E+03  0.13357890449E+04  0.11473575429E+04  0.17872059882E+04  0.92652526570E+02 0.  0.
         11    1    3    3    0    0 -0.15846912663E+03  0.85551477768E+03  0.68318963327E+03  0.11062396096E+04  0.00000000000E+00 0. -1.
        -11    1    3    3    0    0 -0.13266494908E+03  0.48027426717E+03  0.46416790967E+03  0.68096637860E+03  0.00000000000E+00 0.  1.
         22    1    1    2    0    0  0.29113407571E+03 -0.13357890449E+04 -0.28650872336E+03  0.13968459725E+04  0.00000000000E+00 0.  1.
<mgrwt>
<rscale>  0 0.30654732E+04</rscale>
<asrwt>0</asrwt>
<pdfrwt beam="1">  1        2 0.31114621E+00 0.30654732E+04</pdfrwt>
<pdfrwt beam="2">  1       -2 0.17870793E+00 0.30654732E+04</pdfrwt>
<totfact> 0.10231802E+00</totfact>
</mgrwt>
</event>
<event>
 6    1  0.9562506E-007  0.2441726E+04  0.7818608E-02  0.8424045E-01
         -1   -1    0    0    0  501 -0.00000000000E+00  0.00000000000E+00  0.36467415438E+03  0.36467415438E+03  0.00000000000E+00 0.  1.
          1   -1    0    0  501    0  0.00000000000E+00 -0.00000000000E+00 -0.40872296701E+04  0.40872296701E+04  0.00000000000E+00 0. -1.
         23    2    1    2    0    0  0.54714224974E+03 -0.10700238175E+04 -0.22375535574E+04  0.25415252160E+04  0.91590882835E+02 0.  0.
         11    1    3    3    0    0  0.18218942101E+03 -0.28095619408E+03 -0.57559622946E+03  0.66591319817E+03  0.00000000000E+00 0.  1.
        -11    1    3    3    0    0  0.36495282873E+03 -0.78906762344E+03 -0.16619573279E+04  0.18756120178E+04  0.00000000000E+00 0. -1.
         22    1    1    2    0    0 -0.54714224974E+03  0.10700238175E+04 -0.14850019583E+04  0.19103786085E+04  0.00000000000E+00 0.  1.
<mgrwt>
<rscale>  0 0.24417265E+04</rscale>
<asrwt>0</asrwt>
<pdfrwt beam="1">  1        1 0.62880455E+00 0.24417265E+04</pdfrwt>
<pdfrwt beam="2">  1       -1 0.56103717E-01 0.24417265E+04</pdfrwt>
<totfact> 0.23107468E-01</totfact>
</mgrwt>
</event>
<event>
 6    1  0.9562506E-007  0.1749594E+04  0.7818608E-02  0.8733574E-01
         -2   -1    0    0    0  501 -0.00000000000E+00  0.00000000000E+00  0.52123240245E+03  0.52123240245E+03  0.00000000000E+00 0.  1.
          2   -1    0    0  501    0  0.00000000000E+00 -0.00000000000E+00 -0.14681927382E+04  0.14681927382E+04  0.00000000000E+00 0. -1.
         23    2    1    2    0    0  0.42891666245E+03  0.35647244979E+03 -0.12376930472E+04  0.13604834738E+04  0.89381724251E+02 0.  0.
         13    1    3    3    0    0  0.15307925216E+03  0.74133267124E+02 -0.36675742173E+03  0.40427713902E+03  0.00000000000E+00 0.  1.
        -13    1    3    3    0    0  0.27583741029E+03  0.28233918267E+03 -0.87093562551E+03  0.95620633483E+03  0.00000000000E+00 0. -1.
         22    1    1    2    0    0 -0.42891666245E+03 -0.35647244979E+03  0.29073271144E+03  0.62894166684E+03  0.00000000000E+00 0.  1.
<mgrwt>
<rscale>  0 0.17495938E+04</rscale>
<asrwt>0</asrwt>
<pdfrwt beam="1">  1        2 0.22587580E+00 0.17495938E+04</pdfrwt>
<pdfrwt beam="2">  1       -2 0.80189601E-01 0.17495938E+04</pdfrwt>
<totfact> 0.17243838E+01</totfact>
</mgrwt>
</event>
<event>
 6    1  0.9562506E-007  0.2854458E+04  0.7818608E-02  0.8286558E-01
          2   -1    0    0  501    0  0.00000000000E+00  0.00000000000E+00  0.14729022170E+04  0.14729022170E+04  0.00000000000E+00 0. -1.
         -2   -1    0    0    0  501 -0.00000000000E+00 -0.00000000000E+00 -0.13829722772E+04  0.13829722772E+04  0.00000000000E+00 0.  1.
         23    2    1    2    0    0 -0.29278808606E+03  0.10594678576E+04 -0.86354161016E+03  0.14007782770E+04  0.90987165758E+02 0.  0.
         13    1    3    3    0    0 -0.10737603797E+03  0.52005075827E+03 -0.37956968479E+03  0.65272930861E+03  0.00000000000E+00 0. -1.
        -13    1    3    3    0    0 -0.18541204809E+03  0.53941709931E+03 -0.48397192537E+03  0.74804896842E+03  0.00000000000E+00 0.  1.
         22    1    1    2    0    0  0.29278808606E+03 -0.10594678576E+04  0.95347155002E+03  0.14550962172E+04  0.00000000000E+00 0. -1.
<mgrwt>
<rscale>  0 0.28544582E+04</rscale>
<asrwt>0</asrwt>
<pdfrwt beam="1">  1        2 0.22660034E+00 0.28544582E+04</pdfrwt>
<pdfrwt beam="2">  1       -2 0.21276496E+00 0.28544582E+04</pdfrwt>
<totfact> 0.12522393E+00</totfact>
</mgrwt>
</event>
<event>
 6    1  0.9562506E-007  0.2376458E+04  0.7818608E-02  0.8448370E-01
         -2   -1    0    0    0  501 -0.00000000000E+00  0.00000000000E+00  0.94728076578E+03  0.94728076578E+03  0.00000000000E+00 0.  1.
          2   -1    0    0  501    0  0.00000000000E+00 -0.00000000000E+00 -0.14904646641E+04  0.14904646641E+04  0.00000000000E+00 0. -1.
         23    2    1    2    0    0 -0.67463446924E+03 -0.83406605455E+03 -0.79175846667E+03  0.13365700731E+04  0.93489251948E+02 0.  0.
         13    1    3    3    0    0 -0.14784838801E+03 -0.24791728332E+03 -0.20505317895E+03  0.35407475398E+03  0.00000000000E+00 0. -1.
        -13    1    3    3    0    0 -0.52678608123E+03 -0.58614877122E+03 -0.58670528772E+03  0.98249531908E+03  0.00000000000E+00 0.  1.
         22    1    1    2    0    0  0.67463446924E+03  0.83406605455E+03  0.24857456834E+03  0.11011753568E+04  0.00000000000E+00 0.  1.
<mgrwt>
<rscale>  0 0.23764583E+04</rscale>
<asrwt>0</asrwt>
<pdfrwt beam="1">  1        2 0.22930226E+00 0.23764583E+04</pdfrwt>
<pdfrwt beam="2">  1       -2 0.14573550E+00 0.23764583E+04</pdfrwt>
<totfact> 0.37448692E+00</totfact>
</mgrwt>
</event>
<event>
 6    1  0.9562506E-007  0.2178813E+04  0.7818608E-02  0.8527299E-01
         -2   -1    0    0    0  501 -0.00000000000E+00  0.00000000000E+00  0.10519705590E+04  0.10519705590E+04  0.00000000000E+00 0.  1.
          2   -1    0    0  501    0  0.00000000000E+00 -0.00000000000E+00 -0.11281746558E+04  0.11281746558E+04  0.00000000000E+00 0. -1.
         23    2    1    2    0    0 -0.35837548882E+03  0.84230037345E+03 -0.62576636126E+03  0.11124741078E+04  0.90067705806E+02 0.  0.
         11    1    3    3    0    0 -0.11263166549E+03  0.29011608019E+03 -0.26380909685E+03  0.40798096970E+03  0.00000000000E+00 0.  1.
        -11    1    3    3    0    0 -0.24574382333E+03  0.55218429326E+03 -0.36195726440E+03  0.70449313813E+03  0.00000000000E+00 0. -1.
         22    1    1    2    0    0  0.35837548882E+03 -0.84230037345E+03  0.54956226447E+03  0.10676711070E+04  0.00000000000E+00 0.  1.
<mgrwt>
<rscale>  0 0.21788130E+04</rscale>
<asrwt>0</asrwt>
<pdfrwt beam="1">  1        2 0.17356533E+00 0.21788130E+04</pdfrwt>
<pdfrwt beam="2">  1       -2 0.16184162E+00 0.21788130E+04</pdfrwt>
<totfact> 0.46796063E+00</totfact>
</mgrwt>
</event>
<event>
 6    1  0.9562506E-007  0.1175646E+04  0.7818608E-02  0.9134445E-01
          2   -1    0    0  501    0  0.00000000000E+00  0.00000000000E+00  0.41128302556E+03  0.41128302556E+03  0.00000000000E+00 0. -1.
         -2   -1    0    0    0  501 -0.00000000000E+00 -0.00000000000E+00 -0.84014117139E+03  0.84014117139E+03  0.00000000000E+00 0.  1.
         23    2    1    2    0    0 -0.30747358733E+03  0.49391249052E+03 -0.15833941722E+03  0.60980909603E+03  0.91138396748E+02 0.  0.
         11    1    3    3    0    0 -0.26583148009E+03  0.39242207613E+03 -0.15949994743E+03  0.50010168453E+03  0.00000000000E+00 0.  1.
        -11    1    3    3    0    0 -0.41642107245E+02  0.10149041439E+03  0.11605302046E+01  0.10970741151E+03  0.00000000000E+00 0. -1.
         22    1    1    2    0    0  0.30747358733E+03 -0.49391249052E+03 -0.27051872861E+03  0.64161510092E+03  0.00000000000E+00 0.  1.
<mgrwt>
<rscale>  0 0.11756459E+04</rscale>
<asrwt>0</asrwt>
<pdfrwt beam="1">  1        2 0.63274313E-01 0.11756459E+04</pdfrwt>
<pdfrwt beam="2">  1       -2 0.12925249E+00 0.11756459E+04</pdfrwt>
<totfact> 0.33538485E+01</totfact>
</mgrwt>
</event>
<event>
 6    1  0.9562506E-007  0.7402069E+04  0.7818608E-02  0.7537334E-01
         -2   -1    0    0    0  501 -0.00000000000E+00  0.00000000000E+00  0.28986575262E+04  0.28986575262E+04  0.00000000000E+00 0.  1.
          2   -1    0    0  501    0  0.00000000000E+00 -0.00000000000E+00 -0.47255171053E+04  0.47255171053E+04  0.00000000000E+00 0. -1.
         23    2    1    2    0    0  0.21014460672E+04 -0.29927655032E+04 -0.32938588061E+03  0.36725738916E+04  0.81135692114E+02 0.  0.
         13    1    3    3    0    0  0.15142921284E+04 -0.21857519259E+04 -0.20732038183E+03  0.26671283944E+04  0.00000000000E+00 0. -1.
        -13    1    3    3    0    0  0.58715393880E+03 -0.80701357727E+03 -0.12206549878E+03  0.10054454972E+04  0.00000000000E+00 0.  1.
         22    1    1    2    0    0 -0.21014460672E+04  0.29927655032E+04 -0.14974736985E+04  0.39516007399E+04  0.00000000000E+00 0. -1.
<mgrwt>
<rscale>  0 0.74020688E+04</rscale>
<asrwt>0</asrwt>
<pdfrwt beam="1">  1        2 0.72700262E+00 0.74020688E+04</pdfrwt>
<pdfrwt beam="2">  1       -2 0.44594732E+00 0.74020688E+04</pdfrwt>
<totfact> 0.15893732E-04</totfact>
</mgrwt>
</event>
<event>
 6    1  0.9562506E-007  0.1550490E+04  0.7818608E-02  0.8851555E-01
         -2   -1    0    0    0  501 -0.00000000000E+00  0.00000000000E+00  0.41923321955E+03  0.41923321955E+03  0.00000000000E+00 0.  1.
          2   -1    0    0  501    0  0.00000000000E+00 -0.00000000000E+00 -0.14335819587E+04  0.14335819587E+04  0.00000000000E+00 0. -1.
         23    2    1    2    0    0 -0.33627337191E+03  0.59283088563E+02 -0.13369841247E+04  0.13830409162E+04  0.93173820827E+02 0.  0.
         11    1    3    3    0    0 -0.21238954183E+03 -0.74415813304E+01 -0.76089248692E+03  0.79001396903E+03  0.00000000000E+00 0.  1.
        -11    1    3    3    0    0 -0.12388383008E+03  0.66724669893E+02 -0.57609163778E+03  0.59302694715E+03  0.00000000000E+00 0. -1.
         22    1    1    2    0    0  0.33627337191E+03 -0.59283088563E+02  0.32263538558E+03  0.46977426203E+03  0.00000000000E+00 0.  1.
<mgrwt>
<rscale>  0 0.15504905E+04</rscale>
<asrwt>0</asrwt>
<pdfrwt beam="1">  1        2 0.22055107E+00 0.15504905E+04</pdfrwt>
<pdfrwt beam="2">  1       -2 0.64497419E-01 0.15504905E+04</pdfrwt>
<totfact> 0.29580761E+01</totfact>
</mgrwt>
</event>
<event>
 6    1  0.9562506E-007  0.1559626E+04  0.7818608E-02  0.8845743E-01
          1   -1    0    0  501    0  0.00000000000E+00  0.00000000000E+00  0.24203547288E+04  0.24203547288E+04  0.00000000000E+00 0. -1.
         -1   -1    0    0    0  501 -0.00000000000E+00 -0.00000000000E+00 -0.25124751673E+03  0.25124751673E+03  0.00000000000E+00 0.  1.
         23    2    1    2    0    0  0.89074351261E+02  0.67250268216E+03  0.43894259414E+03  0.81319870951E+03  0.91801103690E+02 0.  0.
         13    1    3    3    0    0  0.73781620452E+02  0.23071435026E+03  0.16658714176E+03  0.29397978626E+03  0.00000000000E+00 0. -1.
        -13    1    3    3    0    0  0.15292730809E+02  0.44178833189E+03  0.27235545238E+03  0.51921892324E+03  0.00000000000E+00 0.  1.
         22    1    1    2    0    0 -0.89074351261E+02 -0.67250268216E+03  0.17301646179E+04  0.18584035360E+04  0.00000000000E+00 0. -1.
<mgrwt>
<rscale>  0 0.15596257E+04</rscale>
<asrwt>0</asrwt>
<pdfrwt beam="1">  1        1 0.37236225E+00 0.15596257E+04</pdfrwt>
<pdfrwt beam="2">  1       -1 0.38653466E-01 0.15596257E+04</pdfrwt>
<totfact> 0.96198325E+00</totfact>
</mgrwt>
</event>
<event>
 6    1  0.9562506E-007  0.1516495E+04  0.7818608E-02  0.8873557E-01
          2   -1    0    0  501    0  0.00000000000E+00  0.00000000000E+00  0.39755574271E+03  0.39755574271E+03  0.00000000000E+00 0. -1.
         -2   -1    0    0    0  501 -0.00000000000E+00 -0.00000000000E+00 -0.14461862206E+04  0.14461862206E+04  0.00000000000E+00 0.  1.
         23    2    1    2    0    0  0.66552623801E+03 -0.31449191629E+03 -0.73334816642E+03  0.10429715375E+04  0.90331367485E+02 0.  0.
         11    1    3    3    0    0  0.60053835102E+03 -0.28738363027E+03 -0.62128014745E+03  0.91061774835E+03  0.00000000000E+00 0. -1.
        -11    1    3    3    0    0  0.64987886988E+02 -0.27108286017E+02 -0.11206801897E+03  0.13235378915E+03  0.00000000000E+00 0.  1.
         22    1    1    2    0    0 -0.66552623801E+03  0.31449191629E+03 -0.31528231142E+03  0.80077042577E+03  0.00000000000E+00 0. -1.
<mgrwt>
<rscale>  0 0.15164955E+04</rscale>
<asrwt>0</asrwt>
<pdfrwt beam="1">  1        2 0.61162422E-01 0.15164955E+04</pdfrwt>
<pdfrwt beam="2">  1       -2 0.22249019E+00 0.15164955E+04</pdfrwt>
<totfact> 0.73608380E+00</totfact>
</mgrwt>
</event>
<event>
 6    1  0.9562506E-007  0.4016026E+04  0.7818608E-02  0.8001321E-01
          2   -1    0    0  501    0  0.00000000000E+00  0.00000000000E+00  0.28135974408E+04  0.28135974408E+04  0.00000000000E+00 0. -1.
         -2   -1    0    0    0  501 -0.00000000000E+00 -0.00000000000E+00 -0.14330823282E+04  0.14330823282E+04  0.00000000000E+00 0.  1.
         23    2    1    2    0    0  0.16930477073E+04 -0.20571842573E+03  0.18093760556E+04  0.24880859221E+04  0.89438441705E+02 0.  0.
         13    1    3    3    0    0  0.10049668261E+04 -0.11683585054E+03  0.10093255816E+04  0.14291070873E+04  0.00000000000E+00 0. -1.
        -13    1    3    3    0    0  0.68808088126E+03 -0.88882575188E+02  0.80005047405E+03  0.10589788347E+04  0.00000000000E+00 0.  1.
         22    1    1    2    0    0 -0.16930477073E+04  0.20571842573E+03 -0.42886094304E+03  0.17585938469E+04  0.00000000000E+00 0.  1.
<mgrwt>
<rscale>  0 0.40160263E+04</rscale>
<asrwt>0</asrwt>
<pdfrwt beam="1">  1        2 0.43286114E+00 0.40160263E+04</pdfrwt>
<pdfrwt beam="2">  1       -2 0.22047421E+00 0.40160263E+04</pdfrwt>
<totfact> 0.17540809E-01</totfact>
</mgrwt>
</event>
<event>
 6    1  0.9562506E-007  0.9321498E+03  0.7818608E-02  0.9386262E-01
          2   -1    0    0  501    0  0.00000000000E+00  0.00000000000E+00  0.28454793096E+03  0.28454793096E+03  0.00000000000E+00 0. -1.
         -2   -1    0    0    0  501 -0.00000000000E+00 -0.00000000000E+00 -0.76340673911E+03  0.76340673911E+03  0.00000000000E+00 0.  1.
         23    2    1    2    0    0 -0.22177325710E+02  0.42458621925E+03 -0.44443291054E+03  0.62139818637E+03  0.88599112290E+02 0.  0.
         13    1    3    3    0    0 -0.40403175231E+02  0.87286672102E+02 -0.10863649696E+03  0.14509744370E+03  0.00000000000E+00 0. -1.
        -13    1    3    3    0    0  0.18225849522E+02  0.33729954715E+03 -0.33579641358E+03  0.47630074267E+03  0.00000000000E+00 0.  1.
         22    1    1    2    0    0  0.22177325710E+02 -0.42458621925E+03 -0.34425897609E+02  0.42655648369E+03  0.00000000000E+00 0. -1.
<mgrwt>
<rscale>  0 0.93214979E+03</rscale>
<asrwt>0</asrwt>
<pdfrwt beam="1">  1        2 0.43776604E-01 0.93214979E+03</pdfrwt>
<pdfrwt beam="2">  1       -2 0.11744719E+00 0.93214979E+03</pdfrwt>
<totfact> 0.65312110E+01</totfact>
</mgrwt>
</event>
<event>
 6    1  0.9562506E-007  0.2306759E+04  0.7818608E-02  0.8475261E-01
         -2   -1    0    0    0  501 -0.00000000000E+00  0.00000000000E+00  0.52718882360E+03  0.52718882360E+03  0.00000000000E+00 0.  1.
          2   -1    0    0  501    0  0.00000000000E+00 -0.00000000000E+00 -0.25233538279E+04  0.25233538279E+04  0.00000000000E+00 0. -1.
         23    2    1    2    0    0 -0.26353698853E+03  0.57495636037E+03  0.27305610728E+03  0.69482810727E+03  0.90553300730E+02 0.  0.
         13    1    3    3    0    0 -0.21114077906E+03  0.46982578669E+03  0.18233349580E+03  0.54640845721E+03  0.00000000000E+00 0.  1.
        -13    1    3    3    0    0 -0.52396209470E+02  0.10513057368E+03  0.90722611480E+02  0.14841965005E+03  0.00000000000E+00 0. -1.
         22    1    1    2    0    0  0.26353698853E+03 -0.57495636037E+03 -0.22692211116E+04  0.23557145442E+04  0.00000000000E+00 0. -1.
<mgrwt>
<rscale>  0 0.23067587E+04</rscale>
<asrwt>0</asrwt>
<pdfrwt beam="1">  1        2 0.38820827E+00 0.23067587E+04</pdfrwt>
<pdfrwt beam="2">  1       -2 0.81105974E-01 0.23067587E+04</pdfrwt>
<totfact> 0.40971914E+00</totfact>
</mgrwt>
</event>
<event>
 6    1  0.9562506E-007  0.5487836E+04  0.7818608E-02  0.7757365E-01
         -2   -1    0    0    0  501 -0.00000000000E+00  0.00000000000E+00  0.25964205385E+04  0.25964205385E+04  0.00000000000E+00 0.  1.
          2   -1    0    0  501    0  0.00000000000E+00 -0.00000000000E+00 -0.28997948770E+04  0.28997948770E+04  0.00000000000E+00 0. -1.
         23    2    1    2    0    0  0.10161098943E+04 -0.93203685914E+03 -0.25260956303E+04  0.28805583345E+04  0.12363317059E+03 0.  0.
         11    1    3    3    0    0  0.99139151110E+03 -0.91847067118E+03 -0.24313921366E+04  0.27817464341E+04  0.00000000000E+00 0. -1.
        -11    1    3    3    0    0  0.24718383163E+02 -0.13566187967E+02 -0.94703493750E+02  0.98811900349E+02  0.00000000000E+00 0.  1.
         22    1    1    2    0    0 -0.10161098943E+04  0.93203685914E+03  0.22227212918E+04  0.26156570809E+04  0.00000000000E+00 0.  1.
<mgrwt>
<rscale>  0 0.54878364E+04</rscale>
<asrwt>0</asrwt>
<pdfrwt beam="1">  1        2 0.44612229E+00 0.54878364E+04</pdfrwt>
<pdfrwt beam="2">  1       -2 0.39944932E+00 0.54878364E+04</pdfrwt>
<totfact> 0.10543325E-02</totfact>
</mgrwt>
</event>
<event>
 6    1  0.9562506E-007  0.5486832E+04  0.7818608E-02  0.7757504E-01
         -1   -1    0    0    0  501 -0.00000000000E+00  0.00000000000E+00  0.20199693354E+04  0.20199693354E+04  0.00000000000E+00 0.  1.
          1   -1    0    0  501    0  0.00000000000E+00 -0.00000000000E+00 -0.37259633512E+04  0.37259633512E+04  0.00000000000E+00 0. -1.
         23    2    1    2    0    0  0.28848856746E+03 -0.18952236320E+04  0.12004511149E+04  0.22641915178E+04  0.10189249805E+03 0.  0.
         13    1    3    3    0    0  0.23211712680E+03 -0.11998895740E+04  0.76063773636E+03  0.14395079424E+04  0.00000000000E+00 0. -1.
        -13    1    3    3    0    0  0.56371440657E+02 -0.69533405801E+03  0.43981337855E+03  0.82468357538E+03  0.00000000000E+00 0.  1.
         22    1    1    2    0    0 -0.28848856746E+03  0.18952236320E+04 -0.29064451307E+04  0.34817411688E+04  0.00000000000E+00 0. -1.
<mgrwt>
<rscale>  0 0.54868321E+04</rscale>
<asrwt>0</asrwt>
<pdfrwt beam="1">  1        1 0.57322513E+00 0.54868321E+04</pdfrwt>
<pdfrwt beam="2">  1       -1 0.31076451E+00 0.54868321E+04</pdfrwt>
<totfact> 0.32021410E-03</totfact>
</mgrwt>
</event>
<event>
 6    1  0.1197020E-006  0.1798724E+04  0.7818608E-02  0.8706978E-01
         -2   -1    0    0    0  501 -0.00000000000E+00  0.00000000000E+00  0.79012174805E+03  0.79012174805E+03  0.00000000000E+00 0.  1.
          2   -1    0    0  501    0  0.00000000000E+00 -0.00000000000E+00 -0.10237058060E+04  0.10237058060E+04  0.00000000000E+00 0. -1.
         23    2    1    2    0    0 -0.25427578957E+03 -0.46670837461E+03 -0.84570015434E+03  0.10031741142E+04  0.93148635700E+02 0.  0.
         11    1    3    3    0    0 -0.16541293660E+03 -0.23704193350E+03 -0.39331447480E+03  0.48810510541E+03  0.00000000000E+00 0. -1.
        -11    1    3    3    0    0 -0.88862852967E+02 -0.22966644111E+03 -0.45238567953E+03  0.51506900883E+03  0.00000000000E+00 0.  1.
         22    1    1    2    0    0  0.25427578957E+03  0.46670837461E+03  0.61211609636E+03  0.81065343984E+03  0.00000000000E+00 0.  1.
<mgrwt>
<rscale>  0 0.17987242E+04</rscale>
<asrwt>0</asrwt>
<pdfrwt beam="1">  1        2 0.15749320E+00 0.17987242E+04</pdfrwt>
<pdfrwt beam="2">  1       -2 0.12155719E+00 0.17987242E+04</pdfrwt>
<totfact> 0.11809911E+01</totfact>
</mgrwt>
</event>
<event>
 6    1  0.9562506E-007  0.3052524E+04  0.7818608E-02  0.8228890E-01
         -1   -1    0    0    0  501 -0.00000000000E+00  0.00000000000E+00  0.66599368693E+03  0.66599368693E+03  0.00000000000E+00 0.  1.
          1   -1    0    0  501    0  0.00000000000E+00 -0.00000000000E+00 -0.34977433761E+04  0.34977433761E+04  0.00000000000E+00 0. -1.
         23    2    1    2    0    0  0.11942681263E+04 -0.64248663265E+03 -0.23684438059E+04  0.27306572425E+04  0.88867788231E+02 0.  0.
         11    1    3    3    0    0  0.48121311896E+03 -0.22152199391E+03 -0.86782355832E+03  0.10167378168E+04  0.00000000000E+00 0. -1.
        -11    1    3    3    0    0  0.71305500732E+03 -0.42096463874E+03 -0.15006202476E+04  0.17139194257E+04  0.00000000000E+00 0.  1.
         22    1    1    2    0    0 -0.11942681263E+04  0.64248663265E+03 -0.46330588330E+03  0.14330798206E+04  0.00000000000E+00 0.  1.
<mgrwt>
<rscale>  0 0.30525236E+04</rscale>
<asrwt>0</asrwt>
<pdfrwt beam="1">  1        1 0.53811437E+00 0.30525236E+04</pdfrwt>
<pdfrwt beam="2">  1       -1 0.10246057E+00 0.30525236E+04</pdfrwt>
<totfact> 0.19139899E-01</totfact>
</mgrwt>
</event>
<event>
 6    1  0.9562506E-007  0.1374946E+04  0.7818608E-02  0.8972156E-01
         -2   -1    0    0    0  501 -0.00000000000E+00  0.00000000000E+00  0.34375067831E+03  0.34375067831E+03  0.00000000000E+00 0.  1.
          2   -1    0    0  501    0  0.00000000000E+00 -0.00000000000E+00 -0.13748889481E+04  0.13748889481E+04  0.00000000000E+00 0. -1.
         23    2    1    2    0    0  0.18677803002E+03  0.28757474210E+03 -0.12582628042E+04  0.13073358228E+04  0.91194322604E+02 0.  0.
         13    1    3    3    0    0  0.22020615515E+02  0.97813156692E+02 -0.44376765218E+03  0.45495280003E+03  0.00000000000E+00 0. -1.
        -13    1    3    3    0    0  0.16475741450E+03  0.18976158540E+03 -0.81449515198E+03  0.85238302278E+03  0.00000000000E+00 0.  1.
         22    1    1    2    0    0 -0.18677803002E+03 -0.28757474210E+03  0.22712453433E+03  0.41130380364E+03  0.00000000000E+00 0.  1.
<mgrwt>
<rscale>  0 0.13749458E+04</rscale>
<asrwt>0</asrwt>
<pdfrwt beam="1">  1        2 0.21152137E+00 0.13749458E+04</pdfrwt>
<pdfrwt beam="2">  1       -2 0.52884720E-01 0.13749458E+04</pdfrwt>
<totfact> 0.49179699E+01</totfact>
</mgrwt>
</event>
<event>
 6    1  0.9562506E-007  0.1704705E+04  0.7818608E-02  0.8758685E-01
         -3   -1    0    0    0  501 -0.00000000000E+00  0.00000000000E+00  0.15570101485E+04  0.15570101485E+04  0.00000000000E+00 0.  1.
          3   -1    0    0  501    0  0.00000000000E+00 -0.00000000000E+00 -0.46660262600E+03  0.46660262600E+03  0.00000000000E+00 0. -1.
         23    2    1    2    0    0  0.62006102295E+02  0.27081198113E+03 -0.40670076125E+03  0.50094501720E+03  0.91413977145E+02 0.  0.
         11    1    3    3    0    0  0.26880212716E+01  0.85910660448E+02 -0.19814360641E+03  0.21598323036E+03  0.00000000000E+00 0.  1.
        -11    1    3    3    0    0  0.59318081023E+02  0.18490132068E+03 -0.20855715484E+03  0.28496178684E+03  0.00000000000E+00 0. -1.
         22    1    1    2    0    0 -0.62006102295E+02 -0.27081198113E+03  0.14971082838E+04  0.15226677573E+04  0.00000000000E+00 0.  1.
<mgrwt>
<rscale>  0 0.17047053E+04</rscale>
<asrwt>0</asrwt>
<pdfrwt beam="1">  1        3 0.71785020E-01 0.17047053E+04</pdfrwt>
<pdfrwt beam="2">  1       -3 0.23954002E+00 0.17047053E+04</pdfrwt>
<totfact> 0.38738790E-01</totfact>
</mgrwt>
</event>
<event>
 6    1  0.9562506E-007  0.1763500E+04  0.7818608E-02  0.8725954E-01
          1   -1    0    0  501    0  0.00000000000E+00  0.00000000000E+00  0.86463120030E+03  0.86463120030E+03  0.00000000000E+00 0. -1.
         -1   -1    0    0    0  501 -0.00000000000E+00 -0.00000000000E+00 -0.89920823462E+03  0.89920823462E+03  0.00000000000E+00 0.  1.
         23    2    1    2    0    0  0.22827018947E+03  0.14915903179E+03  0.81894262998E+03  0.86781961734E+03  0.89934203101E+02 0.  0.
         11    1    3    3    0    0  0.85514305452E+02  0.54181330698E+02  0.44606072801E+03  0.45740407312E+03  0.00000000000E+00 0. -1.
        -11    1    3    3    0    0  0.14275588402E+03  0.94977701091E+02  0.37288190197E+03  0.41041554423E+03  0.00000000000E+00 0.  1.
         22    1    1    2    0    0 -0.22827018947E+03 -0.14915903179E+03 -0.85351966429E+03  0.89601981758E+03  0.00000000000E+00 0.  1.
<mgrwt>
<rscale>  0 0.17635005E+04</rscale>
<asrwt>0</asrwt>
<pdfrwt beam="1">  1        1 0.13302019E+00 0.17635005E+04</pdfrwt>
<pdfrwt beam="2">  1       -1 0.13833973E+00 0.17635005E+04</pdfrwt>
<totfact> 0.79696182E+00</totfact>
</mgrwt>
</event>
<event>
 6    1  0.9562506E-007  0.1181829E+04  0.7818608E-02  0.9128912E-01
          2   -1    0    0  501    0  0.00000000000E+00  0.00000000000E+00  0.20767989078E+04  0.20767989078E+04  0.00000000000E+00 0. -1.
         -2   -1    0    0    0  501 -0.00000000000E+00 -0.00000000000E+00 -0.16813362410E+03  0.16813362410E+03  0.00000000000E+00 0.  1.
         23    2    1    2    0    0  0.47733769042E+03 -0.15569200062E+03  0.37978285633E+03  0.63571758463E+03  0.88377370967E+02 0.  0.
         13    1    3    3    0    0  0.31301095407E+03 -0.14475276629E+03  0.24758122713E+03  0.42452995742E+03  0.00000000000E+00 0.  1.
        -13    1    3    3    0    0  0.16432673635E+03 -0.10939234329E+02  0.13220162919E+03  0.21118762721E+03  0.00000000000E+00 0. -1.
         22    1    1    2    0    0 -0.47733769042E+03  0.15569200062E+03  0.15288824274E+04  0.16092149473E+04  0.00000000000E+00 0. -1.
<mgrwt>
<rscale>  0 0.11818286E+04</rscale>
<asrwt>0</asrwt>
<pdfrwt beam="1">  1        2 0.31950751E+00 0.11818286E+04</pdfrwt>
<pdfrwt beam="2">  1       -2 0.25866713E-01 0.11818286E+04</pdfrwt>
<totfact> 0.80805633E+01</totfact>
</mgrwt>
</event>
<event>
 6    1  0.9562506E-007  0.1606331E+04  0.7818608E-02  0.8816668E-01
          1   -1    0    0  501    0  0.00000000000E+00  0.00000000000E+00  0.91624775864E+03  0.91624775864E+03  0.00000000000E+00 0. -1.
         -1   -1    0    0    0  501 -0.00000000000E+00 -0.00000000000E+00 -0.70403983477E+03  0.70403983477E+03  0.00000000000E+00 0.  1.
         23    2    1    2    0    0  0.33454956000E+03  0.11909815592E+03 -0.61748573979E+03  0.71779141373E+03  0.88476527634E+02 0.  0.
         11    1    3    3    0    0  0.25458209713E+03  0.75424563775E+02 -0.52293424078E+03  0.58648199391E+03  0.00000000000E+00 0. -1.
        -11    1    3    3    0    0  0.79967462862E+02  0.43673592149E+02 -0.94551499004E+02  0.13130941981E+03  0.00000000000E+00 0.  1.
         22    1    1    2    0    0 -0.33454956000E+03 -0.11909815592E+03  0.82969366366E+03  0.90249617969E+03  0.00000000000E+00 0. -1.
<mgrwt>
<rscale>  0 0.16063311E+04</rscale>
<asrwt>0</asrwt>
<pdfrwt beam="1">  1        1 0.14096119E+00 0.16063311E+04</pdfrwt>
<pdfrwt beam="2">  1       -1 0.10831382E+00 0.16063311E+04</pdfrwt>
<totfact> 0.13400657E+01</totfact>
</mgrwt>
</event>
<event>
 6    1  0.9562506E-007  0.2134865E+04  0.7818608E-02  0.8546039E-01
          2   -1    0    0  501    0  0.00000000000E+00  0.00000000000E+00  0.20241328433E+04  0.20241328433E+04  0.00000000000E+00 0. -1.
         -2   -1    0    0    0  501 -0.00000000000E+00 -0.00000000000E+00 -0.56291377749E+03  0.56291377749E+03  0.00000000000E+00 0.  1.
         23    2    1    2    0    0  0.55410160424E+02 -0.36157026715E+03  0.19446625989E+04  0.19808115232E+04  0.89990683095E+02 0.  0.
         11    1    3    3    0    0  0.72213843210E+02 -0.17568255506E+03  0.10044993876E+04  0.10223004544E+04  0.00000000000E+00 0. -1.
        -11    1    3    3    0    0 -0.16803682786E+02 -0.18588771209E+03  0.94016321125E+03  0.95851106882E+03  0.00000000000E+00 0.  1.
         22    1    1    2    0    0 -0.55410160424E+02  0.36157026715E+03 -0.48344353303E+03  0.60623509762E+03  0.00000000000E+00 0.  1.
<mgrwt>
<rscale>  0 0.21348651E+04</rscale>
<asrwt>0</asrwt>
<pdfrwt beam="1">  1        2 0.31140505E+00 0.21348651E+04</pdfrwt>
<pdfrwt beam="2">  1       -2 0.86602121E-01 0.21348651E+04</pdfrwt>
<totfact> 0.68720549E+00</totfact>
</mgrwt>
</event>
<event>
 6    1  0.9562506E-007  0.1076059E+04  0.7818608E-02  0.9228846E-01
         -2   -1    0    0    0  501 -0.00000000000E+00  0.00000000000E+00  0.22747850896E+03  0.22747850896E+03  0.00000000000E+00 0.  1.
          2   -1    0    0  501    0  0.00000000000E+00 -0.00000000000E+00 -0.12725412913E+04  0.12725412913E+04  0.00000000000E+00 0. -1.
         23    2    1    2    0    0 -0.34272781709E+03  0.16698837996E+03 -0.10478399156E+04  0.11187650454E+04  0.91209990617E+02 0.  0.
         11    1    3    3    0    0 -0.11689843238E+03  0.91756472497E+02 -0.31625067552E+03  0.34942664968E+03  0.00000000000E+00 0. -1.
        -11    1    3    3    0    0 -0.22582938471E+03  0.75231907466E+02 -0.73158924011E+03  0.76933839573E+03  0.00000000000E+00 0.  1.
         22    1    1    2    0    0  0.34272781709E+03 -0.16698837996E+03  0.27771332662E+01  0.38125475488E+03  0.00000000000E+00 0.  1.
<mgrwt>
<rscale>  0 0.10760591E+04</rscale>
<asrwt>0</asrwt>
<pdfrwt beam="1">  1        2 0.19577558E+00 0.10760591E+04</pdfrwt>
<pdfrwt beam="2">  1       -2 0.34996694E-01 0.10760591E+04</pdfrwt>
<totfact> 0.13055260E+02</totfact>
</mgrwt>
</event>
<event>
 6    1  0.9562506E-007  0.1844122E+04  0.7818608E-02  0.8683182E-01
          2   -1    0    0  501    0  0.00000000000E+00  0.00000000000E+00  0.21320678180E+04  0.21320678180E+04  0.00000000000E+00 0. -1.
         -2   -1    0    0    0  501 -0.00000000000E+00 -0.00000000000E+00 -0.39876599430E+03  0.39876599430E+03  0.00000000000E+00 0.  1.
         23    2    1    2    0    0  0.66547254245E+03 -0.61555494757E+03  0.10853495156E+04  0.14165610487E+04  0.83066451424E+02 0.  0.
         13    1    3    3    0    0  0.60627380446E+03 -0.57278128721E+03  0.96208831794E+03  0.12732871870E+04  0.00000000000E+00 0.  1.
        -13    1    3    3    0    0  0.59198737991E+02 -0.42773660359E+02  0.12326119767E+03  0.14327386172E+03  0.00000000000E+00 0. -1.
         22    1    1    2    0    0 -0.66547254245E+03  0.61555494757E+03  0.64795230812E+03  0.11142727637E+04  0.00000000000E+00 0.  1.
<mgrwt>
<rscale>  0 0.18441216E+04</rscale>
<asrwt>0</asrwt>
<pdfrwt beam="1">  1        2 0.32801043E+00 0.18441216E+04</pdfrwt>
<pdfrwt beam="2">  1       -2 0.61348616E-01 0.18441216E+04</pdfrwt>
<totfact> 0.13105168E+01</totfact>
</mgrwt>
</event>
<event>
 6    1  0.9562506E-007  0.7986792E+03  0.7818608E-02  0.9561931E-01
          2   -1    0    0  501    0  0.00000000000E+00  0.00000000000E+00  0.10978230344E+04  0.10978230344E+04  0.00000000000E+00 0. -1.
         -2   -1    0    0    0  501 -0.00000000000E+00 -0.00000000000E+00 -0.14526213606E+03  0.14526213606E+03  0.00000000000E+00 0.  1.
         23    2    1    2    0    0 -0.26074825311E+03  0.26959034894E+03  0.67131786222E+03  0.77429283572E+03  0.90515830458E+02 0.  0.
         13    1    3    3    0    0 -0.67573052969E+02  0.13153322009E+03  0.23842385538E+03  0.28055844362E+03  0.00000000000E+00 0. -1.
        -13    1    3    3    0    0 -0.19317520014E+03  0.13805712885E+03  0.43289400684E+03  0.49373439209E+03  0.00000000000E+00 0.  1.
         22    1    1    2    0    0  0.26074825311E+03 -0.26959034894E+03  0.28124303609E+03  0.46879233472E+03  0.00000000000E+00 0.  1.
<mgrwt>
<rscale>  0 0.79867921E+03</rscale>
<asrwt>0</asrwt>
<pdfrwt beam="1">  1        2 0.16889585E+00 0.79867921E+03</pdfrwt>
<pdfrwt beam="2">  1       -2 0.22348022E-01 0.79867921E+03</pdfrwt>
<totfact> 0.38519977E+02</totfact>
</mgrwt>
</event>
<event>
 6    1  0.9562506E-007  0.9307708E+03  0.7818608E-02  0.9387913E-01
         -2   -1    0    0    0  501 -0.00000000000E+00  0.00000000000E+00  0.95386592310E+03  0.95386592310E+03  0.00000000000E+00 0.  1.
          2   -1    0    0  501    0  0.00000000000E+00 -0.00000000000E+00 -0.22705873157E+03  0.22705873157E+03  0.00000000000E+00 0. -1.
         23    2    1    2    0    0 -0.43699677006E+03  0.64954322245E+02  0.53366576447E+03  0.69875367683E+03  0.90952249532E+02 0.  0.
         13    1    3    3    0    0 -0.78038851187E+02 -0.19844405402E+02  0.12023859761E+03  0.14471068750E+03  0.00000000000E+00 0.  1.
        -13    1    3    3    0    0 -0.35895791887E+03  0.84798727646E+02  0.41342716686E+03  0.55404298933E+03  0.00000000000E+00 0. -1.
         22    1    1    2    0    0  0.43699677006E+03 -0.64954322245E+02  0.19314142706E+03  0.48217097784E+03  0.00000000000E+00 0. -1.
<mgrwt>
<rscale>  0 0.93077083E+03</rscale>
<asrwt>0</asrwt>
<pdfrwt beam="1">  1        2 0.34932113E-01 0.93077083E+03</pdfrwt>
<pdfrwt beam="2">  1       -2 0.14674860E+00 0.93077083E+03</pdfrwt>
<totfact> 0.47659494E+01</totfact>
</mgrwt>
</event>
<event>
 6    1  0.9562506E-007  0.6018600E+04  0.7818608E-02  0.7688100E-01
          2   -1    0    0  501    0  0.00000000000E+00  0.00000000000E+00  0.40164034706E+04  0.40164034706E+04  0.00000000000E+00 0. -1.
         -2   -1    0    0    0  501 -0.00000000000E+00 -0.00000000000E+00 -0.22547253230E+04  0.22547253230E+04  0.00000000000E+00 0.  1.
         23    2    1    2    0    0 -0.14687352937E+04 -0.10373877453E+04  0.33945348634E+04  0.38422241534E+04  0.80391602740E+02 0.  0.
         11    1    3    3    0    0 -0.43863672401E+03 -0.31930885062E+03  0.11024800033E+04  0.12287483369E+04  0.00000000000E+00 0. -1.
        -11    1    3    3    0    0 -0.10300985697E+04 -0.71807889463E+03  0.22920548601E+04  0.26134758165E+04  0.00000000000E+00 0.  1.
         22    1    1    2    0    0  0.14687352937E+04  0.10373877453E+04 -0.16328567158E+04  0.24289046402E+04  0.00000000000E+00 0.  1.
<mgrwt>
<rscale>  0 0.60186000E+04</rscale>
<asrwt>0</asrwt>
<pdfrwt beam="1">  1        2 0.61790823E+00 0.60186000E+04</pdfrwt>
<pdfrwt beam="2">  1       -2 0.34688082E+00 0.60186000E+04</pdfrwt>
<totfact> 0.36102938E-03</totfact>
</mgrwt>
</event>
<event>
 6    1  0.9562506E-007  0.2410939E+04  0.7818608E-02  0.8435419E-01
          2   -1    0    0  501    0  0.00000000000E+00  0.00000000000E+00  0.13002534230E+04  0.13002534230E+04  0.00000000000E+00 0. -1.
         -2   -1    0    0    0  501 -0.00000000000E+00 -0.00000000000E+00 -0.11175953022E+04  0.11175953022E+04  0.00000000000E+00 0.  1.
         23    2    1    2    0    0  0.55799203233E+03 -0.32918481687E+03  0.11089799709E+04  0.12874550230E+04  0.89365030086E+02 0.  0.
         11    1    3    3    0    0  0.26251382230E+03 -0.10368702083E+03  0.47097830357E+03  0.54907655898E+03  0.00000000000E+00 0. -1.
        -11    1    3    3    0    0  0.29547821004E+03 -0.22549779604E+03  0.63800166737E+03  0.73837846406E+03  0.00000000000E+00 0.  1.
         22    1    1    2    0    0 -0.55799203233E+03  0.32918481687E+03 -0.92632185017E+03  0.11303937022E+04  0.00000000000E+00 0.  1.
<mgrwt>
<rscale>  0 0.24109393E+04</rscale>
<asrwt>0</asrwt>
<pdfrwt beam="1">  1        2 0.20003899E+00 0.24109393E+04</pdfrwt>
<pdfrwt beam="2">  1       -2 0.17193774E+00 0.24109393E+04</pdfrwt>
<totfact> 0.30660569E+00</totfact>
</mgrwt>
</event>
<event>
 6    1  0.9562506E-007  0.2125236E+04  0.7818608E-02  0.8550208E-01
         -2   -1    0    0    0  501 -0.00000000000E+00  0.00000000000E+00  0.86977607410E+03  0.86977607410E+03  0.00000000000E+00 0.  1.
          2   -1    0    0  501    0  0.00000000000E+00 -0.00000000000E+00 -0.12982154767E+04  0.12982154767E+04  0.00000000000E+00 0. -1.
         23    2    1    2    0    0 -0.82336686184E+03 -0.28227222427E+03  0.40405849922E+03  0.96355668155E+03  0.86992011189E+02 0.  0.
         13    1    3    3    0    0 -0.79014127510E+03 -0.25415650153E+03  0.37234299660E+03  0.90970218698E+03  0.00000000000E+00 0.  1.
        -13    1    3    3    0    0 -0.33225586740E+02 -0.28115722737E+02  0.31715502616E+02  0.53854494570E+02  0.00000000000E+00 0. -1.
         22    1    1    2    0    0  0.82336686184E+03  0.28227222427E+03 -0.83249790186E+03  0.12044348693E+04  0.00000000000E+00 0. -1.
<mgrwt>
<rscale>  0 0.21252358E+04</rscale>
<asrwt>0</asrwt>
<pdfrwt beam="1">  1        2 0.19972546E+00 0.21252358E+04</pdfrwt>
<pdfrwt beam="2">  1       -2 0.13381170E+00 0.21252358E+04</pdfrwt>
<totfact> 0.61506399E+00</totfact>
</mgrwt>
</event>
<event>
 6    1  0.9562506E-007  0.2483751E+04  0.7818608E-02  0.8408797E-01
          2   -1    0    0  501    0  0.00000000000E+00  0.00000000000E+00  0.27860558062E+04  0.27860558062E+04  0.00000000000E+00 0. -1.
         -2   -1    0    0    0  501 -0.00000000000E+00 -0.00000000000E+00 -0.55356194422E+03  0.55356194422E+03  0.00000000000E+00 0.  1.
         23    2    1    2    0    0  0.46548538104E+03 -0.51404236964E+03  0.24999357266E+04  0.25963537672E+04  0.10226460709E+03 0.  0.
         11    1    3    3    0    0  0.83743069217E+02 -0.13110934765E+03  0.44239592042E+03  0.46895278343E+03  0.00000000000E+00 0.  1.
        -11    1    3    3    0    0  0.38174231183E+03 -0.38293302200E+03  0.20575398061E+04  0.21274009838E+04  0.00000000000E+00 0. -1.
         22    1    1    2    0    0 -0.46548538104E+03  0.51404236964E+03 -0.26744186460E+03  0.74326398318E+03  0.00000000000E+00 0. -1.
<mgrwt>
<rscale>  0 0.24837508E+04</rscale>
<asrwt>0</asrwt>
<pdfrwt beam="1">  1        2 0.42862396E+00 0.24837508E+04</pdfrwt>
<pdfrwt beam="2">  1       -2 0.85163378E-01 0.24837508E+04</pdfrwt>
<totfact> 0.25259560E+00</totfact>
</mgrwt>
</event>
<event>
 6    1  0.9562506E-007  0.2101214E+04  0.7818608E-02  0.8560709E-01
         -4   -1    0    0    0  501 -0.00000000000E+00  0.00000000000E+00  0.62922173795E+03  0.62922173795E+03  0.00000000000E+00 0.  1.
          4   -1    0    0  501    0  0.00000000000E+00 -0.00000000000E+00 -0.17541916769E+04  0.17541916769E+04  0.00000000000E+00 0. -1.
         23    2    1    2    0    0  0.79138896266E+03  0.40933767811E+03 -0.11907704616E+04  0.14900022364E+04  0.91206071062E+02 0.  0.
         11    1    3    3    0    0  0.63279505829E+03  0.32845800146E+03 -0.88831687956E+03  0.11390439513E+04  0.00000000000E+00 0. -1.
        -11    1    3    3    0    0  0.15859390437E+03  0.80879676652E+02 -0.30245358205E+03  0.35095828512E+03  0.00000000000E+00 0.  1.
         22    1    1    2    0    0 -0.79138896266E+03 -0.40933767811E+03  0.65800522657E+02  0.89341117842E+03  0.00000000000E+00 0.  1.
<mgrwt>
<rscale>  0 0.21012144E+04</rscale>
<asrwt>0</asrwt>
<pdfrwt beam="1">  1        4 0.26987564E+00 0.21012144E+04</pdfrwt>
<pdfrwt beam="2">  1       -4 0.96803344E-01 0.21012144E+04</pdfrwt>
<totfact> 0.78162269E-02</totfact>
</mgrwt>
</event>
<event>
 6    1  0.9562506E-007  0.4648003E+04  0.7818608E-02  0.7885226E-01
         -2   -1    0    0    0  501 -0.00000000000E+00  0.00000000000E+00  0.25682909232E+04  0.25682909232E+04  0.00000000000E+00 0.  1.
          2   -1    0    0  501    0  0.00000000000E+00 -0.00000000000E+00 -0.21029480127E+04  0.21029480127E+04  0.00000000000E+00 0. -1.
         23    2    1    2    0    0 -0.10453130071E+04 -0.13078133287E+04  0.18515237748E+04  0.24976353901E+04  0.83589879071E+02 0.  0.
         13    1    3    3    0    0 -0.76528223973E+03 -0.98698447746E+03  0.13331109114E+04  0.18267402572E+04  0.00000000000E+00 0. -1.
        -13    1    3    3    0    0 -0.28003076732E+03 -0.32082885128E+03  0.51841286334E+03  0.67089513289E+03  0.00000000000E+00 0.  1.
         22    1    1    2    0    0  0.10453130071E+04  0.13078133287E+04 -0.13861808643E+04  0.21736035457E+04  0.00000000000E+00 0. -1.
<mgrwt>
<rscale>  0 0.46480027E+04</rscale>
<asrwt>0</asrwt>
<pdfrwt beam="1">  1        2 0.32353046E+00 0.46480027E+04</pdfrwt>
<pdfrwt beam="2">  1       -2 0.39512168E+00 0.46480027E+04</pdfrwt>
<totfact> 0.35015599E-02</totfact>
</mgrwt>
</event>
<event>
 6    1  0.9562506E-007  0.1416174E+04  0.7818608E-02  0.8942194E-01
         -2   -1    0    0    0  501 -0.00000000000E+00  0.00000000000E+00  0.21226925656E+03  0.21226925656E+03  0.00000000000E+00 0.  1.
          2   -1    0    0  501    0  0.00000000000E+00 -0.00000000000E+00 -0.23620326634E+04  0.23620326634E+04  0.00000000000E+00 0. -1.
         23    2    1    2    0    0 -0.15101214847E+03 -0.31016245621E+03 -0.21976993196E+04  0.22260157302E+04  0.79109504325E+02 0.  0.
         11    1    3    3    0    0  0.82288732306E+01 -0.20595001646E+02 -0.19168139531E+03  0.19296016624E+03  0.00000000000E+00 0.  1.
        -11    1    3    3    0    0 -0.15924102170E+03 -0.28956745457E+03 -0.20060179243E+04  0.20330555640E+04  0.00000000000E+00 0. -1.
         22    1    1    2    0    0  0.15101214847E+03  0.31016245621E+03  0.47935912749E+02  0.34828618973E+03  0.00000000000E+00 0.  1.
<mgrwt>
<rscale>  0 0.14161736E+04</rscale>
<asrwt>0</asrwt>
<pdfrwt beam="1">  1        2 0.36338964E+00 0.14161736E+04</pdfrwt>
<pdfrwt beam="2">  1       -2 0.32656808E-01 0.14161736E+04</pdfrwt>
<totfact> 0.35606681E+01</totfact>
</mgrwt>
</event>
<event>
 6    1  0.9562506E-007  0.4962191E+03  0.7818608E-02  0.1014771E+00
          2   -1    0    0  501    0  0.00000000000E+00  0.00000000000E+00  0.84433522410E+03  0.84433522410E+03  0.00000000000E+00 0. -1.
         -2   -1    0    0    0  501 -0.00000000000E+00 -0.00000000000E+00 -0.72907462401E+02  0.72907462401E+02  0.00000000000E+00 0.  1.
         23    2    1    2    0    0 -0.16183571246E+03  0.10629093327E+03  0.12950758978E+03  0.24675773705E+03  0.81416243209E+02 0.  0.
         11    1    3    3    0    0 -0.12158459962E+03  0.74521982510E+02  0.13347694026E+03  0.19532648136E+03  0.00000000000E+00 0. -1.
        -11    1    3    3    0    0 -0.40251112848E+02  0.31768950760E+02 -0.39693504814E+01  0.51431255683E+02  0.00000000000E+00 0.  1.
         22    1    1    2    0    0  0.16183571246E+03 -0.10629093327E+03  0.64192017192E+03  0.67048494945E+03  0.00000000000E+00 0. -1.
<mgrwt>
<rscale>  0 0.49621906E+03</rscale>
<asrwt>0</asrwt>
<pdfrwt beam="1">  1        2 0.12989772E+00 0.49621906E+03</pdfrwt>
<pdfrwt beam="2">  1       -2 0.11216533E-01 0.49621906E+03</pdfrwt>
<totfact> 0.18275504E+03</totfact>
</mgrwt>
</event>
<event>
 6    1  0.9562506E-007  0.1960072E+04  0.7818608E-02  0.8625519E-01
         -2   -1    0    0    0  501 -0.00000000000E+00  0.00000000000E+00  0.49614969530E+03  0.49614969530E+03  0.00000000000E+00 0.  1.
          2   -1    0    0  501    0  0.00000000000E+00 -0.00000000000E+00 -0.19358475330E+04  0.19358475330E+04  0.00000000000E+00 0. -1.
         23    2    1    2    0    0  0.97790014091E+03 -0.21590887544E+01 -0.73386431209E+03  0.12259730523E+04  0.90331329558E+02 0.  0.
         13    1    3    3    0    0  0.85860096851E+03 -0.11808885198E+02 -0.60701885557E+03  0.10515735656E+04  0.00000000000E+00 0.  1.
        -13    1    3    3    0    0  0.11929917240E+03  0.96497964437E+01 -0.12684545652E+03  0.17439948666E+03  0.00000000000E+00 0. -1.
         22    1    1    2    0    0 -0.97790014091E+03  0.21590887544E+01 -0.70583352557E+03  0.12060241760E+04  0.00000000000E+00 0. -1.
<mgrwt>
<rscale>  0 0.19600716E+04</rscale>
<asrwt>0</asrwt>
<pdfrwt beam="1">  1        2 0.29782270E+00 0.19600716E+04</pdfrwt>
<pdfrwt beam="2">  1       -2 0.76330721E-01 0.19600716E+04</pdfrwt>
<totfact> 0.10380091E+01</totfact>
</mgrwt>
</event>
<event>
 6    1  0.9562506E-007  0.2537541E+04  0.7818608E-02  0.8389732E-01
         -1   -1    0    0    0  501 -0.00000000000E+00  0.00000000000E+00  0.10980639090E+04  0.10980639090E+04  0.00000000000E+00 0.  1.
          1   -1    0    0  501    0  0.00000000000E+00 -0.00000000000E+00 -0.14660159553E+04  0.14660159553E+04  0.00000000000E+00 0. -1.
         23    2    1    2    0    0 -0.24247957439E+03 -0.93200100951E+03  0.64782780321E+03  0.11643545597E+04  0.92835619514E+02 0.  0.
         13    1    3    3    0    0 -0.96810002538E+02 -0.54631630855E+03  0.38791291472E+03  0.67698605228E+03  0.00000000000E+00 0. -1.
        -13    1    3    3    0    0 -0.14566957185E+03 -0.38568470097E+03  0.25991488849E+03  0.48736850737E+03  0.00000000000E+00 0.  1.
         22    1    1    2    0    0  0.24247957439E+03  0.93200100951E+03 -0.10157798495E+04  0.13997253046E+04  0.00000000000E+00 0. -1.
<mgrwt>
<rscale>  0 0.25375415E+04</rscale>
<asrwt>0</asrwt>
<pdfrwt beam="1">  1        1 0.22554091E+00 0.25375415E+04</pdfrwt>
<pdfrwt beam="2">  1       -1 0.16893291E+00 0.25375415E+04</pdfrwt>
<totfact> 0.15326912E+00</totfact>
</mgrwt>
</event>
<event>
 6    1  0.9562506E-007  0.3665897E+04  0.7818608E-02  0.8075562E-01
          1   -1    0    0  501    0  0.00000000000E+00  0.00000000000E+00  0.16092220588E+04  0.16092220588E+04  0.00000000000E+00 0. -1.
         -1   -1    0    0    0  501 -0.00000000000E+00 -0.00000000000E+00 -0.20877796715E+04  0.20877796715E+04  0.00000000000E+00 0.  1.
         23    2    1    2    0    0 -0.16514096021E+04  0.65000062788E+03 -0.69697308615E+03  0.19088854563E+04  0.91748090513E+02 0.  0.
         13    1    3    3    0    0 -0.15098215273E+03  0.32274895403E+02 -0.55115624285E+02  0.16393599774E+03  0.00000000000E+00 0.  1.
        -13    1    3    3    0    0 -0.15004274494E+04  0.61772573247E+03 -0.64185746187E+03  0.17449494585E+04  0.00000000000E+00 0. -1.
         22    1    1    2    0    0  0.16514096021E+04 -0.65000062788E+03  0.21841547351E+03  0.17881162740E+04  0.00000000000E+00 0.  1.
<mgrwt>
<rscale>  0 0.36658975E+04</rscale>
<asrwt>0</asrwt>
<pdfrwt beam="1">  1        1 0.24757262E+00 0.36658975E+04</pdfrwt>
<pdfrwt beam="2">  1       -1 0.32119687E+00 0.36658975E+04</pdfrwt>
<totfact> 0.10634291E-01</totfact>
</mgrwt>
</event>
<event>
 6    1  0.9562506E-007  0.1131493E+04  0.7818608E-02  0.9175029E-01
         -1   -1    0    0    0  501 -0.00000000000E+00  0.00000000000E+00  0.12533629632E+03  0.12533629632E+03  0.00000000000E+00 0.  1.
          1   -1    0    0  501    0  0.00000000000E+00 -0.00000000000E+00 -0.25536832330E+04  0.25536832330E+04  0.00000000000E+00 0. -1.
         23    2    1    2    0    0 -0.36031507526E+03 -0.68349360818E+02 -0.21451884062E+03  0.43502010251E+03  0.93410748969E+02 0.  0.
         13    1    3    3    0    0 -0.22587600946E+03 -0.67162468271E+02 -0.17910799487E+03  0.29599061239E+03  0.00000000000E+00 0.  1.
        -13    1    3    3    0    0 -0.13443906580E+03 -0.11868925467E+01 -0.35410845746E+02  0.13902949013E+03  0.00000000000E+00 0. -1.
         22    1    1    2    0    0  0.36031507526E+03  0.68349360818E+02 -0.22138280960E+04  0.22439994268E+04  0.00000000000E+00 0. -1.
<mgrwt>
<rscale>  0 0.11314932E+04</rscale>
<asrwt>0</asrwt>
<pdfrwt beam="1">  1        1 0.39287434E+00 0.11314932E+04</pdfrwt>
<pdfrwt beam="2">  1       -1 0.19282507E-01 0.11314932E+04</pdfrwt>
<totfact> 0.27114299E+01</totfact>
</mgrwt>
</event>
<event>
 6    1  0.9562506E-007  0.3116147E+04  0.7818608E-02  0.8211320E-01
         -1   -1    0    0    0  501 -0.00000000000E+00  0.00000000000E+00  0.21086121040E+04  0.21086121040E+04  0.00000000000E+00 0.  1.
          1   -1    0    0  501    0  0.00000000000E+00 -0.00000000000E+00 -0.11512756587E+04  0.11512756587E+04  0.00000000000E+00 0. -1.
         23    2    1    2    0    0  0.15479994556E+04 -0.10729965778E+03  0.60996160134E+03  0.16697667568E+04  0.90842368463E+02 0.  0.
         11    1    3    3    0    0  0.11898057379E+04 -0.12031304246E+03  0.47582980535E+03  0.12870613528E+04  0.00000000000E+00 0. -1.
        -11    1    3    3    0    0  0.35819371769E+03  0.13013384687E+02  0.13413179600E+03  0.38270540403E+03  0.00000000000E+00 0.  1.
         22    1    1    2    0    0 -0.15479994556E+04  0.10729965778E+03  0.34737484392E+03  0.15901210059E+04  0.00000000000E+00 0. -1.
<mgrwt>
<rscale>  0 0.31161475E+04</rscale>
<asrwt>0</asrwt>
<pdfrwt beam="1">  1        1 0.17711933E+00 0.31161475E+04</pdfrwt>
<pdfrwt beam="2">  1       -1 0.32440186E+00 0.31161475E+04</pdfrwt>
<totfact> 0.22398958E-01</totfact>
</mgrwt>
</event>
<event>
 6    1  0.9562506E-007  0.2382182E+04  0.7818608E-02  0.8446204E-01
          2   -1    0    0  501    0  0.00000000000E+00  0.00000000000E+00  0.11170845348E+04  0.11170845348E+04  0.00000000000E+00 0. -1.
         -2   -1    0    0    0  501 -0.00000000000E+00 -0.00000000000E+00 -0.12700006757E+04  0.12700006757E+04  0.00000000000E+00 0.  1.
         23    2    1    2    0    0  0.99407559317E+03 -0.65254474246E+03 -0.44664311903E+02  0.11930502929E+04  0.85867192299E+02 0.  0.
         11    1    3    3    0    0  0.40332437256E+03 -0.24829374052E+03 -0.57555105729E+02  0.47710891972E+03  0.00000000000E+00 0.  1.
        -11    1    3    3    0    0  0.59075122061E+03 -0.40425100195E+03  0.12890793826E+02  0.71594137316E+03  0.00000000000E+00 0. -1.
         22    1    1    2    0    0 -0.99407559317E+03  0.65254474246E+03 -0.10825182898E+03  0.11940349176E+04  0.00000000000E+00 0. -1.
<mgrwt>
<rscale>  0 0.23821823E+04</rscale>
<asrwt>0</asrwt>
<pdfrwt beam="1">  1        2 0.17185916E+00 0.23821823E+04</pdfrwt>
<pdfrwt beam="2">  1       -2 0.19538472E+00 0.23821823E+04</pdfrwt>
<totfact> 0.27319097E+00</totfact>
</mgrwt>
</event>
<event>
 6    1  0.9562506E-007  0.1066805E+04  0.7818608E-02  0.9238164E-01
          1   -1    0    0  501    0  0.00000000000E+00  0.00000000000E+00  0.74169952512E+03  0.74169952512E+03  0.00000000000E+00 0. -1.
         -1   -1    0    0    0  501 -0.00000000000E+00 -0.00000000000E+00 -0.38360317045E+03  0.38360317045E+03  0.00000000000E+00 0.  1.
         23    2    1    2    0    0 -0.34864517914E+03 -0.37837875949E+03  0.31328917546E+03  0.60884201955E+03  0.88399947615E+02 0.  0.
         11    1    3    3    0    0 -0.28436706361E+03 -0.25086005353E+03  0.23115780104E+03  0.44410508025E+03  0.00000000000E+00 0. -1.
        -11    1    3    3    0    0 -0.64278115533E+02 -0.12751870596E+03  0.82131374417E+02  0.16473693930E+03  0.00000000000E+00 0.  1.
         22    1    1    2    0    0  0.34864517914E+03  0.37837875949E+03  0.44807179219E+02  0.51646067602E+03  0.00000000000E+00 0.  1.
<mgrwt>
<rscale>  0 0.10668051E+04</rscale>
<asrwt>0</asrwt>
<pdfrwt beam="1">  1        1 0.11410762E+00 0.10668051E+04</pdfrwt>
<pdfrwt beam="2">  1       -1 0.59015873E-01 0.10668051E+04</pdfrwt>
<totfact> 0.72430672E+01</totfact>
</mgrwt>
</event>
<event>
 6    1  0.9562506E-007  0.1312034E+04  0.7818608E-02  0.9020076E-01
          2   -1    0    0  501    0  0.00000000000E+00  0.00000000000E+00  0.14934217021E+04  0.14934217021E+04  0.00000000000E+00 0. -1.
         -2   -1    0    0    0  501 -0.00000000000E+00 -0.00000000000E+00 -0.28816924856E+03  0.28816924856E+03  0.00000000000E+00 0.  1.
         23    2    1    2    0    0 -0.54904072270E+02 -0.64934544921E+03  0.55365788203E+03  0.86004906057E+03  0.92105193594E+02 0.  0.
         11    1    3    3    0    0 -0.36332327154E+02 -0.25072405898E+03  0.27135114018E+03  0.37123312490E+03  0.00000000000E+00 0.  1.
        -11    1    3    3    0    0 -0.18571745115E+02 -0.39862139023E+03  0.28230674185E+03  0.48881593567E+03  0.00000000000E+00 0. -1.
         22    1    1    2    0    0  0.54904072270E+02  0.64934544921E+03  0.65159457148E+03  0.92154189007E+03  0.00000000000E+00 0. -1.
<mgrwt>
<rscale>  0 0.13120339E+04</rscale>
<asrwt>0</asrwt>
<pdfrwt beam="1">  1        2 0.22975718E+00 0.13120339E+04</pdfrwt>
<pdfrwt beam="2">  1       -2 0.44333732E-01 0.13120339E+04</pdfrwt>
<totfact> 0.60478534E+01</totfact>
</mgrwt>
</event>
<event>
 6    1  0.9562506E-007  0.1184776E+03  0.7818608E-02  0.1245630E+00
          1   -1    0    0  501    0  0.00000000000E+00  0.00000000000E+00  0.24969149802E+02  0.24969149802E+02  0.00000000000E+00 0. -1.
         -1   -1    0    0    0  501 -0.00000000000E+00 -0.00000000000E+00 -0.14054280153E+03  0.14054280153E+03  0.00000000000E+00 0.  1.
         23    2    1    2    0    0  0.29105560278E+01 -0.23198815161E+02 -0.80582456358E+02  0.12342822390E+03  0.90522581829E+02 0.  0.
         11    1    3    3    0    0  0.26148031882E+02 -0.50693792037E+02 -0.55231913451E+02  0.79398642217E+02  0.00000000000E+00 0. -1.
        -11    1    3    3    0    0 -0.23237475854E+02  0.27494976876E+02 -0.25350542907E+02  0.44029581682E+02  0.00000000000E+00 0.  1.
         22    1    1    2    0    0 -0.29105560278E+01  0.23198815161E+02 -0.34991195374E+02  0.42083727437E+02  0.00000000000E+00 0. -1.
<mgrwt>
<rscale>  0 0.11847758E+03</rscale>
<asrwt>0</asrwt>
<pdfrwt beam="1">  1        1 0.38414077E-02 0.11847758E+03</pdfrwt>
<pdfrwt beam="2">  1       -1 0.21621969E-01 0.11847758E+03</pdfrwt>
<totfact> 0.38349849E+04</totfact>
</mgrwt>
</event>
<event>
 6    1  0.9562506E-007  0.1708711E+04  0.7818608E-02  0.8756412E-01
         -2   -1    0    0    0  501 -0.00000000000E+00  0.00000000000E+00  0.25543782208E+03  0.25543782208E+03  0.00000000000E+00 0.  1.
          2   -1    0    0  501    0  0.00000000000E+00 -0.00000000000E+00 -0.28575373227E+04  0.28575373227E+04  0.00000000000E+00 0. -1.
         23    2    1    2    0    0  0.66065094810E+03  0.37425266697E+03 -0.60140408694E+03  0.97304363366E+03  0.92748602536E+02 0.  0.
         11    1    3    3    0    0  0.23478906480E+03  0.13172739467E+03 -0.15805942139E+03  0.31218711079E+03  0.00000000000E+00 0.  1.
        -11    1    3    3    0    0  0.42586188330E+03  0.24252527230E+03 -0.44334466554E+03  0.66085652287E+03  0.00000000000E+00 0. -1.
         22    1    1    2    0    0 -0.66065094810E+03 -0.37425266697E+03 -0.20006954137E+04  0.21399315111E+04  0.00000000000E+00 0. -1.
<mgrwt>
<rscale>  0 0.17087108E+04</rscale>
<asrwt>0</asrwt>
<pdfrwt beam="1">  1        2 0.43962112E+00 0.17087108E+04</pdfrwt>
<pdfrwt beam="2">  1       -2 0.39298127E-01 0.17087108E+04</pdfrwt>
<totfact> 0.12466262E+01</totfact>
</mgrwt>
</event>
<event>
 6    1  0.1613395E-006  0.2172049E+04  0.7818608E-02  0.8530153E-01
          1   -1    0    0  501    0  0.00000000000E+00  0.00000000000E+00  0.16758743891E+04  0.16758743891E+04  0.00000000000E+00 0. -1.
         -1   -1    0    0    0  501 -0.00000000000E+00 -0.00000000000E+00 -0.70378161579E+03  0.70378161579E+03  0.00000000000E+00 0.  1.
         23    2    1    2    0    0  0.60687302261E+03 -0.83766237402E+02  0.14668131723E+04  0.15922171683E+04  0.91120691405E+02 0.  0.
         13    1    3    3    0    0  0.33901578316E+03 -0.57379292751E+02  0.70783152651E+03  0.78692410968E+03  0.00000000000E+00 0.  1.
        -13    1    3    3    0    0  0.26785723946E+03 -0.26386944651E+02  0.75898164583E+03  0.80529305863E+03  0.00000000000E+00 0. -1.
         22    1    1    2    0    0 -0.60687302261E+03  0.83766237402E+02 -0.49472039904E+03  0.78743883656E+03  0.00000000000E+00 0.  1.
<mgrwt>
<rscale>  0 0.21720493E+04</rscale>
<asrwt>0</asrwt>
<pdfrwt beam="1">  1        1 0.25782683E+00 0.21720493E+04</pdfrwt>
<pdfrwt beam="2">  1       -1 0.10827409E+00 0.21720493E+04</pdfrwt>
<totfact> 0.35840026E+00</totfact>
</mgrwt>
</event>
<event>
 6    1  0.1209142E-006  0.2681423E+04  0.7818608E-02  0.8341058E-01
         -2   -1    0    0    0  501 -0.00000000000E+00  0.00000000000E+00  0.81577712500E+03  0.81577712500E+03  0.00000000000E+00 0.  1.
          2   -1    0    0  501    0  0.00000000000E+00 -0.00000000000E+00 -0.22034298533E+04  0.22034298533E+04  0.00000000000E+00 0. -1.
         23    2    1    2    0    0 -0.22435167232E+03  0.11730565297E+04 -0.13769129484E+04  0.18248407708E+04  0.88086754967E+02 0.  0.
         11    1    3    3    0    0 -0.10115642146E+03  0.57739782274E+03 -0.61014914428E+03  0.84611042161E+03  0.00000000000E+00 0. -1.
        -11    1    3    3    0    0 -0.12319525086E+03  0.59565870696E+03 -0.76676380416E+03  0.97873034916E+03  0.00000000000E+00 0.  1.
         22    1    1    2    0    0  0.22435167232E+03 -0.11730565297E+04 -0.10739779831E+02  0.11943662075E+04  0.00000000000E+00 0.  1.
<mgrwt>
<rscale>  0 0.26814233E+04</rscale>
<asrwt>0</asrwt>
<pdfrwt beam="1">  1        2 0.33898920E+00 0.26814233E+04</pdfrwt>
<pdfrwt beam="2">  1       -2 0.12550418E+00 0.26814233E+04</pdfrwt>
<totfact> 0.21438168E+00</totfact>
</mgrwt>
</event>
<event>
 6    1  0.9562506E-007  0.4093029E+04  0.7818608E-02  0.7986038E-01
         -1   -1    0    0    0  501 -0.00000000000E+00  0.00000000000E+00  0.30720174786E+04  0.30720174786E+04  0.00000000000E+00 0.  1.
          1   -1    0    0  501    0  0.00000000000E+00 -0.00000000000E+00 -0.13633456442E+04  0.13633456442E+04  0.00000000000E+00 0. -1.
         23    2    1    2    0    0  0.56145600297E+03 -0.19016975224E+04  0.31025359716E+03  0.20089954927E+04  0.90107074790E+02 0.  0.
         11    1    3    3    0    0  0.11234725974E+03 -0.35306848944E+03  0.92850107329E+02  0.38196911844E+03  0.00000000000E+00 0. -1.
        -11    1    3    3    0    0  0.44910874323E+03 -0.15486290330E+04  0.21740348983E+03  0.16270263742E+04  0.00000000000E+00 0.  1.
         22    1    1    2    0    0 -0.56145600297E+03  0.19016975224E+04  0.13984182373E+04  0.24263676301E+04  0.00000000000E+00 0. -1.
<mgrwt>
<rscale>  0 0.40930290E+04</rscale>
<asrwt>0</asrwt>
<pdfrwt beam="1">  1        1 0.20974548E+00 0.40930290E+04</pdfrwt>
<pdfrwt beam="2">  1       -1 0.47261807E+00 0.40930290E+04</pdfrwt>
<totfact> 0.14355793E-02</totfact>
</mgrwt>
</event>
<event>
 6    1  0.9562506E-007  0.2576600E+04  0.7818608E-02  0.8376194E-01
         -2   -1    0    0    0  501 -0.00000000000E+00  0.00000000000E+00  0.79861282618E+03  0.79861282618E+03  0.00000000000E+00 0.  1.
          2   -1    0    0  501    0  0.00000000000E+00 -0.00000000000E+00 -0.20782489344E+04  0.20782489344E+04  0.00000000000E+00 0. -1.
         23    2    1    2    0    0 -0.10355406238E+04 -0.64771121103E+03 -0.18882164426E+03  0.12392566827E+04  0.90715575657E+02 0.  0.
         11    1    3    3    0    0 -0.34222591741E+03 -0.22117068380E+03 -0.10601651463E+03  0.42103984526E+03  0.00000000000E+00 0. -1.
        -11    1    3    3    0    0 -0.69331470642E+03 -0.42654052723E+03 -0.82805129629E+02  0.81821683740E+03  0.00000000000E+00 0.  1.
         22    1    1    2    0    0  0.10355406238E+04  0.64771121103E+03 -0.10908144640E+04  0.16376050780E+04  0.00000000000E+00 0. -1.
<mgrwt>
<rscale>  0 0.25765995E+04</rscale>
<asrwt>0</asrwt>
<pdfrwt beam="1">  1        2 0.31973060E+00 0.25765995E+04</pdfrwt>
<pdfrwt beam="2">  1       -2 0.12286351E+00 0.25765995E+04</pdfrwt>
<totfact> 0.26811788E+00</totfact>
</mgrwt>
</event>
<event>
 6    1  0.9562506E-007  0.1430788E+04  0.7818608E-02  0.8931829E-01
         -2   -1    0    0    0  501 -0.00000000000E+00  0.00000000000E+00  0.35714929284E+03  0.35714929284E+03  0.00000000000E+00 0.  1.
          2   -1    0    0  501    0  0.00000000000E+00 -0.00000000000E+00 -0.14329817498E+04  0.14329817498E+04  0.00000000000E+00 0. -1.
         23    2    1    2    0    0 -0.11062925097E+03  0.36412605174E+03 -0.12935544140E+04  0.13516912369E+04  0.94654980054E+02 0.  0.
         13    1    3    3    0    0 -0.69987373517E+02  0.15872450446E+03 -0.44323191121E+03  0.47596872574E+03  0.00000000000E+00 0.  1.
        -13    1    3    3    0    0 -0.40641877449E+02  0.20540154728E+03 -0.85032250276E+03  0.87572251114E+03  0.00000000000E+00 0. -1.
         22    1    1    2    0    0  0.11062925097E+03 -0.36412605174E+03  0.21772195700E+03  0.43843980577E+03  0.00000000000E+00 0.  1.
<mgrwt>
<rscale>  0 0.14307878E+04</rscale>
<asrwt>0</asrwt>
<pdfrwt beam="1">  1        2 0.22045873E+00 0.14307878E+04</pdfrwt>
<pdfrwt beam="2">  1       -2 0.54946045E-01 0.14307878E+04</pdfrwt>
<totfact> 0.41912962E+01</totfact>
</mgrwt>
</event>
<event>
 6    1  0.9562506E-007  0.1419440E+04  0.7818608E-02  0.8939866E-01
         -2   -1    0    0    0  501 -0.00000000000E+00  0.00000000000E+00  0.38002031107E+03  0.38002031107E+03  0.00000000000E+00 0.  1.
          2   -1    0    0  501    0  0.00000000000E+00 -0.00000000000E+00 -0.13254619013E+04  0.13254619013E+04  0.00000000000E+00 0. -1.
         23    2    1    2    0    0  0.40090135735E+03 -0.32588979441E+03  0.10466029926E+03  0.53516600094E+03  0.92319087385E+02 0.  0.
         13    1    3    3    0    0  0.19636921748E+03 -0.14139928180E+03  0.43371893561E+01  0.24201949855E+03  0.00000000000E+00 0.  1.
        -13    1    3    3    0    0  0.20453213987E+03 -0.18449051261E+03  0.10032310990E+03  0.29314650239E+03  0.00000000000E+00 0. -1.
         22    1    1    2    0    0 -0.40090135735E+03  0.32588979441E+03 -0.10501018895E+04  0.11703162115E+04  0.00000000000E+00 0. -1.
<mgrwt>
<rscale>  0 0.14194400E+04</rscale>
<asrwt>0</asrwt>
<pdfrwt beam="1">  1        2 0.20391721E+00 0.14194400E+04</pdfrwt>
<pdfrwt beam="2">  1       -2 0.58464664E-01 0.14194400E+04</pdfrwt>
<totfact> 0.42475915E+01</totfact>
</mgrwt>
</event>
<event>
 6    1  0.9562506E-007  0.1052274E+04  0.7818608E-02  0.9252999E-01
          1   -1    0    0  501    0  0.00000000000E+00  0.00000000000E+00  0.23923139809E+04  0.23923139809E+04  0.00000000000E+00 0. -1.
         -1   -1    0    0    0  501 -0.00000000000E+00 -0.00000000000E+00 -0.11571236212E+03  0.11571236212E+03  0.00000000000E+00 0.  1.
         23    2    1    2    0    0 -0.36726284851E+02  0.39040732430E+03  0.32591661296E+03  0.51831815064E+03  0.93087957380E+02 0.  0.
         11    1    3    3    0    0  0.26188641547E+02  0.13672713754E+03  0.86675152700E+02  0.16399005208E+03  0.00000000000E+00 0.  1.
        -11    1    3    3    0    0 -0.62914926399E+02  0.25368018677E+03  0.23924146026E+03  0.35432809856E+03  0.00000000000E+00 0. -1.
         22    1    1    2    0    0  0.36726284851E+02 -0.39040732430E+03  0.19506850058E+04  0.19897081924E+04  0.00000000000E+00 0. -1.
<mgrwt>
<rscale>  0 0.10522743E+04</rscale>
<asrwt>0</asrwt>
<pdfrwt beam="1">  1        1 0.36804827E+00 0.10522743E+04</pdfrwt>
<pdfrwt beam="2">  1       -1 0.17801904E-01 0.10522743E+04</pdfrwt>
<totfact> 0.40269474E+01</totfact>
</mgrwt>
</event>
<event>
 6    1  0.9562506E-007  0.3076946E+04  0.7818608E-02  0.8222094E-01
         -1   -1    0    0    0  501 -0.00000000000E+00  0.00000000000E+00  0.10437098577E+04  0.10437098577E+04  0.00000000000E+00 0.  1.
          1   -1    0    0  501    0  0.00000000000E+00 -0.00000000000E+00 -0.22677744190E+04  0.22677744190E+04  0.00000000000E+00 0. -1.
         23    2    1    2    0    0  0.47622202847E+03  0.54151514558E+03  0.84838532861E+03  0.11171564480E+04  0.90855876543E+02 0.  0.
         11    1    3    3    0    0  0.16752490677E+03  0.25831901880E+03  0.36388876538E+03  0.47666376349E+03  0.00000000000E+00 0. -1.
        -11    1    3    3    0    0  0.30869712170E+03  0.28319612678E+03  0.48449656323E+03  0.64049268454E+03  0.00000000000E+00 0.  1.
         22    1    1    2    0    0 -0.47622202847E+03 -0.54151514558E+03 -0.20724498899E+04  0.21943278287E+04  0.00000000000E+00 0. -1.
<mgrwt>
<rscale>  0 0.30769456E+04</rscale>
<asrwt>0</asrwt>
<pdfrwt beam="1">  1        1 0.34888837E+00 0.30769456E+04</pdfrwt>
<pdfrwt beam="2">  1       -1 0.16057075E+00 0.30769456E+04</pdfrwt>
<totfact> 0.47896254E-01</totfact>
</mgrwt>
</event>
<event>
 6    1  0.9562506E-007  0.4008775E+04  0.7818608E-02  0.8002779E-01
          2   -1    0    0  501    0  0.00000000000E+00  0.00000000000E+00  0.20081220832E+04  0.20081220832E+04  0.00000000000E+00 0. -1.
         -2   -1    0    0    0  501 -0.00000000000E+00 -0.00000000000E+00 -0.20006598765E+04  0.20006598765E+04  0.00000000000E+00 0.  1.
         23    2    1    2    0    0  0.29530103606E+03 -0.17854678971E+04  0.86312321585E+03  0.20069692621E+04  0.88575503166E+02 0.  0.
         11    1    3    3    0    0  0.25565434357E+03 -0.13238208634E+04  0.62740086512E+03  0.14871088283E+04  0.00000000000E+00 0.  1.
        -11    1    3    3    0    0  0.39646692483E+02 -0.46164703372E+03  0.23572235072E+03  0.51986043377E+03  0.00000000000E+00 0. -1.
         22    1    1    2    0    0 -0.29530103606E+03  0.17854678971E+04 -0.85566100913E+03  0.20018126975E+04  0.00000000000E+00 0.  1.
<mgrwt>
<rscale>  0 0.40087750E+04</rscale>
<asrwt>0</asrwt>
<pdfrwt beam="1">  1        2 0.30894186E+00 0.40087750E+04</pdfrwt>
<pdfrwt beam="2">  1       -2 0.30779383E+00 0.40087750E+04</pdfrwt>
<totfact> 0.14839952E-01</totfact>
</mgrwt>
</event>
<event>
 6    1  0.9562506E-007  0.2722705E+04  0.7818608E-02  0.8327675E-01
          2   -1    0    0  501    0  0.00000000000E+00  0.00000000000E+00  0.21455856952E+04  0.21455856952E+04  0.00000000000E+00 0. -1.
         -2   -1    0    0    0  501 -0.00000000000E+00 -0.00000000000E+00 -0.86376433979E+03  0.86376433979E+03  0.00000000000E+00 0.  1.
         23    2    1    2    0    0  0.12560758189E+04  0.48883548293E+03  0.44266437704E+03  0.14216249245E+04  0.91537330778E+02 0.  0.
         13    1    3    3    0    0  0.68198314863E+03  0.21730872274E+03  0.24382897437E+03  0.75615915305E+03  0.00000000000E+00 0.  1.
        -13    1    3    3    0    0  0.57409267030E+03  0.27152676019E+03  0.19883540267E+03  0.66546577143E+03  0.00000000000E+00 0. -1.
         22    1    1    2    0    0 -0.12560758189E+04 -0.48883548293E+03  0.83915697839E+03  0.15877251105E+04  0.00000000000E+00 0. -1.
<mgrwt>
<rscale>  0 0.27227048E+04</rscale>
<asrwt>0</asrwt>
<pdfrwt beam="1">  1        2 0.33009011E+00 0.27227048E+04</pdfrwt>
<pdfrwt beam="2">  1       -2 0.13288682E+00 0.27227048E+04</pdfrwt>
<totfact> 0.19926215E+00</totfact>
</mgrwt>
</event>
<event>
 6    1  0.9562506E-007  0.3072432E+04  0.7818608E-02  0.8223345E-01
         -2   -1    0    0    0  501 -0.00000000000E+00  0.00000000000E+00  0.18708197759E+04  0.18708197759E+04  0.00000000000E+00 0.  1.
          2   -1    0    0  501    0  0.00000000000E+00 -0.00000000000E+00 -0.12614574953E+04  0.12614574953E+04  0.00000000000E+00 0. -1.
         23    2    1    2    0    0  0.73667403384E+03 -0.58702096213E+03  0.15405656708E+04  0.18077313128E+04  0.85250637359E+02 0.  0.
         13    1    3    3    0    0  0.48977806948E+03 -0.35099566340E+03  0.10342476285E+04  0.11969747993E+04  0.00000000000E+00 0. -1.
        -13    1    3    3    0    0  0.24689596436E+03 -0.23602529873E+03  0.50631804229E+03  0.61075651352E+03  0.00000000000E+00 0.  1.
         22    1    1    2    0    0 -0.73667403384E+03  0.58702096213E+03 -0.93120339021E+03  0.13245459585E+04  0.00000000000E+00 0. -1.
<mgrwt>
<rscale>  0 0.30724320E+04</rscale>
<asrwt>0</asrwt>
<pdfrwt beam="1">  1        2 0.19407038E+00 0.30724320E+04</pdfrwt>
<pdfrwt beam="2">  1       -2 0.28781843E+00 0.30724320E+04</pdfrwt>
<totfact> 0.55908284E-01</totfact>
</mgrwt>
</event>
<event>
 6    1  0.9562506E-007  0.3603616E+04  0.7818608E-02  0.8089664E-01
          2   -1    0    0  501    0  0.00000000000E+00  0.00000000000E+00  0.20436421644E+04  0.20436421644E+04  0.00000000000E+00 0. -1.
         -2   -1    0    0    0  501 -0.00000000000E+00 -0.00000000000E+00 -0.15885910504E+04  0.15885910504E+04  0.00000000000E+00 0.  1.
         23    2    1    2    0    0  0.16004558369E+04 -0.78338895661E+03 -0.33800159502E+02  0.17844960282E+04  0.90146994491E+02 0.  0.
         11    1    3    3    0    0  0.64461756889E+03 -0.28019998178E+03 -0.43893240779E+02  0.70425169968E+03  0.00000000000E+00 0. -1.
        -11    1    3    3    0    0  0.95583826798E+03 -0.50318897482E+03  0.10093081277E+02  0.10802443285E+04  0.00000000000E+00 0.  1.
         22    1    1    2    0    0 -0.16004558369E+04  0.78338895661E+03  0.48885127352E+03  0.18477371866E+04  0.00000000000E+00 0.  1.
<mgrwt>
<rscale>  0 0.36036158E+04</rscale>
<asrwt>0</asrwt>
<pdfrwt beam="1">  1        2 0.31440649E+00 0.36036158E+04</pdfrwt>
<pdfrwt beam="2">  1       -2 0.24439862E+00 0.36036158E+04</pdfrwt>
<totfact> 0.35817432E-01</totfact>
</mgrwt>
</event>
<event>
 6    1  0.9562506E-007  0.2321213E+04  0.7818608E-02  0.8469604E-01
          1   -1    0    0  501    0  0.00000000000E+00  0.00000000000E+00  0.15672238388E+04  0.15672238388E+04  0.00000000000E+00 0. -1.
         -1   -1    0    0    0  501 -0.00000000000E+00 -0.00000000000E+00 -0.85948611214E+03  0.85948611214E+03  0.00000000000E+00 0.  1.
         23    2    1    2    0    0 -0.54138750300E+03  0.52728154442E+03 -0.56395589406E+03  0.94740912945E+03  0.91714516960E+02 0.  0.
         11    1    3    3    0    0 -0.25693826947E+03  0.25212408454E+03 -0.32580373372E+03  0.48552229735E+03  0.00000000000E+00 0. -1.
        -11    1    3    3    0    0 -0.28444923353E+03  0.27515745988E+03 -0.23815216034E+03  0.46188683209E+03  0.00000000000E+00 0.  1.
         22    1    1    2    0    0  0.54138750300E+03 -0.52728154442E+03  0.12716936207E+04  0.14793008215E+04  0.00000000000E+00 0. -1.
<mgrwt>
<rscale>  0 0.23212127E+04</rscale>
<asrwt>0</asrwt>
<pdfrwt beam="1">  1        1 0.24111136E+00 0.23212127E+04</pdfrwt>
<pdfrwt beam="2">  1       -1 0.13222863E+00 0.23212127E+04</pdfrwt>
<totfact> 0.25758233E+00</totfact>
</mgrwt>
</event>
<event>
 6    1  0.9562506E-007  0.3461936E+04  0.7818608E-02  0.8122870E-01
          1   -1    0    0  501    0  0.00000000000E+00  0.00000000000E+00  0.30565986883E+04  0.30565986883E+04  0.00000000000E+00 0. -1.
         -1   -1    0    0    0  501 -0.00000000000E+00 -0.00000000000E+00 -0.98025606385E+03  0.98025606385E+03  0.00000000000E+00 0.  1.
         23    2    1    2    0    0 -0.89361323328E+02  0.12571427524E+04  0.24204357965E+04  0.27304116967E+04  0.90803317101E+02 0.  0.
         11    1    3    3    0    0  0.94732996529E+01  0.48966804986E+03  0.93299778346E+03  0.10537311832E+04  0.00000000000E+00 0.  1.
        -11    1    3    3    0    0 -0.98834622981E+02  0.76747470258E+03  0.14874380130E+04  0.16766805135E+04  0.00000000000E+00 0. -1.
         22    1    1    2    0    0  0.89361323328E+02 -0.12571427524E+04 -0.34409317204E+03  0.13064430555E+04  0.00000000000E+00 0.  1.
<mgrwt>
<rscale>  0 0.34619355E+04</rscale>
<asrwt>0</asrwt>
<pdfrwt beam="1">  1        1 0.47024595E+00 0.34619355E+04</pdfrwt>
<pdfrwt beam="2">  1       -1 0.15080863E+00 0.34619355E+04</pdfrwt>
<totfact> 0.15276839E-01</totfact>
</mgrwt>
</event>
<event>
 6    1  0.9562506E-007  0.2015658E+04  0.7818608E-02  0.8599335E-01
         -2   -1    0    0    0  501 -0.00000000000E+00  0.00000000000E+00  0.63102934503E+03  0.63102934503E+03  0.00000000000E+00 0.  1.
          2   -1    0    0  501    0  0.00000000000E+00 -0.00000000000E+00 -0.16096236287E+04  0.16096236287E+04  0.00000000000E+00 0. -1.
         23    2    1    2    0    0 -0.34087457351E+03  0.87609116732E+03 -0.93713538271E+02  0.94962813201E+03  0.96333553499E+02 0.  0.
         11    1    3    3    0    0 -0.21229945418E+03  0.61180927820E+03 -0.26484692282E+02  0.64813817204E+03  0.00000000000E+00 0. -1.
        -11    1    3    3    0    0 -0.12857511933E+03  0.26428188912E+03 -0.67228845989E+02  0.30148995997E+03  0.00000000000E+00 0.  1.
         22    1    1    2    0    0  0.34087457351E+03 -0.87609116732E+03 -0.88488074537E+03  0.12910248417E+04  0.00000000000E+00 0. -1.
<mgrwt>
<rscale>  0 0.20156584E+04</rscale>
<asrwt>0</asrwt>
<pdfrwt beam="1">  1        2 0.24763440E+00 0.20156584E+04</pdfrwt>
<pdfrwt beam="2">  1       -2 0.97081440E-01 0.20156584E+04</pdfrwt>
<totfact> 0.90537170E+00</totfact>
</mgrwt>
</event>
<event>
 6    1  0.9562506E-007  0.3214746E+04  0.7818608E-02  0.8184934E-01
         -1   -1    0    0    0  501 -0.00000000000E+00  0.00000000000E+00  0.94384175393E+03  0.94384175393E+03  0.00000000000E+00 0.  1.
          1   -1    0    0  501    0  0.00000000000E+00 -0.00000000000E+00 -0.27373742651E+04  0.27373742651E+04  0.00000000000E+00 0. -1.
         23    2    1    2    0    0 -0.15457769707E+04  0.21566114413E+03 -0.13311367055E+04  0.20534119604E+04  0.92949331032E+02 0.  0.
         13    1    3    3    0    0 -0.13648465787E+04  0.20924604122E+03 -0.11452585462E+04  0.17939362382E+04  0.00000000000E+00 0. -1.
        -13    1    3    3    0    0 -0.18093039204E+03  0.64151029129E+01 -0.18587815933E+03  0.25947572223E+03  0.00000000000E+00 0.  1.
         22    1    1    2    0    0  0.15457769707E+04 -0.21566114413E+03 -0.46239580570E+03  0.16278040587E+04  0.00000000000E+00 0.  1.
<mgrwt>
<rscale>  0 0.32147461E+04</rscale>
<asrwt>0</asrwt>
<pdfrwt beam="1">  1        1 0.42113450E+00 0.32147461E+04</pdfrwt>
<pdfrwt beam="2">  1       -1 0.14520643E+00 0.32147461E+04</pdfrwt>
<totfact> 0.29353242E-01</totfact>
</mgrwt>
</event>
<event>
 6    1  0.9562506E-007  0.1844468E+04  0.7818608E-02  0.8683003E-01
         -2   -1    0    0    0  501 -0.00000000000E+00  0.00000000000E+00  0.13322512424E+04  0.13322512424E+04  0.00000000000E+00 0.  1.
          2   -1    0    0  501    0  0.00000000000E+00 -0.00000000000E+00 -0.63840504443E+03  0.63840504443E+03  0.00000000000E+00 0. -1.
         23    2    1    2    0    0 -0.62223634865E+03 -0.57011060086E+03 -0.43429286965E+02  0.85004069195E+03  0.92080965525E+02 0.  0.
         13    1    3    3    0    0 -0.40774084799E+03 -0.38993472811E+03 -0.70670814346E+02  0.56859129021E+03  0.00000000000E+00 0.  1.
        -13    1    3    3    0    0 -0.21449550066E+03 -0.18017587275E+03  0.27241527381E+02  0.28144940173E+03  0.00000000000E+00 0. -1.
         22    1    1    2    0    0  0.62223634865E+03  0.57011060086E+03  0.73727548492E+03  0.11206155949E+04  0.00000000000E+00 0. -1.
<mgrwt>
<rscale>  0 0.18444684E+04</rscale>
<asrwt>0</asrwt>
<pdfrwt beam="1">  1        2 0.98216161E-01 0.18444684E+04</pdfrwt>
<pdfrwt beam="2">  1       -2 0.20496173E+00 0.18444684E+04</pdfrwt>
<totfact> 0.53341925E+00</totfact>
</mgrwt>
</event>
<event>
 6    1  0.9562506E-007  0.1289715E+04  0.7818608E-02  0.9037761E-01
          1   -1    0    0  501    0  0.00000000000E+00  0.00000000000E+00  0.12692847112E+04  0.12692847112E+04  0.00000000000E+00 0. -1.
         -1   -1    0    0    0  501 -0.00000000000E+00 -0.00000000000E+00 -0.32761873261E+03  0.32761873261E+03  0.00000000000E+00 0.  1.
         23    2    1    2    0    0  0.57120697688E+03  0.10850730016E+03  0.81006719663E+03  0.10007746959E+04  0.85380819584E+02 0.  0.
         13    1    3    3    0    0  0.23719575916E+03  0.70484306049E+02  0.28638646565E+03  0.37847995095E+03  0.00000000000E+00 0. -1.
        -13    1    3    3    0    0  0.33401121772E+03  0.38022994113E+02  0.52368073098E+03  0.62229474499E+03  0.00000000000E+00 0.  1.
         22    1    1    2    0    0 -0.57120697688E+03 -0.10850730016E+03  0.13159878196E+03  0.59612874787E+03  0.00000000000E+00 0.  1.
<mgrwt>
<rscale>  0 0.12897154E+04</rscale>
<asrwt>0</asrwt>
<pdfrwt beam="1">  1        1 0.19527457E+00 0.12897154E+04</pdfrwt>
<pdfrwt beam="2">  1       -1 0.50402883E-01 0.12897154E+04</pdfrwt>
<totfact> 0.36981796E+01</totfact>
</mgrwt>
</event>
<event>
 6    1  0.9562506E-007  0.2739203E+04  0.7818608E-02  0.8322396E-01
          1   -1    0    0  501    0  0.00000000000E+00  0.00000000000E+00  0.10662607003E+04  0.10662607003E+04  0.00000000000E+00 0. -1.
         -1   -1    0    0    0  501 -0.00000000000E+00 -0.00000000000E+00 -0.17592402035E+04  0.17592402035E+04  0.00000000000E+00 0.  1.
         23    2    1    2    0    0 -0.13439034247E+04 -0.14281426619E+03 -0.12732114020E+03  0.13604269422E+04  0.89880269415E+02 0.  0.
         13    1    3    3    0    0 -0.84928177955E+03 -0.55463740736E+02 -0.10639899219E+03  0.85771586971E+03  0.00000000000E+00 0.  1.
        -13    1    3    3    0    0 -0.49462164514E+03 -0.87350525458E+02 -0.20922148012E+02  0.50271107250E+03  0.00000000000E+00 0. -1.
         22    1    1    2    0    0  0.13439034247E+04  0.14281426619E+03 -0.56565836300E+03  0.14650739617E+04  0.00000000000E+00 0. -1.
<mgrwt>
<rscale>  0 0.27392033E+04</rscale>
<asrwt>0</asrwt>
<pdfrwt beam="1">  1        1 0.16404011E+00 0.27392033E+04</pdfrwt>
<pdfrwt beam="2">  1       -1 0.27065233E+00 0.27392033E+04</pdfrwt>
<totfact> 0.59879138E-01</totfact>
</mgrwt>
</event>
<event>
 6    1  0.9562506E-007  0.2637952E+04  0.7818608E-02  0.8355423E-01
          2   -1    0    0  501    0  0.00000000000E+00  0.00000000000E+00  0.20773923082E+04  0.20773923082E+04  0.00000000000E+00 0. -1.
         -2   -1    0    0    0  501 -0.00000000000E+00 -0.00000000000E+00 -0.83744332360E+03  0.83744332360E+03  0.00000000000E+00 0.  1.
         23    2    1    2    0    0 -0.13042729028E+02  0.68643054358E+03  0.18631127391E+04  0.19876409010E+04  0.90389538675E+02 0.  0.
         11    1    3    3    0    0  0.26742068633E+02  0.53787838799E+03  0.14661708039E+04  0.15619491428E+04  0.00000000000E+00 0. -1.
        -11    1    3    3    0    0 -0.39784797662E+02  0.14855215558E+03  0.39694193519E+03  0.42569175816E+03  0.00000000000E+00 0.  1.
         22    1    1    2    0    0  0.13042729028E+02 -0.68643054358E+03 -0.62316375450E+03  0.92719473082E+03  0.00000000000E+00 0.  1.
<mgrwt>
<rscale>  0 0.26379525E+04</rscale>
<asrwt>0</asrwt>
<pdfrwt beam="1">  1        2 0.31959881E+00 0.26379525E+04</pdfrwt>
<pdfrwt beam="2">  1       -2 0.12883744E+00 0.26379525E+04</pdfrwt>
<totfact> 0.23699459E+00</totfact>
</mgrwt>
</event>
<event>
 6    1  0.9562506E-007  0.2860731E+04  0.7818608E-02  0.8284658E-01
          2   -1    0    0  501    0  0.00000000000E+00  0.00000000000E+00  0.19340314819E+04  0.19340314819E+04  0.00000000000E+00 0. -1.
         -2   -1    0    0    0  501 -0.00000000000E+00 -0.00000000000E+00 -0.10578659524E+04  0.10578659524E+04  0.00000000000E+00 0.  1.
         23    2    1    2    0    0  0.14587626110E+03  0.11810489628E+04  0.12656712126E+04  0.17397507923E+04  0.93019701217E+02 0.  0.
         13    1    3    3    0    0  0.34907437601E+02  0.43158786419E+03  0.52071466105E+03  0.67722254241E+03  0.00000000000E+00 0. -1.
        -13    1    3    3    0    0  0.11096882350E+03  0.74946109856E+03  0.74495655159E+03  0.10625282499E+04  0.00000000000E+00 0.  1.
         22    1    1    2    0    0 -0.14587626110E+03 -0.11810489628E+04 -0.38950568313E+03  0.12521466420E+04  0.00000000000E+00 0.  1.
<mgrwt>
<rscale>  0 0.28607314E+04</rscale>
<asrwt>0</asrwt>
<pdfrwt beam="1">  1        2 0.29754331E+00 0.28607314E+04</pdfrwt>
<pdfrwt beam="2">  1       -2 0.16274861E+00 0.28607314E+04</pdfrwt>
<totfact> 0.15136017E+00</totfact>
</mgrwt>
</event>
<event>
 6    1  0.9562506E-007  0.3159794E+04  0.7818608E-02  0.8199517E-01
         -2   -1    0    0    0  501 -0.00000000000E+00  0.00000000000E+00  0.25142491683E+04  0.25142491683E+04  0.00000000000E+00 0.  1.
          2   -1    0    0  501    0  0.00000000000E+00 -0.00000000000E+00 -0.99277127689E+03  0.99277127689E+03  0.00000000000E+00 0. -1.
         23    2    1    2    0    0  0.13392661389E+04  0.79933050273E+03  0.49135079080E+03  0.16378695988E+04  0.92887995108E+02 0.  0.
         13    1    3    3    0    0  0.86275921856E+03  0.47093391600E+03  0.33455528048E+03  0.10382964211E+04  0.00000000000E+00 0.  1.
        -13    1    3    3    0    0  0.47650692029E+03  0.32839658673E+03  0.15679551032E+03  0.59957317761E+03  0.00000000000E+00 0. -1.
         22    1    1    2    0    0 -0.13392661389E+04 -0.79933050273E+03  0.10301271006E+04  0.18691508464E+04  0.00000000000E+00 0.  1.
<mgrwt>
<rscale>  0 0.31597939E+04</rscale>
<asrwt>0</asrwt>
<pdfrwt beam="1">  1        2 0.15273404E+00 0.31597939E+04</pdfrwt>
<pdfrwt beam="2">  1       -2 0.38680756E+00 0.31597939E+04</pdfrwt>
<totfact> 0.19445339E-01</totfact>
</mgrwt>
</event>
<event>
 6    1  0.9562506E-007  0.2494784E+04  0.7818608E-02  0.8404846E-01
         -1   -1    0    0    0  501 -0.00000000000E+00  0.00000000000E+00  0.14187543998E+04  0.14187543998E+04  0.00000000000E+00 0.  1.
          1   -1    0    0  501    0  0.00000000000E+00 -0.00000000000E+00 -0.10967273596E+04  0.10967273596E+04  0.00000000000E+00 0. -1.
         23    2    1    2    0    0 -0.10611496155E+04 -0.64489056937E+03  0.61973007943E+02  0.12468011642E+04  0.93542164861E+02 0.  0.
         11    1    3    3    0    0 -0.13426465590E+03 -0.47683697235E+02  0.13440542733E+02  0.14311317547E+03  0.00000000000E+00 0.  1.
        -11    1    3    3    0    0 -0.92688495956E+03 -0.59720687213E+03  0.48532465210E+02  0.11036879888E+04  0.00000000000E+00 0. -1.
         22    1    1    2    0    0  0.10611496155E+04  0.64489056937E+03  0.26005403220E+03  0.12686805952E+04  0.00000000000E+00 0.  1.
<mgrwt>
<rscale>  0 0.24947840E+04</rscale>
<asrwt>0</asrwt>
<pdfrwt beam="1">  1        1 0.16872729E+00 0.24947840E+04</pdfrwt>
<pdfrwt beam="2">  1       -1 0.21826991E+00 0.24947840E+04</pdfrwt>
<totfact> 0.12809999E+00</totfact>
</mgrwt>
</event>
<event>
 6    1  0.9562506E-007  0.1041864E+04  0.7818608E-02  0.9263784E-01
          1   -1    0    0  501    0  0.00000000000E+00  0.00000000000E+00  0.14122450704E+03  0.14122450704E+03  0.00000000000E+00 0. -1.
         -1   -1    0    0    0  501 -0.00000000000E+00 -0.00000000000E+00 -0.19215515577E+04  0.19215515577E+04  0.00000000000E+00 0.  1.
         23    2    1    2    0    0  0.50710290614E+03  0.76677421932E+02 -0.10226306228E+04  0.11478243386E+04  0.93244501507E+02 0.  0.
         11    1    3    3    0    0  0.17362611883E+03  0.71315398844E+02 -0.37616581138E+03  0.42039580505E+03  0.00000000000E+00 0. -1.
        -11    1    3    3    0    0  0.33347678731E+03  0.53620230879E+01 -0.64646481143E+03  0.72742853353E+03  0.00000000000E+00 0.  1.
         22    1    1    2    0    0 -0.50710290614E+03 -0.76677421932E+02 -0.75769642788E+03  0.91495172620E+03  0.00000000000E+00 0. -1.
<mgrwt>
<rscale>  0 0.10418640E+04</rscale>
<asrwt>0</asrwt>
<pdfrwt beam="1">  1        1 0.21726848E-01 0.10418640E+04</pdfrwt>
<pdfrwt beam="2">  1       -1 0.29562330E+00 0.10418640E+04</pdfrwt>
<totfact> 0.83754121E+00</totfact>
</mgrwt>
</event>
<event>
 6    1  0.9562506E-007  0.1640809E+04  0.7818608E-02  0.8795862E-01
         -1   -1    0    0    0  501 -0.00000000000E+00  0.00000000000E+00  0.44415049927E+03  0.44415049927E+03  0.00000000000E+00 0.  1.
          1   -1    0    0  501    0  0.00000000000E+00 -0.00000000000E+00 -0.15153953315E+04  0.15153953315E+04  0.00000000000E+00 0. -1.
         23    2    1    2    0    0  0.47221759446E+02  0.24167746754E+03  0.39428700470E+03  0.47346997203E+03  0.89853655779E+02 0.  0.
         11    1    3    3    0    0  0.29040911707E+02  0.15227356404E+03  0.32090892246E+03  0.35638904216E+03  0.00000000000E+00 0. -1.
        -11    1    3    3    0    0  0.18180847739E+02  0.89403903499E+02  0.73378082238E+02  0.11708092987E+03  0.00000000000E+00 0.  1.
         22    1    1    2    0    0 -0.47221759446E+02 -0.24167746754E+03 -0.14655318369E+04  0.14860758587E+04  0.00000000000E+00 0. -1.
<mgrwt>
<rscale>  0 0.16408091E+04</rscale>
<asrwt>0</asrwt>
<pdfrwt beam="1">  1        1 0.23313774E+00 0.16408091E+04</pdfrwt>
<pdfrwt beam="2">  1       -1 0.68330846E-01 0.16408091E+04</pdfrwt>
<totfact> 0.13232461E+01</totfact>
</mgrwt>
</event>
<event>
 6    1  0.9562506E-007  0.2502367E+04  0.7818608E-02  0.8402143E-01
          2   -1    0    0  501    0  0.00000000000E+00  0.00000000000E+00  0.29973105476E+04  0.29973105476E+04  0.00000000000E+00 0. -1.
         -2   -1    0    0    0  501 -0.00000000000E+00 -0.00000000000E+00 -0.52228822784E+03  0.52228822784E+03  0.00000000000E+00 0.  1.
         23    2    1    2    0    0  0.32570042543E+03 -0.51168275638E+03 -0.29725850973E+03  0.68174025046E+03  0.92234143239E+02 0.  0.
         13    1    3    3    0    0  0.32487110900E+03 -0.49972189934E+03 -0.27491932582E+03  0.65638696655E+03  0.00000000000E+00 0. -1.
        -13    1    3    3    0    0  0.82931642133E+00 -0.11960857046E+02 -0.22339183914E+02  0.25353283908E+02  0.00000000000E+00 0.  1.
         22    1    1    2    0    0 -0.32570042543E+03  0.51168275638E+03  0.27722808294E+04  0.28378585249E+04  0.00000000000E+00 0. -1.
<mgrwt>
<rscale>  0 0.25023669E+04</rscale>
<asrwt>0</asrwt>
<pdfrwt beam="1">  1        2 0.46112469E+00 0.25023669E+04</pdfrwt>
<pdfrwt beam="2">  1       -2 0.80352037E-01 0.25023669E+04</pdfrwt>
<totfact> 0.21336360E+00</totfact>
</mgrwt>
</event>
<event>
 6    1  0.9562506E-007  0.2402891E+04  0.7818608E-02  0.8438422E-01
         -1   -1    0    0    0  501 -0.00000000000E+00  0.00000000000E+00  0.78567162859E+03  0.78567162859E+03  0.00000000000E+00 0.  1.
          1   -1    0    0  501    0  0.00000000000E+00 -0.00000000000E+00 -0.18372453178E+04  0.18372453178E+04  0.00000000000E+00 0. -1.
         23    2    1    2    0    0  0.75192456238E+03  0.33071444852E+03  0.42769405169E+03  0.93087804517E+03  0.94069863191E+02 0.  0.
         13    1    3    3    0    0  0.49558539846E+03  0.25733999964E+03  0.31753815660E+03  0.64238558785E+03  0.00000000000E+00 0. -1.
        -13    1    3    3    0    0  0.25633916392E+03  0.73374448876E+02  0.11015589509E+03  0.28849245732E+03  0.00000000000E+00 0.  1.
         22    1    1    2    0    0 -0.75192456238E+03 -0.33071444852E+03 -0.14792677409E+04  0.16920389012E+04  0.00000000000E+00 0. -1.
<mgrwt>
<rscale>  0 0.24028912E+04</rscale>
<asrwt>0</asrwt>
<pdfrwt beam="1">  1        1 0.28265313E+00 0.24028912E+04</pdfrwt>
<pdfrwt beam="2">  1       -1 0.12087256E+00 0.24028912E+04</pdfrwt>
<totfact> 0.20937821E+00</totfact>
</mgrwt>
</event>
<event>
 6    1  0.9562506E-007  0.1927430E+04  0.7818608E-02  0.8641322E-01
         -2   -1    0    0    0  501 -0.00000000000E+00  0.00000000000E+00  0.54769187756E+03  0.54769187756E+03  0.00000000000E+00 0.  1.
          2   -1    0    0  501    0  0.00000000000E+00 -0.00000000000E+00 -0.16957461225E+04  0.16957461225E+04  0.00000000000E+00 0. -1.
         23    2    1    2    0    0  0.25184773795E+03  0.91412539100E+03 -0.38923436631E+03  0.10289998082E+04  0.91020326202E+02 0.  0.
         11    1    3    3    0    0  0.23241598611E+03  0.74188009226E+03 -0.34205745670E+03  0.84935655974E+03  0.00000000000E+00 0. -1.
        -11    1    3    3    0    0  0.19431751849E+02  0.17224529875E+03 -0.47176909610E+02  0.17964324847E+03  0.00000000000E+00 0.  1.
         22    1    1    2    0    0 -0.25184773795E+03 -0.91412539100E+03 -0.75881987860E+03  0.12144381918E+04  0.00000000000E+00 0.  1.
<mgrwt>
<rscale>  0 0.19274298E+04</rscale>
<asrwt>0</asrwt>
<pdfrwt beam="1">  1        2 0.26088401E+00 0.19274298E+04</pdfrwt>
<pdfrwt beam="2">  1       -2 0.84260290E-01 0.19274298E+04</pdfrwt>
<totfact> 0.11325696E+01</totfact>
</mgrwt>
</event>
<event>
 6    1  0.9562506E-007  0.2031835E+04  0.7818608E-02  0.8591880E-01
          2   -1    0    0  501    0  0.00000000000E+00  0.00000000000E+00  0.15263004780E+04  0.15263004780E+04  0.00000000000E+00 0. -1.
         -2   -1    0    0    0  501 -0.00000000000E+00 -0.00000000000E+00 -0.67620282393E+03  0.67620282393E+03  0.00000000000E+00 0.  1.
         23    2    1    2    0    0 -0.77425747224E+03  0.54445399510E+03  0.31531499198E+02  0.95112193081E+03  0.87942627428E+02 0.  0.
         13    1    3    3    0    0 -0.16122881428E+03  0.73798861296E+02  0.16883320220E+02  0.17811807596E+03  0.00000000000E+00 0. -1.
        -13    1    3    3    0    0 -0.61302865796E+03  0.47065513381E+03  0.14648178978E+02  0.77300385484E+03  0.00000000000E+00 0.  1.
         22    1    1    2    0    0  0.77425747224E+03 -0.54445399510E+03  0.81856615490E+03  0.12513813711E+04  0.00000000000E+00 0. -1.
<mgrwt>
<rscale>  0 0.20318353E+04</rscale>
<asrwt>0</asrwt>
<pdfrwt beam="1">  1        2 0.23481546E+00 0.20318353E+04</pdfrwt>
<pdfrwt beam="2">  1       -2 0.10403120E+00 0.20318353E+04</pdfrwt>
<totfact> 0.85452127E+00</totfact>
</mgrwt>
</event>
<event>
 6    1  0.9562506E-007  0.1220881E+04  0.7818608E-02  0.9094773E-01
         -1   -1    0    0    0  501 -0.00000000000E+00  0.00000000000E+00  0.14759434026E+03  0.14759434026E+03  0.00000000000E+00 0.  1.
          1   -1    0    0  501    0  0.00000000000E+00 -0.00000000000E+00 -0.25247407300E+04  0.25247407300E+04  0.00000000000E+00 0. -1.
         23    2    1    2    0    0 -0.36675476727E+03  0.47395976272E+03 -0.14067073437E+04  0.15317655379E+04  0.91286342854E+02 0.  0.
         11    1    3    3    0    0 -0.27194486995E+03  0.29407176463E+03 -0.86800634390E+03  0.95596403075E+03  0.00000000000E+00 0. -1.
        -11    1    3    3    0    0 -0.94809897321E+02  0.17988799809E+03 -0.53870099977E+03  0.57580150716E+03  0.00000000000E+00 0.  1.
         22    1    1    2    0    0  0.36675476727E+03 -0.47395976272E+03 -0.97043904604E+03  0.11405695323E+04  0.00000000000E+00 0.  1.
<mgrwt>
<rscale>  0 0.12208807E+04</rscale>
<asrwt>0</asrwt>
<pdfrwt beam="1">  1        1 0.38842164E+00 0.12208807E+04</pdfrwt>
<pdfrwt beam="2">  1       -1 0.22706822E-01 0.12208807E+04</pdfrwt>
<totfact> 0.21378004E+01</totfact>
</mgrwt>
</event>
<event>
 6    1  0.9562506E-007  0.1872849E+04  0.7818608E-02  0.8668491E-01
          1   -1    0    0  501    0  0.00000000000E+00  0.00000000000E+00  0.30696761495E+04  0.30696761495E+04  0.00000000000E+00 0. -1.
         -1   -1    0    0    0  501 -0.00000000000E+00 -0.00000000000E+00 -0.28566220336E+03  0.28566220336E+03  0.00000000000E+00 0.  1.
         23    2    1    2    0    0  0.86143407774E+03 -0.15894437520E+03  0.81409707979E+03  0.11994384375E+04  0.92555525750E+02 0.  0.
         11    1    3    3    0    0  0.63775936040E+03 -0.11377818666E+03  0.65506169161E+03  0.92129707334E+03  0.00000000000E+00 0. -1.
        -11    1    3    3    0    0  0.22367471734E+03 -0.45166188541E+02  0.15903538818E+03  0.27814136416E+03  0.00000000000E+00 0.  1.
         22    1    1    2    0    0 -0.86143407774E+03  0.15894437520E+03  0.19699168663E+04  0.21558999153E+04  0.00000000000E+00 0. -1.
<mgrwt>
<rscale>  0 0.18728486E+04</rscale>
<asrwt>0</asrwt>
<pdfrwt beam="1">  1        1 0.47225785E+00 0.18728486E+04</pdfrwt>
<pdfrwt beam="2">  1       -1 0.43948033E-01 0.18728486E+04</pdfrwt>
<totfact> 0.25581644E+00</totfact>
</mgrwt>
</event>
<event>
 6    1  0.9562506E-007  0.1106674E+04  0.7818608E-02  0.9198711E-01
         -2   -1    0    0    0  501 -0.00000000000E+00  0.00000000000E+00  0.10565261359E+03  0.10565261359E+03  0.00000000000E+00 0.  1.
          2   -1    0    0  501    0  0.00000000000E+00 -0.00000000000E+00 -0.28980041978E+04  0.28980041978E+04  0.00000000000E+00 0. -1.
         23    2    1    2    0    0 -0.33804244219E+03 -0.43274268722E+03 -0.13532066148E+04  0.14633071209E+04  0.92523843461E+02 0.  0.
         11    1    3    3    0    0 -0.12833736947E+03 -0.18350770294E+03 -0.43913032132E+03  0.49293102615E+03  0.00000000000E+00 0.  1.
        -11    1    3    3    0    0 -0.20970507272E+03 -0.24923498428E+03 -0.91407629348E+03  0.97037609473E+03  0.00000000000E+00 0. -1.
         22    1    1    2    0    0  0.33804244219E+03  0.43274268722E+03 -0.14391449694E+04  0.15403496905E+04  0.00000000000E+00 0.  1.
<mgrwt>
<rscale>  0 0.11066738E+04</rscale>
<asrwt>0</asrwt>
<pdfrwt beam="1">  1        2 0.44584672E+00 0.11066738E+04</pdfrwt>
<pdfrwt beam="2">  1       -2 0.16254251E-01 0.11066738E+04</pdfrwt>
<totfact> 0.62241614E+01</totfact>
</mgrwt>
</event>
<event>
 6    1  0.9562506E-007  0.7833256E+03  0.7818608E-02  0.9584471E-01
         -2   -1    0    0    0  501 -0.00000000000E+00  0.00000000000E+00  0.34229979840E+03  0.34229979840E+03  0.00000000000E+00 0.  1.
          2   -1    0    0  501    0  0.00000000000E+00 -0.00000000000E+00 -0.44814437597E+03  0.44814437597E+03  0.00000000000E+00 0. -1.
         23    2    1    2    0    0 -0.17557094185E+03  0.24245316643E+03 -0.30005941255E+03  0.43361354836E+03  0.91522482118E+02 0.  0.
         11    1    3    3    0    0 -0.20211896457E+02  0.99871077481E+02 -0.89560517959E+02  0.13566075060E+03  0.00000000000E+00 0. -1.
        -11    1    3    3    0    0 -0.15535904539E+03  0.14258208895E+03 -0.21049889459E+03  0.29795279776E+03  0.00000000000E+00 0.  1.
         22    1    1    2    0    0  0.17557094185E+03 -0.24245316643E+03  0.19421483497E+03  0.35683062600E+03  0.00000000000E+00 0.  1.
<mgrwt>
<rscale>  0 0.78332555E+03</rscale>
<asrwt>0</asrwt>
<pdfrwt beam="1">  1        2 0.68945289E-01 0.78332555E+03</pdfrwt>
<pdfrwt beam="2">  1       -2 0.52661507E-01 0.78332555E+03</pdfrwt>
<totfact> 0.23956833E+02</totfact>
</mgrwt>
</event>
<event>
 6    1  0.1478826E-006  0.2289702E+04  0.7818608E-02  0.8481993E-01
         -2   -1    0    0    0  501 -0.00000000000E+00  0.00000000000E+00  0.79347949096E+03  0.79347949096E+03  0.00000000000E+00 0.  1.
          2   -1    0    0  501    0  0.00000000000E+00 -0.00000000000E+00 -0.16518176701E+04  0.16518176701E+04  0.00000000000E+00 0. -1.
         23    2    1    2    0    0 -0.16188110922E+03  0.47897185754E+03 -0.15246674050E+04  0.16088677431E+04  0.90692805468E+02 0.  0.
         13    1    3    3    0    0 -0.72360775773E+02  0.16237727103E+03 -0.66628729416E+03  0.68959496690E+03  0.00000000000E+00 0. -1.
        -13    1    3    3    0    0 -0.89520333443E+02  0.31659458651E+03 -0.85838011089E+03  0.91927277621E+03  0.00000000000E+00 0.  1.
         22    1    1    2    0    0  0.16188110922E+03 -0.47897185754E+03  0.66632922593E+03  0.83642941792E+03  0.00000000000E+00 0.  1.
<mgrwt>
<rscale>  0 0.22897017E+04</rscale>
<asrwt>0</asrwt>
<pdfrwt beam="1">  1        2 0.25412580E+00 0.22897017E+04</pdfrwt>
<pdfrwt beam="2">  1       -2 0.12207377E+00 0.22897017E+04</pdfrwt>
<totfact> 0.48169874E+00</totfact>
</mgrwt>
</event>
<event>
 6    1  0.9562506E-007  0.2062881E+04  0.7818608E-02  0.8577773E-01
          1   -1    0    0  501    0  0.00000000000E+00  0.00000000000E+00  0.18417102497E+04  0.18417102497E+04  0.00000000000E+00 0. -1.
         -1   -1    0    0    0  501 -0.00000000000E+00 -0.00000000000E+00 -0.57765294511E+03  0.57765294511E+03  0.00000000000E+00 0.  1.
         23    2    1    2    0    0 -0.10018140395E+04 -0.22998274352E+03  0.69927946005E+03  0.12465471624E+04  0.91458365933E+02 0.  0.
         11    1    3    3    0    0 -0.39728194353E+03 -0.11128411704E+03  0.32962831026E+03  0.52808325128E+03  0.00000000000E+00 0. -1.
        -11    1    3    3    0    0 -0.60453209602E+03 -0.11869862648E+03  0.36965114979E+03  0.71846391112E+03  0.00000000000E+00 0.  1.
         22    1    1    2    0    0  0.10018140395E+04  0.22998274352E+03  0.56477784452E+03  0.11728160324E+04  0.00000000000E+00 0. -1.
<mgrwt>
<rscale>  0 0.20628808E+04</rscale>
<asrwt>0</asrwt>
<pdfrwt beam="1">  1        1 0.28334004E+00 0.20628808E+04</pdfrwt>
<pdfrwt beam="2">  1       -1 0.88869685E-01 0.20628808E+04</pdfrwt>
<totfact> 0.43732472E+00</totfact>
</mgrwt>
</event>
<event>
 6    1  0.9562506E-007  0.1304727E+04  0.7818608E-02  0.9025825E-01
          2   -1    0    0  501    0  0.00000000000E+00  0.00000000000E+00  0.17367609339E+04  0.17367609339E+04  0.00000000000E+00 0. -1.
         -2   -1    0    0    0  501 -0.00000000000E+00 -0.00000000000E+00 -0.24504140071E+03  0.24504140071E+03  0.00000000000E+00 0.  1.
         23    2    1    2    0    0  0.39142983859E+03  0.17633704436E+03  0.88370456901E+01  0.43802367707E+03  0.86455633404E+02 0.  0.
         13    1    3    3    0    0  0.28466721107E+03  0.96535874273E+02 -0.21382431546E+02  0.30134997006E+03  0.00000000000E+00 0.  1.
        -13    1    3    3    0    0  0.10676262752E+03  0.79801170092E+02  0.30219477236E+02  0.13667370701E+03  0.00000000000E+00 0. -1.
         22    1    1    2    0    0 -0.39142983859E+03 -0.17633704436E+03  0.14828824875E+04  0.15437786575E+04  0.00000000000E+00 0. -1.
<mgrwt>
<rscale>  0 0.13047273E+04</rscale>
<asrwt>0</asrwt>
<pdfrwt beam="1">  1        2 0.26719398E+00 0.13047273E+04</pdfrwt>
<pdfrwt beam="2">  1       -2 0.37698678E-01 0.13047273E+04</pdfrwt>
<totfact> 0.60855176E+01</totfact>
</mgrwt>
</event>
<event>
 6    1  0.9562506E-007  0.2543365E+04  0.7818608E-02  0.8387698E-01
         -2   -1    0    0    0  501 -0.00000000000E+00  0.00000000000E+00  0.97170267870E+03  0.97170267870E+03  0.00000000000E+00 0.  1.
          2   -1    0    0  501    0  0.00000000000E+00 -0.00000000000E+00 -0.16642701572E+04  0.16642701572E+04  0.00000000000E+00 0. -1.
         23    2    1    2    0    0 -0.78036566733E+03 -0.81853641622E+03 -0.94598089721E+03  0.14770117493E+04  0.87814635102E+02 0.  0.
         11    1    3    3    0    0 -0.22502480093E+03 -0.27016305826E+03 -0.25139320299E+03  0.43223001005E+03  0.00000000000E+00 0.  1.
        -11    1    3    3    0    0 -0.55534086639E+03 -0.54837335796E+03 -0.69458769422E+03  0.10447817392E+04  0.00000000000E+00 0. -1.
         22    1    1    2    0    0  0.78036566733E+03  0.81853641622E+03  0.25341341875E+03  0.11589610866E+04  0.00000000000E+00 0.  1.
<mgrwt>
<rscale>  0 0.25433645E+04</rscale>
<asrwt>0</asrwt>
<pdfrwt beam="1">  1        2 0.25604156E+00 0.25433645E+04</pdfrwt>
<pdfrwt beam="2">  1       -2 0.14949272E+00 0.25433645E+04</pdfrwt>
<totfact> 0.27589043E+00</totfact>
</mgrwt>
</event>
<event>
 6    1  0.9562506E-007  0.2967159E+04  0.7818608E-02  0.8253172E-01
         -2   -1    0    0    0  501 -0.00000000000E+00  0.00000000000E+00  0.78301328414E+03  0.78301328414E+03  0.00000000000E+00 0.  1.
          2   -1    0    0  501    0  0.00000000000E+00 -0.00000000000E+00 -0.28109456018E+04  0.28109456018E+04  0.00000000000E+00 0. -1.
         23    2    1    2    0    0  0.11769750213E+04 -0.89770282146E+03 -0.92525185022E+03  0.17481407016E+04  0.93618213261E+02 0.  0.
         11    1    3    3    0    0  0.11179635806E+04 -0.82627295239E+03 -0.87688517341E+03  0.16436231827E+04  0.00000000000E+00 0.  1.
        -11    1    3    3    0    0  0.59011440633E+02 -0.71429869066E+02 -0.48366676812E+02  0.10451751885E+03  0.00000000000E+00 0. -1.
         22    1    1    2    0    0 -0.11769750213E+04  0.89770282146E+03 -0.11026804674E+04  0.18458181843E+04  0.00000000000E+00 0.  1.
<mgrwt>
<rscale>  0 0.29671587E+04</rscale>
<asrwt>0</asrwt>
<pdfrwt beam="1">  1        2 0.43245317E+00 0.29671587E+04</pdfrwt>
<pdfrwt beam="2">  1       -2 0.12046358E+00 0.29671587E+04</pdfrwt>
<totfact> 0.10275855E+00</totfact>
</mgrwt>
</event>
<event>
 6    1  0.9562506E-007  0.7605732E+03  0.7818608E-02  0.9618907E-01
          2   -1    0    0  501    0  0.00000000000E+00  0.00000000000E+00  0.58120094705E+03  0.58120094705E+03  0.00000000000E+00 0. -1.
         -2   -1    0    0    0  501 -0.00000000000E+00 -0.00000000000E+00 -0.24882596278E+03  0.24882596278E+03  0.00000000000E+00 0.  1.
         23    2    1    2    0    0  0.46443020949E+02  0.25791368395E+03  0.46052879536E+03  0.53830817223E+03  0.94934158114E+02 0.  0.
         13    1    3    3    0    0 -0.24869083681E+02  0.38728846967E+02  0.10442134947E+03  0.11411491198E+03  0.00000000000E+00 0. -1.
        -13    1    3    3    0    0  0.71312104630E+02  0.21918483699E+03  0.35610744589E+03  0.42419326026E+03  0.00000000000E+00 0.  1.
         22    1    1    2    0    0 -0.46443020949E+02 -0.25791368395E+03 -0.12815381109E+03  0.29171873759E+03  0.00000000000E+00 0.  1.
<mgrwt>
<rscale>  0 0.76057317E+03</rscale>
<asrwt>0</asrwt>
<pdfrwt beam="1">  1        2 0.89415530E-01 0.76057317E+03</pdfrwt>
<pdfrwt beam="2">  1       -2 0.38280917E-01 0.76057317E+03</pdfrwt>
<totfact> 0.33434084E+02</totfact>
</mgrwt>
</event>
<event>
 6    1  0.9562506E-007  0.3665836E+04  0.7818608E-02  0.8075575E-01
         -2   -1    0    0    0  501 -0.00000000000E+00  0.00000000000E+00  0.97960875871E+03  0.97960875871E+03  0.00000000000E+00 0.  1.
          2   -1    0    0  501    0  0.00000000000E+00 -0.00000000000E+00 -0.34295203351E+04  0.34295203351E+04  0.00000000000E+00 0. -1.
         23    2    1    2    0    0  0.30756374853E+03 -0.18054711324E+04 -0.12650295932E+04  0.22277839163E+04  0.91650623518E+02 0.  0.
         13    1    3    3    0    0  0.17041161882E+03 -0.12455766907E+04 -0.85432238733E+03  0.15199895242E+04  0.00000000000E+00 0. -1.
        -13    1    3    3    0    0  0.13715212971E+03 -0.55989444169E+03 -0.41070720589E+03  0.70779439210E+03  0.00000000000E+00 0.  1.
         22    1    1    2    0    0 -0.30756374853E+03  0.18054711324E+04 -0.11848819831E+04  0.21813451775E+04  0.00000000000E+00 0. -1.
<mgrwt>
<rscale>  0 0.36658359E+04</rscale>
<asrwt>0</asrwt>
<pdfrwt beam="1">  1        2 0.52761853E+00 0.36658359E+04</pdfrwt>
<pdfrwt beam="2">  1       -2 0.15070904E+00 0.36658359E+04</pdfrwt>
<totfact> 0.21793218E-01</totfact>
</mgrwt>
</event>
<event>
 6    1  0.9562506E-007  0.2237319E+04  0.7818608E-02  0.8503054E-01
          1   -1    0    0  501    0  0.00000000000E+00  0.00000000000E+00  0.80659864786E+03  0.80659864786E+03  0.00000000000E+00 0. -1.
         -1   -1    0    0    0  501 -0.00000000000E+00 -0.00000000000E+00 -0.15514519955E+04  0.15514519955E+04  0.00000000000E+00 0.  1.
         23    2    1    2    0    0  0.30943986817E+02 -0.27160101155E+03  0.76823110367E+03  0.82047163837E+03  0.90939765418E+02 0.  0.
         11    1    3    3    0    0 -0.33324701081E+01 -0.88960204258E+02  0.37674199666E+03  0.38711697889E+03  0.00000000000E+00 0. -1.
        -11    1    3    3    0    0  0.34276456925E+02 -0.18264080729E+03  0.39148910701E+03  0.43335465948E+03  0.00000000000E+00 0.  1.
         22    1    1    2    0    0 -0.30943986817E+02  0.27160101155E+03 -0.15130844513E+04  0.15375790050E+04  0.00000000000E+00 0.  1.
<mgrwt>
<rscale>  0 0.22373190E+04</rscale>
<asrwt>0</asrwt>
<pdfrwt beam="1">  1        1 0.12409210E+00 0.22373190E+04</pdfrwt>
<pdfrwt beam="2">  1       -1 0.23868492E+00 0.22373190E+04</pdfrwt>
<totfact> 0.16397803E+00</totfact>
</mgrwt>
</event>
<event>
 6    1  0.1159063E-006  0.4837934E+04  0.7818608E-02  0.7854006E-01
          2   -1    0    0  501    0  0.00000000000E+00  0.00000000000E+00  0.22538923377E+04  0.22538923377E+04  0.00000000000E+00 0. -1.
         -2   -1    0    0    0  501 -0.00000000000E+00 -0.00000000000E+00 -0.25961316560E+04  0.25961316560E+04  0.00000000000E+00 0.  1.
         23    2    1    2    0    0 -0.11611720083E+04  0.12870268063E+03  0.19512717406E+04  0.22761013473E+04  0.91055612601E+02 0.  0.
         11    1    3    3    0    0 -0.29187244303E+03  0.50236918317E+02  0.42788581579E+03  0.52038403349E+03  0.00000000000E+00 0. -1.
        -11    1    3    3    0    0 -0.86929956530E+03  0.78465762315E+02  0.15233859248E+04  0.17557173138E+04  0.00000000000E+00 0.  1.
         22    1    1    2    0    0  0.11611720083E+04 -0.12870268063E+03 -0.22935110588E+04  0.25739226464E+04  0.00000000000E+00 0.  1.
<mgrwt>
<rscale>  0 0.48379340E+04</rscale>
<asrwt>0</asrwt>
<pdfrwt beam="1">  1        2 0.34675267E+00 0.48379340E+04</pdfrwt>
<pdfrwt beam="2">  1       -2 0.39940487E+00 0.48379340E+04</pdfrwt>
<totfact> 0.26604872E-02</totfact>
</mgrwt>
</event>
<event>
 6    1  0.9562506E-007  0.2532754E+04  0.7818608E-02  0.8391409E-01
         -2   -1    0    0    0  501 -0.00000000000E+00  0.00000000000E+00  0.11171696727E+04  0.11171696727E+04  0.00000000000E+00 0.  1.
          2   -1    0    0  501    0  0.00000000000E+00 -0.00000000000E+00 -0.14355122949E+04  0.14355122949E+04  0.00000000000E+00 0. -1.
         23    2    1    2    0    0 -0.38299945549E+03  0.86173169925E+03 -0.10089162188E+04  0.13838526401E+04  0.88690971898E+02 0.  0.
         11    1    3    3    0    0 -0.21479931311E+03  0.38634767155E+03 -0.50085558584E+03  0.66802663576E+03  0.00000000000E+00 0.  1.
        -11    1    3    3    0    0 -0.16820014238E+03  0.47538402770E+03 -0.50806063301E+03  0.71582600435E+03  0.00000000000E+00 0. -1.
         22    1    1    2    0    0  0.38299945549E+03 -0.86173169925E+03  0.69057359661E+03  0.11688293275E+04  0.00000000000E+00 0.  1.
<mgrwt>
<rscale>  0 0.25327541E+04</rscale>
<asrwt>0</asrwt>
<pdfrwt beam="1">  1        2 0.22084804E+00 0.25327541E+04</pdfrwt>
<pdfrwt beam="2">  1       -2 0.17187226E+00 0.25327541E+04</pdfrwt>
<totfact> 0.25395087E+00</totfact>
</mgrwt>
</event>
<event>
 6    1  0.9562506E-007  0.3527617E+04  0.7818608E-02  0.8107276E-01
         -2   -1    0    0    0  501 -0.00000000000E+00  0.00000000000E+00  0.10828261089E+04  0.10828261089E+04  0.00000000000E+00 0.  1.
          2   -1    0    0  501    0  0.00000000000E+00 -0.00000000000E+00 -0.28730564232E+04  0.28730564232E+04  0.00000000000E+00 0. -1.
         23    2    1    2    0    0  0.35798540899E+03  0.16390835328E+04 -0.15017546187E+04  0.22535410248E+04  0.91825023718E+02 0.  0.
         13    1    3    3    0    0  0.14312129793E+03  0.60678804342E+03 -0.61642460770E+03  0.87672956636E+03  0.00000000000E+00 0.  1.
        -13    1    3    3    0    0  0.21486411106E+03  0.10322954894E+04 -0.88533001101E+03  0.13768114584E+04  0.00000000000E+00 0. -1.
         22    1    1    2    0    0 -0.35798540899E+03 -0.16390835328E+04 -0.28847569558E+03  0.17023415073E+04  0.00000000000E+00 0.  1.
<mgrwt>
<rscale>  0 0.35276170E+04</rscale>
<asrwt>0</asrwt>
<pdfrwt beam="1">  1        2 0.44200868E+00 0.35276170E+04</pdfrwt>
<pdfrwt beam="2">  1       -2 0.16658863E+00 0.35276170E+04</pdfrwt>
<totfact> 0.38562282E-01</totfact>
</mgrwt>
</event>
<event>
 6    1  0.9562506E-007  0.1505173E+04  0.7818608E-02  0.8881020E-01
         -2   -1    0    0    0  501 -0.00000000000E+00  0.00000000000E+00  0.33440596153E+03  0.33440596153E+03  0.00000000000E+00 0.  1.
          2   -1    0    0  501    0  0.00000000000E+00 -0.00000000000E+00 -0.16937100453E+04  0.16937100453E+04  0.00000000000E+00 0. -1.
         23    2    1    2    0    0  0.34538501201E+02 -0.21337329065E+03 -0.16495162898E+04  0.16662538871E+04  0.93685412874E+02 0.  0.
         11    1    3    3    0    0  0.58313597626E+01 -0.16099513110E+03 -0.89550468416E+03  0.90988025385E+03  0.00000000000E+00 0. -1.
        -11    1    3    3    0    0  0.28707141438E+02 -0.52378159544E+02 -0.75401160566E+03  0.75637363322E+03  0.00000000000E+00 0.  1.
         22    1    1    2    0    0 -0.34538501201E+02  0.21337329065E+03  0.29021220601E+03  0.36186211980E+03  0.00000000000E+00 0.  1.
<mgrwt>
<rscale>  0 0.15051734E+04</rscale>
<asrwt>0</asrwt>
<pdfrwt beam="1">  1        2 0.26057078E+00 0.15051734E+04</pdfrwt>
<pdfrwt beam="2">  1       -2 0.51447070E-01 0.15051734E+04</pdfrwt>
<totfact> 0.34077476E+01</totfact>
</mgrwt>
</event>
<event>
 6    1  0.9562506E-007  0.6684722E+03  0.7818608E-02  0.9772722E-01
         -2   -1    0    0    0  501 -0.00000000000E+00  0.00000000000E+00  0.27499647330E+03  0.27499647330E+03  0.00000000000E+00 0.  1.
          2   -1    0    0  501    0  0.00000000000E+00 -0.00000000000E+00 -0.40623714106E+03  0.40623714106E+03  0.00000000000E+00 0. -1.
         23    2    1    2    0    0 -0.21878142484E+03 -0.13300799874E+03  0.14252849778E+03  0.30639232051E+03  0.89473134543E+02 0.  0.
         11    1    3    3    0    0 -0.48006479903E+02 -0.61940620622E+02  0.77786426492E+02  0.11041734801E+03  0.00000000000E+00 0. -1.
        -11    1    3    3    0    0 -0.17077494494E+03 -0.71067378113E+02  0.64742071285E+02  0.19597497250E+03  0.00000000000E+00 0.  1.
         22    1    1    2    0    0  0.21878142484E+03  0.13300799874E+03 -0.27376916554E+03  0.37484129386E+03  0.00000000000E+00 0. -1.
<mgrwt>
<rscale>  0 0.66847223E+03</rscale>
<asrwt>0</asrwt>
<pdfrwt beam="1">  1        2 0.62498021E-01 0.66847223E+03</pdfrwt>
<pdfrwt beam="2">  1       -2 0.42307150E-01 0.66847223E+03</pdfrwt>
<totfact> 0.41731197E+02</totfact>
</mgrwt>
</event>
<event>
 6    1  0.1066066E-006  0.3873262E+04  0.7818608E-02  0.8030613E-01
          1   -1    0    0  501    0  0.00000000000E+00  0.00000000000E+00  0.19626213874E+04  0.19626213874E+04  0.00000000000E+00 0. -1.
         -1   -1    0    0    0  501 -0.00000000000E+00 -0.00000000000E+00 -0.19109848198E+04  0.19109848198E+04  0.00000000000E+00 0.  1.
         23    2    1    2    0    0  0.18688362947E+04  0.20698753936E+03 -0.43377919467E+03  0.19316944172E+04  0.88803120356E+02 0.  0.
         11    1    3    3    0    0  0.65862193606E+03  0.11294367673E+03 -0.16943007579E+03  0.68938064910E+03  0.00000000000E+00 0.  1.
        -11    1    3    3    0    0  0.12102143586E+04  0.94043862635E+02 -0.26434911888E+03  0.12423137681E+04  0.00000000000E+00 0. -1.
         22    1    1    2    0    0 -0.18688362947E+04 -0.20698753936E+03  0.48541576234E+03  0.19419117900E+04  0.00000000000E+00 0.  1.
<mgrwt>
<rscale>  0 0.38732620E+04</rscale>
<asrwt>0</asrwt>
<pdfrwt beam="1">  1        1 0.30194175E+00 0.38732620E+04</pdfrwt>
<pdfrwt beam="2">  1       -1 0.29399766E+00 0.38732620E+04</pdfrwt>
<totfact> 0.90243935E-02</totfact>
</mgrwt>
</event>
<event>
 6    1  0.9562506E-007  0.9133775E+03  0.7818608E-02  0.9409012E-01
         -1   -1    0    0    0  501 -0.00000000000E+00  0.00000000000E+00  0.19768086466E+03  0.19768086466E+03  0.00000000000E+00 0.  1.
          1   -1    0    0  501    0  0.00000000000E+00 -0.00000000000E+00 -0.10550572116E+04  0.10550572116E+04  0.00000000000E+00 0. -1.
         23    2    1    2    0    0  0.30715531713E+03  0.15787632893E+03 -0.83323863913E+03  0.90654166809E+03  0.90894676237E+02 0.  0.
         11    1    3    3    0    0  0.19536574380E+03  0.63476095048E+02 -0.56183467327E+03  0.59820998703E+03  0.00000000000E+00 0. -1.
        -11    1    3    3    0    0  0.11178957334E+03  0.94400233877E+02 -0.27140396587E+03  0.30833168107E+03  0.00000000000E+00 0.  1.
         22    1    1    2    0    0 -0.30715531713E+03 -0.15787632893E+03 -0.24137707797E+02  0.34619640815E+03  0.00000000000E+00 0.  1.
<mgrwt>
<rscale>  0 0.91337752E+03</rscale>
<asrwt>0</asrwt>
<pdfrwt beam="1">  1        1 0.16231649E+00 0.91337752E+03</pdfrwt>
<pdfrwt beam="2">  1       -1 0.30412441E-01 0.91337752E+03</pdfrwt>
<totfact> 0.13741092E+02</totfact>
</mgrwt>
</event>
<event>
 6    1  0.9562506E-007  0.1532688E+04  0.7818608E-02  0.8863002E-01
         -4   -1    0    0    0  501 -0.00000000000E+00  0.00000000000E+00  0.27548662216E+03  0.27548662216E+03  0.00000000000E+00 0.  1.
          4   -1    0    0  501    0  0.00000000000E+00 -0.00000000000E+00 -0.21318019233E+04  0.21318019233E+04  0.00000000000E+00 0. -1.
         23    2    1    2    0    0  0.15685574690E+03  0.72894925123E+03 -0.11926615989E+04  0.14090866758E+04  0.84337619557E+02 0.  0.
         11    1    3    3    0    0  0.37683139992E+02  0.35269205652E+03 -0.60109929493E+03  0.69794847098E+03  0.00000000000E+00 0. -1.
        -11    1    3    3    0    0  0.11917260690E+03  0.37625719471E+03 -0.59156230401E+03  0.71113820481E+03  0.00000000000E+00 0.  1.
         22    1    1    2    0    0 -0.15685574690E+03 -0.72894925123E+03 -0.66365370222E+03  0.99820186970E+03  0.00000000000E+00 0.  1.
<mgrwt>
<rscale>  0 0.15326877E+04</rscale>
<asrwt>0</asrwt>
<pdfrwt beam="1">  1        4 0.32796952E+00 0.15326877E+04</pdfrwt>
<pdfrwt beam="2">  1       -4 0.42382558E-01 0.15326877E+04</pdfrwt>
<totfact> 0.21698023E-01</totfact>
</mgrwt>
</event>
<event>
 6    1  0.9562506E-007  0.2645108E+04  0.7818608E-02  0.8353038E-01
          2   -1    0    0  501    0  0.00000000000E+00  0.00000000000E+00  0.32093667186E+04  0.32093667186E+04  0.00000000000E+00 0. -1.
         -2   -1    0    0    0  501 -0.00000000000E+00 -0.00000000000E+00 -0.54501384548E+03  0.54501384548E+03  0.00000000000E+00 0.  1.
         23    2    1    2    0    0  0.14489124376E+02 -0.12970423637E+03  0.31995363441E+04  0.32035135463E+04  0.91831913353E+02 0.  0.
         13    1    3    3    0    0  0.36878448968E+02 -0.10609896653E+02  0.79471464363E+03  0.79564059393E+03  0.00000000000E+00 0.  1.
        -13    1    3    3    0    0 -0.22389324591E+02 -0.11909433972E+03  0.24048217005E+04  0.24078729524E+04  0.00000000000E+00 0. -1.
         22    1    1    2    0    0 -0.14489124376E+02  0.12970423637E+03 -0.53518347100E+03  0.55086701779E+03  0.00000000000E+00 0.  1.
<mgrwt>
<rscale>  0 0.26451082E+04</rscale>
<asrwt>0</asrwt>
<pdfrwt beam="1">  1        2 0.49374871E+00 0.26451082E+04</pdfrwt>
<pdfrwt beam="2">  1       -2 0.83848286E-01 0.26451082E+04</pdfrwt>
<totfact> 0.14005177E+00</totfact>
</mgrwt>
</event>
<event>
 6    1  0.9562506E-007  0.4331126E+04  0.7818608E-02  0.7940887E-01
         -2   -1    0    0    0  501 -0.00000000000E+00  0.00000000000E+00  0.99332579056E+03  0.99332579056E+03  0.00000000000E+00 0.  1.
          2   -1    0    0  501    0  0.00000000000E+00 -0.00000000000E+00 -0.47211741085E+04  0.47211741085E+04  0.00000000000E+00 0. -1.
         23    2    1    2    0    0 -0.14036774892E+04  0.19425747657E+03  0.29419552157E+03  0.14501261926E+04  0.90931340472E+02 0.  0.
         11    1    3    3    0    0 -0.58444759042E+03  0.44760338060E+02  0.94086332455E+02  0.59366211920E+03  0.00000000000E+00 0. -1.
        -11    1    3    3    0    0 -0.81922989882E+03  0.14949713851E+03  0.20010918912E+03  0.85646407345E+03  0.00000000000E+00 0.  1.
         22    1    1    2    0    0  0.14036774892E+04 -0.19425747657E+03 -0.40220438395E+04  0.42643737064E+04  0.00000000000E+00 0. -1.
<mgrwt>
<rscale>  0 0.43311264E+04</rscale>
<asrwt>0</asrwt>
<pdfrwt beam="1">  1        2 0.72633446E+00 0.43311264E+04</pdfrwt>
<pdfrwt beam="2">  1       -2 0.15281936E+00 0.43311264E+04</pdfrwt>
<totfact> 0.15776975E-02</totfact>
</mgrwt>
</event>
<event>
 6    1  0.9562506E-007  0.1968282E+04  0.7818608E-02  0.8621595E-01
          2   -1    0    0  501    0  0.00000000000E+00  0.00000000000E+00  0.23447877893E+04  0.23447877893E+04  0.00000000000E+00 0. -1.
         -2   -1    0    0    0  501 -0.00000000000E+00 -0.00000000000E+00 -0.41305817709E+03  0.41305817709E+03  0.00000000000E+00 0.  1.
         23    2    1    2    0    0  0.64163324728E+03  0.52316422611E+03  0.17078568649E+04  0.19002253985E+04  0.93206558446E+02 0.  0.
         13    1    3    3    0    0  0.28214304298E+03  0.17466612317E+03  0.64570443770E+03  0.72598014584E+03  0.00000000000E+00 0.  1.
        -13    1    3    3    0    0  0.35949020430E+03  0.34849810294E+03  0.10621524272E+04  0.11742452527E+04  0.00000000000E+00 0. -1.
         22    1    1    2    0    0 -0.64163324728E+03 -0.52316422611E+03  0.22387274728E+03  0.85762056789E+03  0.00000000000E+00 0.  1.
<mgrwt>
<rscale>  0 0.19682823E+04</rscale>
<asrwt>0</asrwt>
<pdfrwt beam="1">  1        2 0.36073658E+00 0.19682823E+04</pdfrwt>
<pdfrwt beam="2">  1       -2 0.63547413E-01 0.19682823E+04</pdfrwt>
<totfact> 0.91285381E+00</totfact>
</mgrwt>
</event>
<event>
 6    1  0.9562506E-007  0.2472668E+04  0.7818608E-02  0.8412788E-01
         -1   -1    0    0    0  501 -0.00000000000E+00  0.00000000000E+00  0.49918915395E+03  0.49918915395E+03  0.00000000000E+00 0.  1.
          1   -1    0    0  501    0  0.00000000000E+00 -0.00000000000E+00 -0.30620093620E+04  0.30620093620E+04  0.00000000000E+00 0. -1.
         23    2    1    2    0    0 -0.97928690603E+03 -0.69774092363E+03 -0.16862622790E+04  0.20731800202E+04  0.93539732634E+02 0.  0.
         13    1    3    3    0    0 -0.28378708963E+03 -0.25525240761E+03 -0.52527894076E+03  0.64931261303E+03  0.00000000000E+00 0. -1.
        -13    1    3    3    0    0 -0.69549981640E+03 -0.44248851602E+03 -0.11609833382E+04  0.14238674071E+04  0.00000000000E+00 0.  1.
         22    1    1    2    0    0  0.97928690603E+03  0.69774092363E+03 -0.87655792903E+03  0.14880184958E+04  0.00000000000E+00 0.  1.
<mgrwt>
<rscale>  0 0.24726681E+04</rscale>
<asrwt>0</asrwt>
<pdfrwt beam="1">  1        1 0.47107837E+00 0.24726681E+04</pdfrwt>
<pdfrwt beam="2">  1       -1 0.76798330E-01 0.24726681E+04</pdfrwt>
<totfact> 0.81555950E-01</totfact>
</mgrwt>
</event>
<event>
 6    1  0.9562506E-007  0.2780345E+04  0.7818608E-02  0.8309396E-01
         -2   -1    0    0    0  501 -0.00000000000E+00  0.00000000000E+00  0.75813602584E+03  0.75813602584E+03  0.00000000000E+00 0.  1.
          2   -1    0    0  501    0  0.00000000000E+00 -0.00000000000E+00 -0.25491204226E+04  0.25491204226E+04  0.00000000000E+00 0. -1.
         23    2    1    2    0    0 -0.69849451082E+03  0.51779884051E+03 -0.21846419090E+04  0.23528055813E+04  0.83806991047E+02 0.  0.
         11    1    3    3    0    0 -0.33006380984E+03  0.26023749886E+03 -0.94827830487E+03  0.10372547507E+04  0.00000000000E+00 0. -1.
        -11    1    3    3    0    0 -0.36843070099E+03  0.25756134166E+03 -0.12363636042E+04  0.13155508306E+04  0.00000000000E+00 0.  1.
         22    1    1    2    0    0  0.69849451082E+03 -0.51779884051E+03  0.39365751225E+03  0.95445086717E+03  0.00000000000E+00 0.  1.
<mgrwt>
<rscale>  0 0.27803453E+04</rscale>
<asrwt>0</asrwt>
<pdfrwt beam="1">  1        2 0.39217238E+00 0.27803453E+04</pdfrwt>
<pdfrwt beam="2">  1       -2 0.11663631E+00 0.27803453E+04</pdfrwt>
<totfact> 0.16176927E+00</totfact>
</mgrwt>
</event>
<event>
 6    1  0.9562506E-007  0.2008800E+04  0.7818608E-02  0.8602517E-01
          1   -1    0    0  501    0  0.00000000000E+00  0.00000000000E+00  0.17830639473E+04  0.17830639473E+04  0.00000000000E+00 0. -1.
         -1   -1    0    0    0  501 -0.00000000000E+00 -0.00000000000E+00 -0.56577862585E+03  0.56577862585E+03  0.00000000000E+00 0.  1.
         23    2    1    2    0    0  0.62232028100E+03 -0.70645390457E+03  0.10119732164E+04  0.13852489285E+04  0.92006259467E+02 0.  0.
         13    1    3    3    0    0  0.17468134298E+03 -0.19683388149E+03  0.34550136003E+03  0.43431364043E+03  0.00000000000E+00 0. -1.
        -13    1    3    3    0    0  0.44763893803E+03 -0.50962002308E+03  0.66647185642E+03  0.95093528811E+03  0.00000000000E+00 0.  1.
         22    1    1    2    0    0 -0.62232028100E+03  0.70645390457E+03  0.20531210498E+03  0.96359364458E+03  0.00000000000E+00 0.  1.
<mgrwt>
<rscale>  0 0.20088001E+04</rscale>
<asrwt>0</asrwt>
<pdfrwt beam="1">  1        1 0.27431753E+00 0.20088001E+04</pdfrwt>
<pdfrwt beam="2">  1       -1 0.87042866E-01 0.20088001E+04</pdfrwt>
<totfact> 0.50408245E+00</totfact>
</mgrwt>
</event>
<event>
 6    1  0.9562506E-007  0.1273612E+04  0.7818608E-02  0.9050757E-01
         -1   -1    0    0    0  501 -0.00000000000E+00  0.00000000000E+00  0.23078905774E+03  0.23078905774E+03  0.00000000000E+00 0.  1.
          1   -1    0    0  501    0  0.00000000000E+00 -0.00000000000E+00 -0.17571114156E+04  0.17571114156E+04  0.00000000000E+00 0. -1.
         23    2    1    2    0    0 -0.53778636590E+03 -0.24922751181E+03 -0.11163436152E+04  0.12671986644E+04  0.90779181644E+02 0.  0.
         11    1    3    3    0    0 -0.39087221310E+03 -0.19914095014E+03 -0.74239235693E+03  0.86231352571E+03  0.00000000000E+00 0.  1.
        -11    1    3    3    0    0 -0.14691415280E+03 -0.50086561666E+02 -0.37395125829E+03  0.40488513869E+03  0.00000000000E+00 0. -1.
         22    1    1    2    0    0  0.53778636590E+03  0.24922751181E+03 -0.40997874261E+03  0.72070180892E+03  0.00000000000E+00 0.  1.
<mgrwt>
<rscale>  0 0.12736123E+04</rscale>
<asrwt>0</asrwt>
<pdfrwt beam="1">  1        1 0.27032483E+00 0.12736123E+04</pdfrwt>
<pdfrwt beam="2">  1       -1 0.35506009E-01 0.12736123E+04</pdfrwt>
<totfact> 0.32450241E+01</totfact>
</mgrwt>
</event>
<event>
 6    1  0.9562506E-007  0.2471406E+04  0.7818608E-02  0.8413244E-01
          2   -1    0    0  501    0  0.00000000000E+00  0.00000000000E+00  0.19066060528E+04  0.19066060528E+04  0.00000000000E+00 0. -1.
         -2   -1    0    0    0  501 -0.00000000000E+00 -0.00000000000E+00 -0.80087944080E+03  0.80087944080E+03  0.00000000000E+00 0.  1.
         23    2    1    2    0    0  0.82078892253E+01  0.63129020448E+03 -0.60791959477E+03  0.88123851860E+03  0.91762744340E+02 0.  0.
         11    1    3    3    0    0 -0.32833616603E+02  0.10353606845E+03 -0.10145477376E+03  0.14862985894E+03  0.00000000000E+00 0.  1.
        -11    1    3    3    0    0  0.41041505828E+02  0.52775413602E+03 -0.50646482101E+03  0.73260865966E+03  0.00000000000E+00 0. -1.
         22    1    1    2    0    0 -0.82078892253E+01 -0.63129020448E+03  0.17136462067E+04  0.18262469750E+04  0.00000000000E+00 0. -1.
<mgrwt>
<rscale>  0 0.24714057E+04</rscale>
<asrwt>0</asrwt>
<pdfrwt beam="1">  1        2 0.29332401E+00 0.24714057E+04</pdfrwt>
<pdfrwt beam="2">  1       -2 0.12321222E+00 0.24714057E+04</pdfrwt>
<totfact> 0.33464265E+00</totfact>
</mgrwt>
</event>
<event>
 6    1  0.1613651E-006  0.4628580E+04  0.7818608E-02  0.7888505E-01
          2   -1    0    0  501    0  0.00000000000E+00  0.00000000000E+00  0.27434831005E+04  0.27434831005E+04  0.00000000000E+00 0. -1.
         -2   -1    0    0    0  501 -0.00000000000E+00 -0.00000000000E+00 -0.19522405029E+04  0.19522405029E+04  0.00000000000E+00 0.  1.
         23    2    1    2    0    0  0.51621904597E+03 -0.31607943658E+03 -0.18693653437E+04  0.19671300222E+04  0.93195613582E+02 0.  0.
         13    1    3    3    0    0  0.39136094469E+03 -0.25313200764E+03 -0.13062280949E+04  0.13868925835E+04  0.00000000000E+00 0.  1.
        -13    1    3    3    0    0  0.12485810129E+03 -0.62947428947E+02 -0.56313724888E+03  0.58023743876E+03  0.00000000000E+00 0. -1.
         22    1    1    2    0    0 -0.51621904597E+03  0.31607943658E+03  0.26606079414E+04  0.27285935812E+04  0.00000000000E+00 0. -1.
<mgrwt>
<rscale>  0 0.46285803E+04</rscale>
<asrwt>0</asrwt>
<pdfrwt beam="1">  1        2 0.42207432E+00 0.46285803E+04</pdfrwt>
<pdfrwt beam="2">  1       -2 0.30034469E+00 0.46285803E+04</pdfrwt>
<totfact> 0.59314862E-02</totfact>
</mgrwt>
</event>
<event>
 6    1  0.9562506E-007  0.2842940E+04  0.7818608E-02  0.8290060E-01
         -2   -1    0    0    0  501 -0.00000000000E+00  0.00000000000E+00  0.17479721297E+04  0.17479721297E+04  0.00000000000E+00 0.  1.
          2   -1    0    0  501    0  0.00000000000E+00 -0.00000000000E+00 -0.11559552467E+04  0.11559552467E+04  0.00000000000E+00 0. -1.
         23    2    1    2    0    0 -0.11389690467E+04 -0.32788664417E+02 -0.56992223354E+03  0.12765281948E+04  0.79920548353E+02 0.  0.
         13    1    3    3    0    0 -0.96266535226E+03 -0.38638361852E+02 -0.45093111147E+03  0.10637463846E+04  0.00000000000E+00 0.  1.
        -13    1    3    3    0    0 -0.17630369441E+03  0.58496974349E+01 -0.11899112206E+03  0.21278181020E+03  0.00000000000E+00 0. -1.
         22    1    1    2    0    0  0.11389690467E+04  0.32788664417E+02  0.11619391166E+04  0.16273991816E+04  0.00000000000E+00 0.  1.
<mgrwt>
<rscale>  0 0.28429404E+04</rscale>
<asrwt>0</asrwt>
<pdfrwt beam="1">  1        2 0.17783927E+00 0.28429404E+04</pdfrwt>
<pdfrwt beam="2">  1       -2 0.26891879E+00 0.28429404E+04</pdfrwt>
<totfact> 0.85909983E-01</totfact>
</mgrwt>
</event>
<event>
 6    1  0.9562506E-007  0.2068534E+04  0.7818608E-02  0.8575232E-01
         -1   -1    0    0    0  501 -0.00000000000E+00  0.00000000000E+00  0.11583635969E+04  0.11583635969E+04  0.00000000000E+00 0.  1.
          1   -1    0    0  501    0  0.00000000000E+00 -0.00000000000E+00 -0.92346517341E+03  0.92346517341E+03  0.00000000000E+00 0. -1.
         23    2    1    2    0    0 -0.34050183248E+03  0.46858752691E+03  0.97762279938E+03  0.11399395694E+04  0.90554490485E+02 0.  0.
         13    1    3    3    0    0 -0.10050972883E+03  0.20528823736E+03  0.34367112901E+03  0.41274121541E+03  0.00000000000E+00 0. -1.
        -13    1    3    3    0    0 -0.23999210365E+03  0.26329928955E+03  0.63395167037E+03  0.72719835400E+03  0.00000000000E+00 0.  1.
         22    1    1    2    0    0  0.34050183248E+03 -0.46858752691E+03 -0.74272437587E+03  0.94188920092E+03  0.00000000000E+00 0. -1.
<mgrwt>
<rscale>  0 0.20685342E+04</rscale>
<asrwt>0</asrwt>
<pdfrwt beam="1">  1        1 0.14207156E+00 0.20685342E+04</pdfrwt>
<pdfrwt beam="2">  1       -1 0.17820979E+00 0.20685342E+04</pdfrwt>
<totfact> 0.34422495E+00</totfact>
</mgrwt>
</event>
<event>
 6    1  0.9562506E-007  0.1586661E+04  0.7818608E-02  0.8828785E-01
          2   -1    0    0  501    0  0.00000000000E+00  0.00000000000E+00  0.17385219628E+04  0.17385219628E+04  0.00000000000E+00 0. -1.
         -2   -1    0    0    0  501 -0.00000000000E+00 -0.00000000000E+00 -0.36201638448E+03  0.36201638448E+03  0.00000000000E+00 0.  1.
         23    2    1    2    0    0 -0.63126621059E+03  0.25927136521E+03  0.16196890386E+03  0.70740590452E+03  0.92035419762E+02 0.  0.
         13    1    3    3    0    0 -0.39200404051E+03  0.11250574662E+03  0.10171802577E+03  0.42032281352E+03  0.00000000000E+00 0.  1.
        -13    1    3    3    0    0 -0.23926217008E+03  0.14676561859E+03  0.60250878086E+02  0.28708309101E+03  0.00000000000E+00 0. -1.
         22    1    1    2    0    0  0.63126621059E+03 -0.25927136521E+03  0.12145366745E+04  0.13931324428E+04  0.00000000000E+00 0. -1.
<mgrwt>
<rscale>  0 0.15866612E+04</rscale>
<asrwt>0</asrwt>
<pdfrwt beam="1">  1        2 0.26746491E+00 0.15866612E+04</pdfrwt>
<pdfrwt beam="2">  1       -2 0.55694829E-01 0.15866612E+04</pdfrwt>
<totfact> 0.27135718E+01</totfact>
</mgrwt>
</event>
<event>
 6    1  0.9562506E-007  0.5515661E+04  0.7818608E-02  0.7753538E-01
         -2   -1    0    0    0  501 -0.00000000000E+00  0.00000000000E+00  0.21842300542E+04  0.21842300542E+04  0.00000000000E+00 0.  1.
          2   -1    0    0  501    0  0.00000000000E+00 -0.00000000000E+00 -0.34820635866E+04  0.34820635866E+04  0.00000000000E+00 0. -1.
         23    2    1    2    0    0 -0.62729346053E+03  0.13369391967E+04  0.17426441763E+04  0.22861445023E+04  0.93511812527E+02 0.  0.
         13    1    3    3    0    0 -0.27430569859E+03  0.47940892529E+03  0.63983417078E+03  0.84525990088E+03  0.00000000000E+00 0. -1.
        -13    1    3    3    0    0 -0.35298776194E+03  0.85753027141E+03  0.11028100055E+04  0.14408846015E+04  0.00000000000E+00 0.  1.
         22    1    1    2    0    0  0.62729346053E+03 -0.13369391967E+04 -0.30404777087E+04  0.33801491385E+04  0.00000000000E+00 0. -1.
<mgrwt>
<rscale>  0 0.55156606E+04</rscale>
<asrwt>0</asrwt>
<pdfrwt beam="1">  1        2 0.53570209E+00 0.55156606E+04</pdfrwt>
<pdfrwt beam="2">  1       -2 0.33603540E+00 0.55156606E+04</pdfrwt>
<totfact> 0.11112482E-02</totfact>
</mgrwt>
</event>
<event>
 6    1  0.9562506E-007  0.9146283E+03  0.7818608E-02  0.9407478E-01
          1   -1    0    0  501    0  0.00000000000E+00  0.00000000000E+00  0.25359877404E+03  0.25359877404E+03  0.00000000000E+00 0. -1.
         -1   -1    0    0    0  501 -0.00000000000E+00 -0.00000000000E+00 -0.82467374727E+03  0.82467374727E+03  0.00000000000E+00 0.  1.
         23    2    1    2    0    0  0.58225845916E+02 -0.31531424623E+03 -0.66486367313E+03  0.74419222671E+03  0.94683913278E+02 0.  0.
         11    1    3    3    0    0 -0.15764868201E+01 -0.12687331246E+03 -0.35123653049E+03  0.37345203584E+03  0.00000000000E+00 0.  1.
        -11    1    3    3    0    0  0.59802332736E+02 -0.18844093377E+03 -0.31362714265E+03  0.37074019087E+03  0.00000000000E+00 0. -1.
         22    1    1    2    0    0 -0.58225845916E+02  0.31531424623E+03  0.93788699904E+02  0.33408029460E+03  0.00000000000E+00 0. -1.
<mgrwt>
<rscale>  0 0.91462834E+03</rscale>
<asrwt>0</asrwt>
<pdfrwt beam="1">  1        1 0.39015195E-01 0.91462834E+03</pdfrwt>
<pdfrwt beam="2">  1       -1 0.12687289E+00 0.91462834E+03</pdfrwt>
<totfact> 0.59312136E+01</totfact>
</mgrwt>
</event>
<event>
 6    1  0.9562506E-007  0.4412432E+04  0.7818608E-02  0.7926149E-01
         -2   -1    0    0    0  501 -0.00000000000E+00  0.00000000000E+00  0.18894843786E+04  0.18894843786E+04  0.00000000000E+00 0.  1.
          2   -1    0    0  501    0  0.00000000000E+00 -0.00000000000E+00 -0.25760406747E+04  0.25760406747E+04  0.00000000000E+00 0. -1.
         23    2    1    2    0    0  0.64504294760E+03  0.18796449198E+04 -0.13110200617E+04  0.23824743042E+04  0.90910830251E+02 0.  0.
         11    1    3    3    0    0  0.57318728152E+03  0.15674251664E+04 -0.10989928400E+04  0.19982869099E+04  0.00000000000E+00 0. -1.
        -11    1    3    3    0    0  0.71855666079E+02  0.31221975341E+03 -0.21202722177E+03  0.38418739430E+03  0.00000000000E+00 0.  1.
         22    1    1    2    0    0 -0.64504294760E+03 -0.18796449198E+04  0.62446376559E+03  0.20830507491E+04  0.00000000000E+00 0. -1.
<mgrwt>
<rscale>  0 0.44124318E+04</rscale>
<asrwt>0</asrwt>
<pdfrwt beam="1">  1        2 0.39631395E+00 0.44124318E+04</pdfrwt>
<pdfrwt beam="2">  1       -2 0.29068991E+00 0.44124318E+04</pdfrwt>
<totfact> 0.86915369E-02</totfact>
</mgrwt>
</event>
<event>
 6    1  0.9562506E-007  0.1126326E+04  0.7818608E-02  0.9179906E-01
          2   -1    0    0  501    0  0.00000000000E+00  0.00000000000E+00  0.25300772867E+04  0.25300772867E+04  0.00000000000E+00 0. -1.
         -2   -1    0    0    0  501 -0.00000000000E+00 -0.00000000000E+00 -0.12535294242E+03  0.12535294242E+03  0.00000000000E+00 0.  1.
         23    2    1    2    0    0  0.52152075633E+03  0.11105930544E+03  0.16096423735E+04  0.16981040523E+04  0.91053463455E+02 0.  0.
         13    1    3    3    0    0  0.22405984853E+03  0.48286123431E+02  0.83663998431E+03  0.86746805634E+03  0.00000000000E+00 0. -1.
        -13    1    3    3    0    0  0.29746090780E+03  0.62773182006E+02  0.77300238919E+03  0.83063599593E+03  0.00000000000E+00 0.  1.
         22    1    1    2    0    0 -0.52152075633E+03 -0.11105930544E+03  0.79508197083E+03  0.95732617689E+03  0.00000000000E+00 0. -1.
<mgrwt>
<rscale>  0 0.11263261E+04</rscale>
<asrwt>0</asrwt>
<pdfrwt beam="1">  1        2 0.38924262E+00 0.11263261E+04</pdfrwt>
<pdfrwt beam="2">  1       -2 0.19285070E-01 0.11263261E+04</pdfrwt>
<totfact> 0.76174497E+01</totfact>
</mgrwt>
</event>
<event>
 6    1  0.9562506E-007  0.2418692E+04  0.7818608E-02  0.8432539E-01
          2   -1    0    0  501    0  0.00000000000E+00  0.00000000000E+00  0.14060138758E+04  0.14060138758E+04  0.00000000000E+00 0. -1.
         -2   -1    0    0    0  501 -0.00000000000E+00 -0.00000000000E+00 -0.10401873152E+04  0.10401873152E+04  0.00000000000E+00 0.  1.
         23    2    1    2    0    0  0.43318188903E+03  0.94809316458E+02  0.13190082503E+04  0.13949206913E+04  0.96879383902E+02 0.  0.
         11    1    3    3    0    0  0.17712871168E+03  0.31329325328E+02  0.68488510181E+03  0.70811278043E+03  0.00000000000E+00 0.  1.
        -11    1    3    3    0    0  0.25605317735E+03  0.63479991130E+02  0.63412314853E+03  0.68680791085E+03  0.00000000000E+00 0. -1.
         22    1    1    2    0    0 -0.43318188903E+03 -0.94809316458E+02 -0.95318168974E+03  0.10512804997E+04  0.00000000000E+00 0.  1.
<mgrwt>
<rscale>  0 0.24186920E+04</rscale>
<asrwt>0</asrwt>
<pdfrwt beam="1">  1        2 0.21630983E+00 0.24186920E+04</pdfrwt>
<pdfrwt beam="2">  1       -2 0.16002882E+00 0.24186920E+04</pdfrwt>
<totfact> 0.32457287E+00</totfact>
</mgrwt>
</event>
<event>
 6    1  0.9562506E-007  0.1447293E+04  0.7818608E-02  0.8920279E-01
         -4   -1    0    0    0  501 -0.00000000000E+00  0.00000000000E+00  0.12653284282E+04  0.12653284282E+04  0.00000000000E+00 0.  1.
          4   -1    0    0  501    0  0.00000000000E+00 -0.00000000000E+00 -0.41385653088E+03  0.41385653088E+03  0.00000000000E+00 0. -1.
         23    2    1    2    0    0  0.15740435911E+03 -0.10432964879E+03  0.12344052036E+04  0.12522204115E+04  0.92945921962E+02 0.  0.
         11    1    3    3    0    0  0.92896642768E+02 -0.72052437147E+01  0.49789316353E+03  0.50653657722E+03  0.00000000000E+00 0. -1.
        -11    1    3    3    0    0  0.64507716342E+02 -0.97124405075E+02  0.73651204004E+03  0.74568383424E+03  0.00000000000E+00 0.  1.
         22    1    1    2    0    0 -0.15740435911E+03  0.10432964879E+03 -0.38293330625E+03  0.42696454761E+03  0.00000000000E+00 0. -1.
<mgrwt>
<rscale>  0 0.14472932E+04</rscale>
<asrwt>0</asrwt>
<pdfrwt beam="1">  1        4 0.63670236E-01 0.14472932E+04</pdfrwt>
<pdfrwt beam="2">  1       -4 0.19466591E+00 0.14472932E+04</pdfrwt>
<totfact> 0.63853473E-01</totfact>
</mgrwt>
</event>
<event>
 6    1  0.9562506E-007  0.1244054E+04  0.7818608E-02  0.9075146E-01
          1   -1    0    0  501    0  0.00000000000E+00  0.00000000000E+00  0.98587072892E+03  0.98587072892E+03  0.00000000000E+00 0. -1.
         -1   -1    0    0    0  501 -0.00000000000E+00 -0.00000000000E+00 -0.39246292847E+03  0.39246292847E+03  0.00000000000E+00 0.  1.
         23    2    1    2    0    0 -0.49494783247E+03  0.36495895076E+03  0.37533507769E+03  0.72585829003E+03  0.88461539889E+02 0.  0.
         13    1    3    3    0    0 -0.14461677334E+03  0.67490150561E+02  0.12351445767E+03  0.20180374825E+03  0.00000000000E+00 0. -1.
        -13    1    3    3    0    0 -0.35033105914E+03  0.29746880020E+03  0.25182062002E+03  0.52405454178E+03  0.00000000000E+00 0.  1.
         22    1    1    2    0    0  0.49494783247E+03 -0.36495895076E+03  0.21807272276E+03  0.65247536737E+03  0.00000000000E+00 0. -1.
<mgrwt>
<rscale>  0 0.12440542E+04</rscale>
<asrwt>0</asrwt>
<pdfrwt beam="1">  1        1 0.15167242E+00 0.12440542E+04</pdfrwt>
<pdfrwt beam="2">  1       -1 0.60378912E-01 0.12440542E+04</pdfrwt>
<totfact> 0.42598641E+01</totfact>
</mgrwt>
</event>
<event>
 6    1  0.9562506E-007  0.2321674E+04  0.7818608E-02  0.8469424E-01
          2   -1    0    0  501    0  0.00000000000E+00  0.00000000000E+00  0.32827587625E+04  0.32827587625E+04  0.00000000000E+00 0. -1.
         -2   -1    0    0    0  501 -0.00000000000E+00 -0.00000000000E+00 -0.41049093090E+03  0.41049093090E+03  0.00000000000E+00 0.  1.
         23    2    1    2    0    0 -0.22850722747E+03  0.10747445490E+04  0.20247350522E+04  0.23055886358E+04  0.94316102793E+02 0.  0.
         13    1    3    3    0    0 -0.17381230410E+03  0.96106128456E+03  0.17927582187E+04  0.20415267670E+04  0.00000000000E+00 0.  1.
        -13    1    3    3    0    0 -0.54694923373E+02  0.11368326445E+03  0.23197683349E+03  0.26406186876E+03  0.00000000000E+00 0. -1.
         22    1    1    2    0    0  0.22850722747E+03 -0.10747445490E+04  0.84753277938E+03  0.13876610576E+04  0.00000000000E+00 0.  1.
<mgrwt>
<rscale>  0 0.23216741E+04</rscale>
<asrwt>0</asrwt>
<pdfrwt beam="1">  1        2 0.50503979E+00 0.23216741E+04</pdfrwt>
<pdfrwt beam="2">  1       -2 0.63152453E-01 0.23216741E+04</pdfrwt>
<totfact> 0.24078471E+00</totfact>
</mgrwt>
</event>
<event>
 6    1  0.9562506E-007  0.1569969E+04  0.7818608E-02  0.8839213E-01
         -1   -1    0    0    0  501 -0.00000000000E+00  0.00000000000E+00  0.14709210778E+04  0.14709210778E+04  0.00000000000E+00 0.  1.
          1   -1    0    0  501    0  0.00000000000E+00 -0.00000000000E+00 -0.41892147071E+03  0.41892147071E+03  0.00000000000E+00 0. -1.
         23    2    1    2    0    0  0.23537548238E+03 -0.67087405096E+03  0.92067306077E+03  0.11668485847E+04  0.91777582979E+02 0.  0.
         13    1    3    3    0    0  0.11804118687E+03 -0.33871169014E+03  0.53910199670E+03  0.64752628802E+03  0.00000000000E+00 0.  1.
        -13    1    3    3    0    0  0.11733429551E+03 -0.33216236082E+03  0.38157106407E+03  0.51932229664E+03  0.00000000000E+00 0. -1.
         22    1    1    2    0    0 -0.23537548238E+03  0.67087405096E+03  0.13132654627E+03  0.72299396381E+03  0.00000000000E+00 0. -1.
<mgrwt>
<rscale>  0 0.15699687E+04</rscale>
<asrwt>0</asrwt>
<pdfrwt beam="1">  1        1 0.64449458E-01 0.15699687E+04</pdfrwt>
<pdfrwt beam="2">  1       -1 0.22629555E+00 0.15699687E+04</pdfrwt>
<totfact> 0.54191521E+00</totfact>
</mgrwt>
</event>
<event>
 6    1  0.9562506E-007  0.7576492E+03  0.7818608E-02  0.9623426E-01
         -1   -1    0    0    0  501 -0.00000000000E+00  0.00000000000E+00  0.26162505579E+03  0.26162505579E+03  0.00000000000E+00 0.  1.
          1   -1    0    0  501    0  0.00000000000E+00 -0.00000000000E+00 -0.54852580681E+03  0.54852580681E+03  0.00000000000E+00 0. -1.
         23    2    1    2    0    0 -0.28541654197E+03 -0.53844776610E+02  0.10520085451E+03  0.32219027868E+03  0.91528648461E+02 0.  0.
         11    1    3    3    0    0 -0.14423383115E+03  0.17464026705E+02  0.36872193935E+02  0.14989312513E+03  0.00000000000E+00 0.  1.
        -11    1    3    3    0    0 -0.14118271082E+03 -0.71308803315E+02  0.68328660572E+02  0.17229715355E+03  0.00000000000E+00 0. -1.
         22    1    1    2    0    0  0.28541654197E+03  0.53844776610E+02 -0.39210160553E+03  0.48796058392E+03  0.00000000000E+00 0. -1.
<mgrwt>
<rscale>  0 0.75764925E+03</rscale>
<asrwt>0</asrwt>
<pdfrwt beam="1">  1        1 0.84388585E-01 0.75764925E+03</pdfrwt>
<pdfrwt beam="2">  1       -1 0.40250009E-01 0.75764925E+03</pdfrwt>
<totfact> 0.23723424E+02</totfact>
</mgrwt>
</event>
<event>
 6    1  0.9562506E-007  0.1634886E+04  0.7818608E-02  0.8799398E-01
         -2   -1    0    0    0  501 -0.00000000000E+00  0.00000000000E+00  0.11362887200E+04  0.11362887200E+04  0.00000000000E+00 0.  1.
          2   -1    0    0  501    0  0.00000000000E+00 -0.00000000000E+00 -0.58806646733E+03  0.58806646733E+03  0.00000000000E+00 0. -1.
         23    2    1    2    0    0  0.50099473124E+02  0.58425648096E+03  0.87149170374E+03  0.10547517743E+04  0.95592483993E+02 0.  0.
         13    1    3    3    0    0  0.28317690874E+02  0.48964500193E+03  0.66234163595E+03  0.82416658647E+03  0.00000000000E+00 0. -1.
        -13    1    3    3    0    0  0.21781782250E+02  0.94611479025E+02  0.20915006779E+03  0.23058518785E+03  0.00000000000E+00 0.  1.
         22    1    1    2    0    0 -0.50099473124E+02 -0.58425648096E+03 -0.32326945105E+03  0.66960341302E+03  0.00000000000E+00 0. -1.
<mgrwt>
<rscale>  0 0.16348863E+04</rscale>
<asrwt>0</asrwt>
<pdfrwt beam="1">  1        2 0.90471764E-01 0.16348863E+04</pdfrwt>
<pdfrwt beam="2">  1       -2 0.17481365E+00 0.16348863E+04</pdfrwt>
<totfact> 0.95685092E+00</totfact>
</mgrwt>
</event>
<event>
 6    1  0.9562506E-007  0.5066416E+03  0.7818608E-02  0.1012060E+00
          1   -1    0    0  501    0  0.00000000000E+00  0.00000000000E+00  0.50632022704E+02  0.50632022704E+02  0.00000000000E+00 0. -1.
         -1   -1    0    0    0  501 -0.00000000000E+00 -0.00000000000E+00 -0.12674078767E+04  0.12674078767E+04  0.00000000000E+00 0.  1.
         23    2    1    2    0    0  0.20981981801E+03 -0.52195116098E+02 -0.93145457460E+03  0.96004978970E+03  0.85669644453E+02 0.  0.
         11    1    3    3    0    0  0.12310071511E+03 -0.44477740165E+02 -0.71247031266E+03  0.72439354073E+03  0.00000000000E+00 0. -1.
        -11    1    3    3    0    0  0.86719102907E+02 -0.77173759325E+01 -0.21898426194E+03  0.23565624897E+03  0.00000000000E+00 0.  1.
         22    1    1    2    0    0 -0.20981981801E+03  0.52195116098E+02 -0.28532127944E+03  0.35799010974E+03  0.00000000000E+00 0. -1.
<mgrwt>
<rscale>  0 0.50664159E+03</rscale>
<asrwt>0</asrwt>
<pdfrwt beam="1">  1        1 0.77895419E-02 0.50664159E+03</pdfrwt>
<pdfrwt beam="2">  1       -1 0.19498583E+00 0.50664159E+03</pdfrwt>
<totfact> 0.16019967E+02</totfact>
</mgrwt>
</event>
<event>
 6    1  0.9562506E-007  0.1921034E+04  0.7818608E-02  0.8644457E-01
         -3   -1    0    0    0  501 -0.00000000000E+00  0.00000000000E+00  0.31636393487E+03  0.31636393487E+03  0.00000000000E+00 0.  1.
          3   -1    0    0  501    0  0.00000000000E+00 -0.00000000000E+00 -0.29162391173E+04  0.29162391173E+04  0.00000000000E+00 0. -1.
         23    2    1    2    0    0  0.14088180131E+03 -0.94599545139E+03 -0.14044121873E+04  0.17016272690E+04  0.91688029254E+02 0.  0.
         13    1    3    3    0    0  0.33543218792E+02 -0.53111350345E+03 -0.76579446999E+03  0.93254912543E+03  0.00000000000E+00 0.  1.
        -13    1    3    3    0    0  0.10733858251E+03 -0.41488194794E+03 -0.63861771735E+03  0.76907814358E+03  0.00000000000E+00 0. -1.
         22    1    1    2    0    0 -0.14088180131E+03  0.94599545139E+03 -0.11954629951E+04  0.15309757832E+04  0.00000000000E+00 0. -1.
<mgrwt>
<rscale>  0 0.19210340E+04</rscale>
<asrwt>0</asrwt>
<pdfrwt beam="1">  1        3 0.44865219E+00 0.19210340E+04</pdfrwt>
<pdfrwt beam="2">  1       -3 0.48671372E-01 0.19210340E+04</pdfrwt>
<totfact> 0.63832388E-02</totfact>
</mgrwt>
</event>
<event>
 6    1  0.9562506E-007  0.2732504E+03  0.7818608E-02  0.1099434E+00
          2   -1    0    0  501    0  0.00000000000E+00  0.00000000000E+00  0.10649388332E+03  0.10649388332E+03  0.00000000000E+00 0. -1.
         -2   -1    0    0    0  501 -0.00000000000E+00 -0.00000000000E+00 -0.17528187481E+03  0.17528187481E+03  0.00000000000E+00 0.  1.
         23    2    1    2    0    0 -0.98093568702E+02 -0.76471241755E+02 -0.38982039792E+02  0.15387503963E+03  0.81778538504E+02 0.  0.
         11    1    3    3    0    0  0.53643758791E+01 -0.20610730175E+02  0.13396533126E+02  0.25160401959E+02  0.00000000000E+00 0.  1.
        -11    1    3    3    0    0 -0.10345794458E+03 -0.55860511580E+02 -0.52378572918E+02  0.12871463767E+03  0.00000000000E+00 0. -1.
         22    1    1    2    0    0  0.98093568702E+02  0.76471241755E+02 -0.29805951702E+02  0.12790071850E+03  0.00000000000E+00 0. -1.
<mgrwt>
<rscale>  0 0.27325042E+03</rscale>
<asrwt>0</asrwt>
<pdfrwt beam="1">  1        2 0.16383674E-01 0.27325042E+03</pdfrwt>
<pdfrwt beam="2">  1       -2 0.26966442E-01 0.27325042E+03</pdfrwt>
<totfact> 0.43267256E+03</totfact>
</mgrwt>
</event>
<event>
 6    1  0.1198982E-006  0.2623519E+04  0.7818608E-02  0.8360256E-01
         -2   -1    0    0    0  501 -0.00000000000E+00  0.00000000000E+00  0.12712335563E+04  0.12712335563E+04  0.00000000000E+00 0.  1.
          2   -1    0    0  501    0  0.00000000000E+00 -0.00000000000E+00 -0.13535772176E+04  0.13535772176E+04  0.00000000000E+00 0. -1.
         23    2    1    2    0    0 -0.93445216703E+03  0.38104153187E+03  0.79461425932E+03  0.12878557649E+04  0.93633052308E+02 0.  0.
         13    1    3    3    0    0 -0.44887190320E+03  0.23168746890E+03  0.41236256409E+03  0.65207971368E+03  0.00000000000E+00 0. -1.
        -13    1    3    3    0    0 -0.48558026382E+03  0.14935406297E+03  0.38225169523E+03  0.63577605117E+03  0.00000000000E+00 0.  1.
         22    1    1    2    0    0  0.93445216703E+03 -0.38104153187E+03 -0.87695792068E+03  0.13369550090E+04  0.00000000000E+00 0. -1.
<mgrwt>
<rscale>  0 0.26235188E+04</rscale>
<asrwt>0</asrwt>
<pdfrwt beam="1">  1        2 0.20824265E+00 0.26235188E+04</pdfrwt>
<pdfrwt beam="2">  1       -2 0.19557439E+00 0.26235188E+04</pdfrwt>
<totfact> 0.19328616E+00</totfact>
</mgrwt>
</event>
<event>
 6    1  0.9562506E-007  0.1961116E+04  0.7818608E-02  0.8625019E-01
          2   -1    0    0  501    0  0.00000000000E+00  0.00000000000E+00  0.23834437450E+04  0.23834437450E+04  0.00000000000E+00 0. -1.
         -2   -1    0    0    0  501 -0.00000000000E+00 -0.00000000000E+00 -0.40340539605E+03  0.40340539605E+03  0.00000000000E+00 0.  1.
         23    2    1    2    0    0  0.63188053459E+03 -0.72255226919E+03  0.72302303057E+03  0.12052542807E+04  0.92308107100E+02 0.  0.
         11    1    3    3    0    0  0.24292741175E+03 -0.31620291569E+03  0.25306760472E+03  0.47227240426E+03  0.00000000000E+00 0.  1.
        -11    1    3    3    0    0  0.38895312284E+03 -0.40634935351E+03  0.46995542585E+03  0.73298187641E+03  0.00000000000E+00 0. -1.
         22    1    1    2    0    0 -0.63188053459E+03  0.72255226919E+03  0.12570153184E+04  0.15815948604E+04  0.00000000000E+00 0. -1.
<mgrwt>
<rscale>  0 0.19611161E+04</rscale>
<asrwt>0</asrwt>
<pdfrwt beam="1">  1        2 0.36668364E+00 0.19611161E+04</pdfrwt>
<pdfrwt beam="2">  1       -2 0.62062370E-01 0.19611161E+04</pdfrwt>
<totfact> 0.91317646E+00</totfact>
</mgrwt>
</event>
<event>
 6    1  0.9562506E-007  0.1866926E+04  0.7818608E-02  0.8671497E-01
          2   -1    0    0  501    0  0.00000000000E+00  0.00000000000E+00  0.15349086436E+04  0.15349086436E+04  0.00000000000E+00 0. -1.
         -2   -1    0    0    0  501 -0.00000000000E+00 -0.00000000000E+00 -0.56769081685E+03  0.56769081685E+03  0.00000000000E+00 0.  1.
         23    2    1    2    0    0  0.92811441945E+03  0.20848532849E+02  0.56538475968E+03  0.10910161220E+04  0.93942615503E+02 0.  0.
         13    1    3    3    0    0  0.47499585685E+03  0.26371108207E+02  0.34124755996E+03  0.58546254923E+03  0.00000000000E+00 0. -1.
        -13    1    3    3    0    0  0.45311856260E+03 -0.55225753577E+01  0.22413719972E+03  0.50555357274E+03  0.00000000000E+00 0.  1.
         22    1    1    2    0    0 -0.92811441945E+03 -0.20848532849E+02  0.40183306707E+03  0.10115833385E+04  0.00000000000E+00 0.  1.
<mgrwt>
<rscale>  0 0.18669264E+04</rscale>
<asrwt>0</asrwt>
<pdfrwt beam="1">  1        2 0.23613979E+00 0.18669264E+04</pdfrwt>
<pdfrwt beam="2">  1       -2 0.87337049E-01 0.18669264E+04</pdfrwt>
<totfact> 0.12900619E+01</totfact>
</mgrwt>
</event>
<event>
 6    1  0.9562506E-007  0.3407494E+04  0.7818608E-02  0.8136069E-01
         -1   -1    0    0    0  501 -0.00000000000E+00  0.00000000000E+00  0.21977126748E+04  0.21977126748E+04  0.00000000000E+00 0.  1.
          1   -1    0    0  501    0  0.00000000000E+00 -0.00000000000E+00 -0.13208071743E+04  0.13208071743E+04  0.00000000000E+00 0. -1.
         23    2    1    2    0    0 -0.11330382713E+04  0.35389423703E+03 -0.82151824282E+03  0.14464049713E+04  0.90433746777E+02 0.  0.
         11    1    3    3    0    0 -0.87969727321E+03  0.24312085761E+03 -0.60163392319E+03  0.10931323897E+04  0.00000000000E+00 0. -1.
        -11    1    3    3    0    0 -0.25334099805E+03  0.11077337942E+03 -0.21988431963E+03  0.35327258159E+03  0.00000000000E+00 0.  1.
         22    1    1    2    0    0  0.11330382713E+04 -0.35389423703E+03  0.16984237433E+04  0.20721148779E+04  0.00000000000E+00 0.  1.
<mgrwt>
<rscale>  0 0.34074945E+04</rscale>
<asrwt>0</asrwt>
<pdfrwt beam="1">  1        1 0.20320110E+00 0.34074945E+04</pdfrwt>
<pdfrwt beam="2">  1       -1 0.33810964E+00 0.34074945E+04</pdfrwt>
<totfact> 0.13377606E-01</totfact>
</mgrwt>
</event>
<event>
 6    1  0.9562506E-007  0.8625825E+03  0.7818608E-02  0.9473603E-01
          1   -1    0    0  501    0  0.00000000000E+00  0.00000000000E+00  0.12741490122E+04  0.12741490122E+04  0.00000000000E+00 0. -1.
         -1   -1    0    0    0  501 -0.00000000000E+00 -0.00000000000E+00 -0.14598930842E+03  0.14598930842E+03  0.00000000000E+00 0.  1.
         23    2    1    2    0    0 -0.30976497668E+03 -0.21552525090E+03  0.89769395985E+03  0.97796196021E+03  0.90275553244E+02 0.  0.
         13    1    3    3    0    0 -0.34314017770E+02 -0.65458456656E+02  0.15369435905E+03  0.17054095510E+03  0.00000000000E+00 0.  1.
        -13    1    3    3    0    0 -0.27545095891E+03 -0.15006679425E+03  0.74399960081E+03  0.80742100512E+03  0.00000000000E+00 0. -1.
         22    1    1    2    0    0  0.30976497668E+03  0.21552525090E+03  0.23046574389E+03  0.44217636036E+03  0.00000000000E+00 0. -1.
<mgrwt>
<rscale>  0 0.86258248E+03</rscale>
<asrwt>0</asrwt>
<pdfrwt beam="1">  1        1 0.19602292E+00 0.86258248E+03</pdfrwt>
<pdfrwt beam="2">  1       -1 0.22459894E-01 0.86258248E+03</pdfrwt>
<totfact> 0.16018130E+02</totfact>
</mgrwt>
</event>
<event>
 6    1  0.9562506E-007  0.1204597E+04  0.7818608E-02  0.9108843E-01
          2   -1    0    0  501    0  0.00000000000E+00  0.00000000000E+00  0.39375752143E+03  0.39375752143E+03  0.00000000000E+00 0. -1.
         -2   -1    0    0    0  501 -0.00000000000E+00 -0.00000000000E+00 -0.92128581152E+03  0.92128581152E+03  0.00000000000E+00 0.  1.
         23    2    1    2    0    0  0.23212251215E+03 -0.36143143053E+02  0.33625089250E+03  0.41988878556E+03  0.89748214983E+02 0.  0.
         11    1    3    3    0    0  0.56829851659E+01 -0.23238640928E+02  0.42460558095E+02  0.48736328814E+02  0.00000000000E+00 0.  1.
        -11    1    3    3    0    0  0.22643952699E+03 -0.12904502125E+02  0.29379033441E+03  0.37115245675E+03  0.00000000000E+00 0. -1.
         22    1    1    2    0    0 -0.23212251215E+03  0.36143143053E+02 -0.86377918259E+03  0.89515454739E+03  0.00000000000E+00 0.  1.
<mgrwt>
<rscale>  0 0.12045966E+04</rscale>
<asrwt>0</asrwt>
<pdfrwt beam="1">  1        2 0.60578081E-01 0.12045966E+04</pdfrwt>
<pdfrwt beam="2">  1       -2 0.14173628E+00 0.12045966E+04</pdfrwt>
<totfact> 0.27746143E+01</totfact>
</mgrwt>
</event>
<event>
 6    1  0.9562506E-007  0.3189567E+04  0.7818608E-02  0.8191578E-01
          2   -1    0    0  501    0  0.00000000000E+00  0.00000000000E+00  0.24224603723E+04  0.24224603723E+04  0.00000000000E+00 0. -1.
         -2   -1    0    0    0  501 -0.00000000000E+00 -0.00000000000E+00 -0.10498972115E+04  0.10498972115E+04  0.00000000000E+00 0.  1.
         23    2    1    2    0    0  0.14741090323E+04  0.49449415685E+03  0.30732879362E+03  0.15876172390E+04  0.92496486753E+02 0.  0.
         11    1    3    3    0    0  0.10155415831E+04  0.31813268782E+03  0.17206743642E+03  0.10780261207E+04  0.00000000000E+00 0. -1.
        -11    1    3    3    0    0  0.45856744914E+03  0.17636146903E+03  0.13526135720E+03  0.50959111837E+03  0.00000000000E+00 0.  1.
         22    1    1    2    0    0 -0.14741090323E+04 -0.49449415685E+03  0.10652343672E+04  0.18847403448E+04  0.00000000000E+00 0.  1.
<mgrwt>
<rscale>  0 0.31895670E+04</rscale>
<asrwt>0</asrwt>
<pdfrwt beam="1">  1        2 0.37268621E+00 0.31895670E+04</pdfrwt>
<pdfrwt beam="2">  1       -2 0.16152265E+00 0.31895670E+04</pdfrwt>
<totfact> 0.79824466E-01</totfact>
</mgrwt>
</event>
<event>
 6    1  0.9562506E-007  0.3890505E+04  0.7818608E-02  0.8027007E-01
          2   -1    0    0  501    0  0.00000000000E+00  0.00000000000E+00  0.20222314576E+04  0.20222314576E+04  0.00000000000E+00 0. -1.
         -2   -1    0    0    0  501 -0.00000000000E+00 -0.00000000000E+00 -0.18712039451E+04  0.18712039451E+04  0.00000000000E+00 0.  1.
         23    2    1    2    0    0 -0.60300105112E+02  0.14677169573E+04  0.13500862170E+04  0.19972363240E+04  0.91602245453E+02 0.  0.
         11    1    3    3    0    0 -0.33834480717E+02  0.46994041123E+03  0.37917866660E+03  0.60478527049E+03  0.00000000000E+00 0. -1.
        -11    1    3    3    0    0 -0.26465624395E+02  0.99777654602E+03  0.97090755038E+03  0.13924510535E+04  0.00000000000E+00 0.  1.
         22    1    1    2    0    0  0.60300105112E+02 -0.14677169573E+04 -0.11990587045E+04  0.18961990787E+04  0.00000000000E+00 0.  1.
<mgrwt>
<rscale>  0 0.38905051E+04</rscale>
<asrwt>0</asrwt>
<pdfrwt beam="1">  1        2 0.31111253E+00 0.38905051E+04</pdfrwt>
<pdfrwt beam="2">  1       -2 0.28787753E+00 0.38905051E+04</pdfrwt>
<totfact> 0.19484012E-01</totfact>
</mgrwt>
</event>
<event>
 6    1  0.9562506E-007  0.4105692E+04  0.7818608E-02  0.7983558E-01
          1   -1    0    0  501    0  0.00000000000E+00  0.00000000000E+00  0.15766942283E+04  0.15766942283E+04  0.00000000000E+00 0. -1.
         -1   -1    0    0    0  501 -0.00000000000E+00 -0.00000000000E+00 -0.26727924521E+04  0.26727924521E+04  0.00000000000E+00 0.  1.
         23    2    1    2    0    0  0.17157290105E+04 -0.58475006989E+03 -0.15434254752E+04  0.23824675718E+04  0.91273498361E+02 0.  0.
         11    1    3    3    0    0  0.55451633302E+03 -0.14597150721E+03 -0.50337852656E+03  0.76301113065E+03  0.00000000000E+00 0.  1.
        -11    1    3    3    0    0  0.11612126775E+04 -0.43877856268E+03 -0.10400469487E+04  0.16194564412E+04  0.00000000000E+00 0. -1.
         22    1    1    2    0    0 -0.17157290105E+04  0.58475006989E+03  0.44732725143E+03  0.18670191085E+04  0.00000000000E+00 0. -1.
<mgrwt>
<rscale>  0 0.41056919E+04</rscale>
<asrwt>0</asrwt>
<pdfrwt beam="1">  1        1 0.24256834E+00 0.41056919E+04</pdfrwt>
<pdfrwt beam="2">  1       -1 0.41119884E+00 0.41056919E+04</pdfrwt>
<totfact> 0.26916504E-02</totfact>
</mgrwt>
</event>
<event>
 6    1  0.9562506E-007  0.3155490E+04  0.7818608E-02  0.8200672E-01
          1   -1    0    0  501    0  0.00000000000E+00  0.00000000000E+00  0.22528275846E+04  0.22528275846E+04  0.00000000000E+00 0. -1.
         -1   -1    0    0    0  501 -0.00000000000E+00 -0.00000000000E+00 -0.11049575810E+04  0.11049575810E+04  0.00000000000E+00 0.  1.
         23    2    1    2    0    0 -0.13126251660E+04 -0.45879567882E+02 -0.35267493224E+03  0.13636124385E+04  0.99847450054E+02 0.  0.
         11    1    3    3    0    0 -0.94738019927E+03 -0.63850349549E+02 -0.22070951128E+03  0.97484296042E+03  0.00000000000E+00 0. -1.
        -11    1    3    3    0    0 -0.36524496674E+03  0.17970781667E+02 -0.13196542096E+03  0.38876947804E+03  0.00000000000E+00 0.  1.
         22    1    1    2    0    0  0.13126251660E+04  0.45879567882E+02  0.15005449358E+04  0.19941727271E+04  0.00000000000E+00 0. -1.
<mgrwt>
<rscale>  0 0.31554898E+04</rscale>
<asrwt>0</asrwt>
<pdfrwt beam="1">  1        1 0.34658886E+00 0.31554898E+04</pdfrwt>
<pdfrwt beam="2">  1       -1 0.16999347E+00 0.31554898E+04</pdfrwt>
<totfact> 0.41430042E-01</totfact>
</mgrwt>
</event>
<event>
 6    1  0.9562506E-007  0.1474347E+04  0.7818608E-02  0.8901693E-01
          1   -1    0    0  501    0  0.00000000000E+00  0.00000000000E+00  0.32471388401E+04  0.32471388401E+04  0.00000000000E+00 0. -1.
         -1   -1    0    0    0  501 -0.00000000000E+00 -0.00000000000E+00 -0.16735499784E+03  0.16735499784E+03  0.00000000000E+00 0.  1.
         23    2    1    2    0    0  0.32659179567E+03 -0.17096092230E+03  0.30167187826E+04  0.30405058171E+04  0.90518357408E+02 0.  0.
         11    1    3    3    0    0  0.95333991409E+02 -0.84328210790E+02  0.79808820199E+03  0.80817361699E+03  0.00000000000E+00 0. -1.
        -11    1    3    3    0    0  0.23125780426E+03 -0.86632711506E+02  0.22186305806E+04  0.22323322001E+04  0.00000000000E+00 0.  1.
         22    1    1    2    0    0 -0.32659179567E+03  0.17096092230E+03  0.63065059692E+02  0.37398802080E+03  0.00000000000E+00 0.  1.
<mgrwt>
<rscale>  0 0.14743472E+04</rscale>
<asrwt>0</asrwt>
<pdfrwt beam="1">  1        1 0.49955977E+00 0.14743472E+04</pdfrwt>
<pdfrwt beam="2">  1       -1 0.25746925E-01 0.14743472E+04</pdfrwt>
<totfact> 0.51024710E+00</totfact>
</mgrwt>
</event>
<event>
 6    1  0.9562506E-007  0.4160353E+04  0.7818608E-02  0.7972957E-01
         -2   -1    0    0    0  501 -0.00000000000E+00  0.00000000000E+00  0.26061840766E+04  0.26061840766E+04  0.00000000000E+00 0.  1.
          2   -1    0    0  501    0  0.00000000000E+00 -0.00000000000E+00 -0.16603329631E+04  0.16603329631E+04  0.00000000000E+00 0. -1.
         23    2    1    2    0    0  0.50901363647E+03 -0.11254892940E+04 -0.12422391713E+04  0.17538371700E+04  0.83460333734E+02 0.  0.
         13    1    3    3    0    0  0.23931870413E+03 -0.60674187604E+03 -0.69284403056E+03  0.95154715961E+03  0.00000000000E+00 0. -1.
        -13    1    3    3    0    0  0.26969493235E+03 -0.51874741799E+03 -0.54939514070E+03  0.80229001043E+03  0.00000000000E+00 0.  1.
         22    1    1    2    0    0 -0.50901363647E+03  0.11254892940E+04  0.21880902848E+04  0.25126798697E+04  0.00000000000E+00 0.  1.
<mgrwt>
<rscale>  0 0.41603525E+04</rscale>
<asrwt>0</asrwt>
<pdfrwt beam="1">  1        2 0.25543584E+00 0.41603525E+04</pdfrwt>
<pdfrwt beam="2">  1       -2 0.40095140E+00 0.41603525E+04</pdfrwt>
<totfact> 0.58779111E-02</totfact>
</mgrwt>
</event>
<event>
 6    1  0.9562506E-007  0.2069043E+04  0.7818608E-02  0.8575004E-01
         -2   -1    0    0    0  501 -0.00000000000E+00  0.00000000000E+00  0.41560965987E+03  0.41560965987E+03  0.00000000000E+00 0.  1.
          2   -1    0    0  501    0  0.00000000000E+00 -0.00000000000E+00 -0.25750970249E+04  0.25750970249E+04  0.00000000000E+00 0. -1.
         23    2    1    2    0    0 -0.56682854736E+03  0.55232720029E+03 -0.12341179919E+03  0.80622421789E+03  0.91690125187E+02 0.  0.
         11    1    3    3    0    0 -0.10732372547E+03  0.68658730130E+02 -0.41903282473E+02  0.13412042482E+03  0.00000000000E+00 0.  1.
        -11    1    3    3    0    0 -0.45950482188E+03  0.48366847016E+03 -0.81508516719E+02  0.67210379307E+03  0.00000000000E+00 0. -1.
         22    1    1    2    0    0  0.56682854736E+03 -0.55232720029E+03 -0.20360755658E+04  0.21844824669E+04  0.00000000000E+00 0. -1.
<mgrwt>
<rscale>  0 0.20690434E+04</rscale>
<asrwt>0</asrwt>
<pdfrwt beam="1">  1        2 0.39616877E+00 0.20690434E+04</pdfrwt>
<pdfrwt beam="2">  1       -2 0.63939948E-01 0.20690434E+04</pdfrwt>
<totfact> 0.65799496E+00</totfact>
</mgrwt>
</event>
<event>
 6    1  0.9562506E-007  0.2492560E+04  0.7818608E-02  0.8405641E-01
          1   -1    0    0  501    0  0.00000000000E+00  0.00000000000E+00  0.36308371294E+04  0.36308371294E+04  0.00000000000E+00 0. -1.
         -1   -1    0    0    0  501 -0.00000000000E+00 -0.00000000000E+00 -0.42778403133E+03  0.42778403133E+03  0.00000000000E+00 0.  1.
         23    2    1    2    0    0 -0.12065390525E+04  0.20624621168E+03  0.12366898764E+04  0.17424047839E+04  0.91096626276E+02 0.  0.
         11    1    3    3    0    0 -0.79961229505E+03  0.12688146863E+03  0.87648632784E+03  0.11931919428E+04  0.00000000000E+00 0. -1.
        -11    1    3    3    0    0 -0.40692675746E+03  0.79364743050E+02  0.36020354860E+03  0.54921284107E+03  0.00000000000E+00 0.  1.
         22    1    1    2    0    0  0.12065390525E+04 -0.20624621168E+03  0.19663632216E+04  0.23162163769E+04  0.00000000000E+00 0. -1.
<mgrwt>
<rscale>  0 0.24925602E+04</rscale>
<asrwt>0</asrwt>
<pdfrwt beam="1">  1        1 0.55859031E+00 0.24925602E+04</pdfrwt>
<pdfrwt beam="2">  1       -1 0.65812930E-01 0.24925602E+04</pdfrwt>
<totfact> 0.40920030E-01</totfact>
</mgrwt>
</event>
<event>
 6    1  0.9562506E-007  0.3289935E+04  0.7818608E-02  0.8165461E-01
          1   -1    0    0  501    0  0.00000000000E+00  0.00000000000E+00  0.31985022025E+04  0.31985022025E+04  0.00000000000E+00 0. -1.
         -1   -1    0    0    0  501 -0.00000000000E+00 -0.00000000000E+00 -0.84599528680E+03  0.84599528680E+03  0.00000000000E+00 0.  1.
         23    2    1    2    0    0 -0.15155736670E+04 -0.56629857794E+03  0.82064110114E+03  0.18164331964E+04  0.91214693789E+02 0.  0.
         11    1    3    3    0    0 -0.62772540306E+03 -0.28239317333E+03  0.34305177728E+03  0.76907061306E+03  0.00000000000E+00 0. -1.
        -11    1    3    3    0    0 -0.88784826399E+03 -0.28390540462E+03  0.47758932386E+03  0.10473625833E+04  0.00000000000E+00 0.  1.
         22    1    1    2    0    0  0.15155736670E+04  0.56629857794E+03  0.15318658146E+04  0.22280642929E+04  0.00000000000E+00 0.  1.
<mgrwt>
<rscale>  0 0.32899348E+04</rscale>
<asrwt>0</asrwt>
<pdfrwt beam="1">  1        1 0.49207726E+00 0.32899348E+04</pdfrwt>
<pdfrwt beam="2">  1       -1 0.13015312E+00 0.32899348E+04</pdfrwt>
<totfact> 0.17873745E-01</totfact>
</mgrwt>
</event>
<event>
 6    1  0.9562506E-007  0.1918360E+04  0.7818608E-02  0.8645771E-01
         -1   -1    0    0    0  501 -0.00000000000E+00  0.00000000000E+00  0.19135399311E+04  0.19135399311E+04  0.00000000000E+00 0.  1.
          1   -1    0    0  501    0  0.00000000000E+00 -0.00000000000E+00 -0.48079816332E+03  0.48079816332E+03  0.00000000000E+00 0. -1.
         23    2    1    2    0    0  0.88443438390E+03  0.10762653100E+03  0.11539273100E+04  0.14607722684E+04  0.92194001423E+02 0.  0.
         11    1    3    3    0    0  0.45126426386E+03  0.84012706253E+02  0.53459791385E+03  0.70462223932E+03  0.00000000000E+00 0. -1.
        -11    1    3    3    0    0  0.43317012004E+03  0.23613824752E+02  0.61932939615E+03  0.75615002913E+03  0.00000000000E+00 0.  1.
         22    1    1    2    0    0 -0.88443438390E+03 -0.10762653100E+03  0.27881445779E+03  0.93356582600E+03  0.00000000000E+00 0. -1.
<mgrwt>
<rscale>  0 0.19183602E+04</rscale>
<asrwt>0</asrwt>
<pdfrwt beam="1">  1        1 0.73968950E-01 0.19183602E+04</pdfrwt>
<pdfrwt beam="2">  1       -1 0.29439075E+00 0.19183602E+04</pdfrwt>
<totfact> 0.15703810E+00</totfact>
</mgrwt>
</event>
<event>
 6    1  0.9562506E-007  0.2701857E+04  0.7818608E-02  0.8334403E-01
          2   -1    0    0  501    0  0.00000000000E+00  0.00000000000E+00  0.20156624841E+04  0.20156624841E+04  0.00000000000E+00 0. -1.
         -2   -1    0    0    0  501 -0.00000000000E+00 -0.00000000000E+00 -0.90541319542E+03  0.90541319542E+03  0.00000000000E+00 0.  1.
         23    2    1    2    0    0 -0.10447044722E+04  0.77045673444E+03  0.15734044494E+03  0.13107818311E+04  0.91553149091E+02 0.  0.
         13    1    3    3    0    0 -0.68069534077E+02  0.30746744153E+02  0.23728422358E+02  0.78370031090E+02  0.00000000000E+00 0.  1.
        -13    1    3    3    0    0 -0.97663493814E+03  0.73970999029E+03  0.13361202259E+03  0.12324118000E+04  0.00000000000E+00 0. -1.
         22    1    1    2    0    0  0.10447044722E+04 -0.77045673444E+03  0.95290884375E+03  0.16102938485E+04  0.00000000000E+00 0.  1.
<mgrwt>
<rscale>  0 0.27018567E+04</rscale>
<asrwt>0</asrwt>
<pdfrwt beam="1">  1        2 0.31010192E+00 0.27018567E+04</pdfrwt>
<pdfrwt beam="2">  1       -2 0.13929434E+00 0.27018567E+04</pdfrwt>
<totfact> 0.20904006E+00</totfact>
</mgrwt>
</event>
<event>
 6    1  0.9562506E-007  0.4769942E+04  0.7818608E-02  0.7865010E-01
          2   -1    0    0  501    0  0.00000000000E+00  0.00000000000E+00  0.26003525315E+04  0.26003525315E+04  0.00000000000E+00 0. -1.
         -2   -1    0    0    0  501 -0.00000000000E+00 -0.00000000000E+00 -0.21874293919E+04  0.21874293919E+04  0.00000000000E+00 0.  1.
         23    2    1    2    0    0 -0.15134021906E+04 -0.14548566191E+04 -0.92711939662E+03  0.22972582895E+04  0.10416957499E+03 0.  0.
         13    1    3    3    0    0 -0.10332726286E+04 -0.97646214450E+03 -0.57586992812E+03  0.15338698833E+04  0.00000000000E+00 0.  1.
        -13    1    3    3    0    0 -0.48012956198E+03 -0.47839447459E+03 -0.35124946849E+03  0.76338840620E+03  0.00000000000E+00 0. -1.
         22    1    1    2    0    0  0.15134021906E+04  0.14548566191E+04  0.13400425362E+04  0.24905236340E+04  0.00000000000E+00 0. -1.
<mgrwt>
<rscale>  0 0.47699424E+04</rscale>
<asrwt>0</asrwt>
<pdfrwt beam="1">  1        2 0.40005424E+00 0.47699424E+04</pdfrwt>
<pdfrwt beam="2">  1       -2 0.33652760E+00 0.47699424E+04</pdfrwt>
<totfact> 0.42630217E-02</totfact>
</mgrwt>
</event>
<event>
 6    1  0.9562506E-007  0.1863806E+04  0.7818608E-02  0.8673085E-01
         -2   -1    0    0    0  501 -0.00000000000E+00  0.00000000000E+00  0.87979096567E+03  0.87979096567E+03  0.00000000000E+00 0.  1.
          2   -1    0    0  501    0  0.00000000000E+00 -0.00000000000E+00 -0.98710144218E+03  0.98710144218E+03  0.00000000000E+00 0. -1.
         23    2    1    2    0    0  0.89868346473E+03  0.36266510962E+02 -0.28902442628E+03  0.94930470679E+03  0.93258124348E+02 0.  0.
         11    1    3    3    0    0  0.27446501684E+03 -0.31146728576E+02 -0.80046752092E+02  0.28759111024E+03  0.00000000000E+00 0.  1.
        -11    1    3    3    0    0  0.62421844789E+03  0.67413239538E+02 -0.20897767419E+03  0.66171359655E+03  0.00000000000E+00 0. -1.
         22    1    1    2    0    0 -0.89868346473E+03 -0.36266510962E+02  0.18171394977E+03  0.91758770106E+03  0.00000000000E+00 0.  1.
<mgrwt>
<rscale>  0 0.18638057E+04</rscale>
<asrwt>0</asrwt>
<pdfrwt beam="1">  1        2 0.15186176E+00 0.18638057E+04</pdfrwt>
<pdfrwt beam="2">  1       -2 0.13535246E+00 0.18638057E+04</pdfrwt>
<totfact> 0.94507957E+00</totfact>
</mgrwt>
</event>
<event>
 6    1  0.9562506E-007  0.2222129E+04  0.7818608E-02  0.8509274E-01
         -2   -1    0    0    0  501 -0.00000000000E+00  0.00000000000E+00  0.10693191528E+04  0.10693191528E+04  0.00000000000E+00 0.  1.
          2   -1    0    0  501    0  0.00000000000E+00 -0.00000000000E+00 -0.11544394786E+04  0.11544394786E+04  0.00000000000E+00 0. -1.
         23    2    1    2    0    0  0.98759984386E+02 -0.92388378122E+03 -0.64891617483E+03  0.11369373327E+04  0.90661573391E+02 0.  0.
         11    1    3    3    0    0  0.13191117855E+02 -0.44093263068E+03 -0.34408269899E+03  0.55945374619E+03  0.00000000000E+00 0. -1.
        -11    1    3    3    0    0  0.85568866531E+02 -0.48295115054E+03 -0.30483347584E+03  0.57748358654E+03  0.00000000000E+00 0.  1.
         22    1    1    2    0    0 -0.98759984386E+02  0.92388378122E+03  0.56379584908E+03  0.10868212986E+04  0.00000000000E+00 0.  1.
<mgrwt>
<rscale>  0 0.22221289E+04</rscale>
<asrwt>0</asrwt>
<pdfrwt beam="1">  1        2 0.17760607E+00 0.22221289E+04</pdfrwt>
<pdfrwt beam="2">  1       -2 0.16451064E+00 0.22221289E+04</pdfrwt>
<totfact> 0.42970419E+00</totfact>
</mgrwt>
</event>
<event>
 6    1  0.9562506E-007  0.3252496E+04  0.7818608E-02  0.8175089E-01
          1   -1    0    0  501    0  0.00000000000E+00  0.00000000000E+00  0.95076149162E+03  0.95076149162E+03  0.00000000000E+00 0. -1.
         -1   -1    0    0    0  501 -0.00000000000E+00 -0.00000000000E+00 -0.27816469558E+04  0.27816469558E+04  0.00000000000E+00 0.  1.
         23    2    1    2    0    0  0.97325831027E+03  0.11761131594E+04 -0.15551231113E+04  0.21811126093E+04  0.91490003122E+02 0.  0.
         11    1    3    3    0    0  0.28997210817E+03  0.39893273079E+03 -0.46027130219E+03  0.67459678241E+03  0.00000000000E+00 0.  1.
        -11    1    3    3    0    0  0.68328620210E+03  0.77718042859E+03 -0.10948518091E+04  0.15065158269E+04  0.00000000000E+00 0. -1.
         22    1    1    2    0    0 -0.97325831027E+03 -0.11761131594E+04 -0.27576235281E+03  0.15512958381E+04  0.00000000000E+00 0. -1.
<mgrwt>
<rscale>  0 0.32524962E+04</rscale>
<asrwt>0</asrwt>
<pdfrwt beam="1">  1        1 0.14627100E+00 0.32524962E+04</pdfrwt>
<pdfrwt beam="2">  1       -1 0.42794567E+00 0.32524962E+04</pdfrwt>
<totfact> 0.63289603E-02</totfact>
</mgrwt>
</event>
<event>
 6    1  0.9562506E-007  0.1455092E+04  0.7818608E-02  0.8914878E-01
          2   -1    0    0  501    0  0.00000000000E+00  0.00000000000E+00  0.38850595803E+03  0.38850595803E+03  0.00000000000E+00 0. -1.
         -2   -1    0    0    0  501 -0.00000000000E+00 -0.00000000000E+00 -0.13624584025E+04  0.13624584025E+04  0.00000000000E+00 0.  1.
         23    2    1    2    0    0  0.38969603499E+03 -0.43140059858E+03 -0.10093981154E+04  0.11685333588E+04  0.92823376437E+02 0.  0.
         13    1    3    3    0    0  0.12618471380E+02 -0.38375683925E+02 -0.41529407448E+02  0.57936263425E+02  0.00000000000E+00 0. -1.
        -13    1    3    3    0    0  0.37707756361E+03 -0.39302491465E+03 -0.96786870792E+03  0.11105970954E+04  0.00000000000E+00 0.  1.
         22    1    1    2    0    0 -0.38969603499E+03  0.43140059858E+03  0.35445670929E+02  0.58243100169E+03  0.00000000000E+00 0.  1.
<mgrwt>
<rscale>  0 0.14550920E+04</rscale>
<asrwt>0</asrwt>
<pdfrwt beam="1">  1        2 0.59770147E-01 0.14550920E+04</pdfrwt>
<pdfrwt beam="2">  1       -2 0.20960899E+00 0.14550920E+04</pdfrwt>
<totfact> 0.91681325E+00</totfact>
</mgrwt>
</event>
<event>
 6    1  0.9562506E-007  0.3374850E+04  0.7818608E-02  0.8144107E-01
          1   -1    0    0  501    0  0.00000000000E+00  0.00000000000E+00  0.21523980267E+04  0.21523980267E+04  0.00000000000E+00 0. -1.
         -1   -1    0    0    0  501 -0.00000000000E+00 -0.00000000000E+00 -0.13228980112E+04  0.13228980112E+04  0.00000000000E+00 0.  1.
         23    2    1    2    0    0 -0.15176754193E+04  0.41209688118E+02  0.11702250555E+04  0.19192978150E+04  0.96127547961E+02 0.  0.
         11    1    3    3    0    0 -0.12962649450E+04  0.64248126325E+02  0.97626428841E+03  0.16240451318E+04  0.00000000000E+00 0.  1.
        -11    1    3    3    0    0 -0.22141047432E+03 -0.23038438207E+02  0.19396076712E+03  0.29525268323E+03  0.00000000000E+00 0. -1.
         22    1    1    2    0    0  0.15176754193E+04 -0.41209688118E+02 -0.34072504001E+03  0.15559982229E+04  0.00000000000E+00 0.  1.
<mgrwt>
<rscale>  0 0.33748500E+04</rscale>
<asrwt>0</asrwt>
<pdfrwt beam="1">  1        1 0.33113816E+00 0.33748500E+04</pdfrwt>
<pdfrwt beam="2">  1       -1 0.20352277E+00 0.33748500E+04</pdfrwt>
<totfact> 0.27547557E-01</totfact>
</mgrwt>
</event>
<event>
 6    1  0.9562506E-007  0.1917317E+04  0.7818608E-02  0.8646284E-01
         -2   -1    0    0    0  501 -0.00000000000E+00  0.00000000000E+00  0.10663776300E+04  0.10663776300E+04  0.00000000000E+00 0.  1.
          2   -1    0    0  501    0  0.00000000000E+00 -0.00000000000E+00 -0.86182025930E+03  0.86182025930E+03  0.00000000000E+00 0. -1.
         23    2    1    2    0    0  0.60123986768E+03 -0.16231048443E+03  0.83260204352E+03  0.10437352372E+04  0.91230536251E+02 0.  0.
         11    1    3    3    0    0  0.34960172998E+03 -0.12706860865E+03  0.44113301032E+03  0.57703217736E+03  0.00000000000E+00 0. -1.
        -11    1    3    3    0    0  0.25163813770E+03 -0.35241875778E+02  0.39146903320E+03  0.46670305988E+03  0.00000000000E+00 0.  1.
         22    1    1    2    0    0 -0.60123986768E+03  0.16231048443E+03 -0.62804467281E+03  0.88446265206E+03  0.00000000000E+00 0. -1.
<mgrwt>
<rscale>  0 0.19173167E+04</rscale>
<asrwt>0</asrwt>
<pdfrwt beam="1">  1        2 0.13258773E+00 0.19173167E+04</pdfrwt>
<pdfrwt beam="2">  1       -2 0.16405810E+00 0.19173167E+04</pdfrwt>
<totfact> 0.68480234E+00</totfact>
</mgrwt>
</event>
<event>
 6    1  0.9562506E-007  0.2190074E+03  0.7818608E-02  0.1134625E+00
         -1   -1    0    0    0  501 -0.00000000000E+00  0.00000000000E+00  0.21118044804E+02  0.21118044804E+02  0.00000000000E+00 0.  1.
          1   -1    0    0  501    0  0.00000000000E+00 -0.00000000000E+00 -0.56781119432E+03  0.56781119432E+03  0.00000000000E+00 0. -1.
         23    2    1    2    0    0 -0.48343857742E+02 -0.55142060736E+02 -0.46047194132E+03  0.47573969815E+03  0.94424976606E+02 0.  0.
         11    1    3    3    0    0 -0.72665427492E+02 -0.25992849581E+02 -0.24242509771E+03  0.25441269736E+03  0.00000000000E+00 0. -1.
        -11    1    3    3    0    0  0.24321569751E+02 -0.29149211156E+02 -0.21804684362E+03  0.22132700079E+03  0.00000000000E+00 0.  1.
         22    1    1    2    0    0  0.48343857742E+02  0.55142060736E+02 -0.86221208195E+02  0.11318954097E+03  0.00000000000E+00 0.  1.
<mgrwt>
<rscale>  0 0.21900742E+03</rscale>
<asrwt>0</asrwt>
<pdfrwt beam="1">  1        1 0.87355587E-01 0.21900742E+03</pdfrwt>
<pdfrwt beam="2">  1       -1 0.32489293E-02 0.21900742E+03</pdfrwt>
<totfact> 0.12505434E+04</totfact>
</mgrwt>
</event>
<event>
 6    1  0.9562506E-007  0.4630815E+04  0.7818608E-02  0.7888127E-01
          2   -1    0    0  501    0  0.00000000000E+00  0.00000000000E+00  0.17241892607E+04  0.17241892607E+04  0.00000000000E+00 0. -1.
         -2   -1    0    0    0  501 -0.00000000000E+00 -0.00000000000E+00 -0.31093519817E+04  0.31093519817E+04  0.00000000000E+00 0.  1.
         23    2    1    2    0    0  0.19632560133E+04  0.80324661611E+03  0.27355271104E+03  0.21407887130E+04  0.92552297993E+02 0.  0.
         11    1    3    3    0    0  0.51848818968E+03  0.24581450711E+03  0.10102413123E+03  0.58263251697E+03  0.00000000000E+00 0. -1.
        -11    1    3    3    0    0  0.14447678236E+04  0.55743210900E+03  0.17252857981E+03  0.15581561960E+04  0.00000000000E+00 0.  1.
         22    1    1    2    0    0 -0.19632560133E+04 -0.80324661611E+03 -0.16587154320E+04  0.26927525294E+04  0.00000000000E+00 0.  1.
<mgrwt>
<rscale>  0 0.46308147E+04</rscale>
<asrwt>0</asrwt>
<pdfrwt beam="1">  1        2 0.26525989E+00 0.46308147E+04</pdfrwt>
<pdfrwt beam="2">  1       -2 0.47836184E+00 0.46308147E+04</pdfrwt>
<totfact> 0.16181563E-02</totfact>
</mgrwt>
</event>
<event>
 6    1  0.9562506E-007  0.1832329E+04  0.7818608E-02  0.8689294E-01
          1   -1    0    0  501    0  0.00000000000E+00  0.00000000000E+00  0.82554891533E+03  0.82554891533E+03  0.00000000000E+00 0. -1.
         -1   -1    0    0    0  501 -0.00000000000E+00 -0.00000000000E+00 -0.10167261572E+04  0.10167261572E+04  0.00000000000E+00 0.  1.
         23    2    1    2    0    0 -0.61164558077E+03  0.48085747171E+03 -0.57801238617E+03  0.97338172267E+03  0.89662895787E+02 0.  0.
         11    1    3    3    0    0 -0.32581285019E+03  0.29878140905E+03 -0.36323056955E+03  0.57215451619E+03  0.00000000000E+00 0.  1.
        -11    1    3    3    0    0 -0.28583273059E+03  0.18207606266E+03 -0.21478181662E+03  0.40122720648E+03  0.00000000000E+00 0. -1.
         22    1    1    2    0    0  0.61164558077E+03 -0.48085747171E+03  0.38683514430E+03  0.86889334987E+03  0.00000000000E+00 0. -1.
<mgrwt>
<rscale>  0 0.18323288E+04</rscale>
<asrwt>0</asrwt>
<pdfrwt beam="1">  1        1 0.12700752E+00 0.18323288E+04</pdfrwt>
<pdfrwt beam="2">  1       -1 0.15641941E+00 0.18323288E+04</pdfrwt>
<totfact> 0.61535202E+00</totfact>
</mgrwt>
</event>
<event>
 6    1  0.9562506E-007  0.7795136E+03  0.7818608E-02  0.9590153E-01
          2   -1    0    0  501    0  0.00000000000E+00  0.00000000000E+00  0.60151850682E+03  0.60151850682E+03  0.00000000000E+00 0. -1.
         -2   -1    0    0    0  501 -0.00000000000E+00 -0.00000000000E+00 -0.25254480944E+03  0.25254480944E+03  0.00000000000E+00 0.  1.
         23    2    1    2    0    0  0.30436818043E+03 -0.23416059159E+03  0.20269881162E+03  0.44312838940E+03  0.88344718829E+02 0.  0.
         13    1    3    3    0    0  0.72531094831E+02 -0.92554835478E+02  0.93933907599E+02  0.15050161556E+03  0.00000000000E+00 0. -1.
        -13    1    3    3    0    0  0.23183708559E+03 -0.14160575611E+03  0.10876490403E+03  0.29262677384E+03  0.00000000000E+00 0.  1.
         22    1    1    2    0    0 -0.30436818043E+03  0.23416059159E+03  0.14627488576E+03  0.41093492686E+03  0.00000000000E+00 0. -1.
<mgrwt>
<rscale>  0 0.77951363E+03</rscale>
<asrwt>0</asrwt>
<pdfrwt beam="1">  1        2 0.92541308E-01 0.77951363E+03</pdfrwt>
<pdfrwt beam="2">  1       -2 0.38853048E-01 0.77951363E+03</pdfrwt>
<totfact> 0.31150169E+02</totfact>
</mgrwt>
</event>
<event>
 6    1  0.9562506E-007  0.3226782E+04  0.7818608E-02  0.8181780E-01
          2   -1    0    0  501    0  0.00000000000E+00  0.00000000000E+00  0.20355734680E+04  0.20355734680E+04  0.00000000000E+00 0. -1.
         -2   -1    0    0    0  501 -0.00000000000E+00 -0.00000000000E+00 -0.12787704938E+04  0.12787704938E+04  0.00000000000E+00 0.  1.
         23    2    1    2    0    0 -0.66027115238E+03  0.12714973751E+04  0.11377810649E+04  0.18318434136E+04  0.91874755860E+02 0.  0.
         11    1    3    3    0    0 -0.33376606153E+03  0.73353381620E+03  0.61576191332E+03  0.10142161393E+04  0.00000000000E+00 0. -1.
        -11    1    3    3    0    0 -0.32650509085E+03  0.53796355893E+03  0.52201915160E+03  0.81762727433E+03  0.00000000000E+00 0.  1.
         22    1    1    2    0    0  0.66027115238E+03 -0.12714973751E+04 -0.38097809074E+03  0.14825005481E+04  0.00000000000E+00 0.  1.
<mgrwt>
<rscale>  0 0.32267825E+04</rscale>
<asrwt>0</asrwt>
<pdfrwt beam="1">  1        2 0.31316515E+00 0.32267825E+04</pdfrwt>
<pdfrwt beam="2">  1       -2 0.19673392E+00 0.32267825E+04</pdfrwt>
<totfact> 0.74964416E-01</totfact>
</mgrwt>
</event>
<event>
 6    1  0.9562506E-007  0.1538087E+04  0.7818608E-02  0.8859513E-01
          1   -1    0    0  501    0  0.00000000000E+00  0.00000000000E+00  0.71966646018E+03  0.71966646018E+03  0.00000000000E+00 0. -1.
         -1   -1    0    0    0  501 -0.00000000000E+00 -0.00000000000E+00 -0.82180787126E+03  0.82180787126E+03  0.00000000000E+00 0.  1.
         23    2    1    2    0    0 -0.40261144648E+03  0.24943318389E+03  0.55257682710E+03  0.73340944453E+03  0.90748958168E+02 0.  0.
         11    1    3    3    0    0 -0.21698172325E+03  0.14480146074E+03  0.37053568537E+03  0.45315033421E+03  0.00000000000E+00 0.  1.
        -11    1    3    3    0    0 -0.18562972323E+03  0.10463172315E+03  0.18204114173E+03  0.28025911032E+03  0.00000000000E+00 0. -1.
         22    1    1    2    0    0  0.40261144648E+03 -0.24943318389E+03 -0.65471823819E+03  0.80806488692E+03  0.00000000000E+00 0.  1.
<mgrwt>
<rscale>  0 0.15380866E+04</rscale>
<asrwt>0</asrwt>
<pdfrwt beam="1">  1        1 0.11071792E+00 0.15380866E+04</pdfrwt>
<pdfrwt beam="2">  1       -1 0.12643198E+00 0.15380866E+04</pdfrwt>
<totfact> 0.13700989E+01</totfact>
</mgrwt>
</event>
<event>
 6    1  0.9562506E-007  0.1266652E+04  0.7818608E-02  0.9056436E-01
         -2   -1    0    0    0  501 -0.00000000000E+00  0.00000000000E+00  0.31648170322E+03  0.31648170322E+03  0.00000000000E+00 0.  1.
          2   -1    0    0  501    0  0.00000000000E+00 -0.00000000000E+00 -0.12673780971E+04  0.12673780971E+04  0.00000000000E+00 0. -1.
         23    2    1    2    0    0 -0.14903002243E+03 -0.10043318547E+03 -0.12329246797E+04  0.12494398153E+04  0.93272793665E+02 0.  0.
         13    1    3    3    0    0 -0.64486690116E+02 -0.94991180618E+01 -0.66023940880E+03  0.66344920181E+03  0.00000000000E+00 0. -1.
        -13    1    3    3    0    0 -0.84543332312E+02 -0.90934067404E+02 -0.57268527088E+03  0.58599061353E+03  0.00000000000E+00 0.  1.
         22    1    1    2    0    0  0.14903002243E+03  0.10043318547E+03  0.28202828583E+03  0.33441998495E+03  0.00000000000E+00 0.  1.
<mgrwt>
<rscale>  0 0.12666522E+04</rscale>
<asrwt>0</asrwt>
<pdfrwt beam="1">  1        2 0.19498125E+00 0.12666522E+04</pdfrwt>
<pdfrwt beam="2">  1       -2 0.48689492E-01 0.12666522E+04</pdfrwt>
<totfact> 0.67774536E+01</totfact>
</mgrwt>
</event>
<event>
 6    1  0.9562506E-007  0.3554539E+04  0.7818608E-02  0.8100985E-01
         -2   -1    0    0    0  501 -0.00000000000E+00  0.00000000000E+00  0.25692632224E+04  0.25692632224E+04  0.00000000000E+00 0.  1.
          2   -1    0    0  501    0  0.00000000000E+00 -0.00000000000E+00 -0.12294136413E+04  0.12294136413E+04  0.00000000000E+00 0. -1.
         23    2    1    2    0    0  0.13437009730E+04 -0.25893227168E+02 -0.57066514797E+03  0.14628110083E+04  0.89188401176E+02 0.  0.
         13    1    3    3    0    0  0.30877554865E+03 -0.32462779870E+02 -0.16095419105E+03  0.34971763343E+03  0.00000000000E+00 0.  1.
        -13    1    3    3    0    0  0.10349254244E+04  0.65695527022E+01 -0.40971095692E+03  0.11130933749E+04  0.00000000000E+00 0. -1.
         22    1    1    2    0    0 -0.13437009730E+04  0.25893227168E+02  0.19105147291E+04  0.23358658553E+04  0.00000000000E+00 0.  1.
<mgrwt>
<rscale>  0 0.35545392E+04</rscale>
<asrwt>0</asrwt>
<pdfrwt beam="1">  1        2 0.18914056E+00 0.35545392E+04</pdfrwt>
<pdfrwt beam="2">  1       -2 0.39527126E+00 0.35545392E+04</pdfrwt>
<totfact> 0.11850621E-01</totfact>
</mgrwt>
</event>
<event>
 6    1  0.9562506E-007  0.1107565E+04  0.7818608E-02  0.9197850E-01
          2   -1    0    0  501    0  0.00000000000E+00  0.00000000000E+00  0.56830079008E+03  0.56830079008E+03  0.00000000000E+00 0. -1.
         -2   -1    0    0    0  501 -0.00000000000E+00 -0.00000000000E+00 -0.53963507080E+03  0.53963507080E+03  0.00000000000E+00 0.  1.
         23    2    1    2    0    0  0.31739921407E+02 -0.39600256820E+03  0.39450033869E+03  0.56787991434E+03  0.95034852822E+02 0.  0.
         13    1    3    3    0    0 -0.14222844297E+02 -0.30206289686E+03  0.31371024201E+03  0.43572743649E+03  0.00000000000E+00 0. -1.
        -13    1    3    3    0    0  0.45962765704E+02 -0.93939671333E+02  0.80790096677E+02  0.13215247785E+03  0.00000000000E+00 0.  1.
         22    1    1    2    0    0 -0.31739921407E+02  0.39600256820E+03 -0.36583461941E+03  0.54005594654E+03  0.00000000000E+00 0.  1.
<mgrwt>
<rscale>  0 0.11075650E+04</rscale>
<asrwt>0</asrwt>
<pdfrwt beam="1">  1        2 0.87430892E-01 0.11075650E+04</pdfrwt>
<pdfrwt beam="2">  1       -2 0.83020779E-01 0.11075650E+04</pdfrwt>
<totfact> 0.66834287E+01</totfact>
</mgrwt>
</event>
<event>
 6    1  0.9562506E-007  0.2837878E+04  0.7818608E-02  0.8291604E-01
         -2   -1    0    0    0  501 -0.00000000000E+00  0.00000000000E+00  0.57071815844E+03  0.57071815844E+03  0.00000000000E+00 0.  1.
          2   -1    0    0  501    0  0.00000000000E+00 -0.00000000000E+00 -0.35278155656E+04  0.35278155656E+04  0.00000000000E+00 0. -1.
         23    2    1    2    0    0  0.59957513806E+03 -0.83277339987E+03 -0.67833927191E+02  0.10324539243E+04  0.91420907825E+02 0.  0.
         13    1    3    3    0    0  0.30630508449E+03 -0.39334888093E+03  0.88166512122E+01  0.49862198132E+03  0.00000000000E+00 0. -1.
        -13    1    3    3    0    0  0.29327005357E+03 -0.43942451894E+03 -0.76650578403E+02  0.53383194298E+03  0.00000000000E+00 0.  1.
         22    1    1    2    0    0 -0.59957513806E+03  0.83277339987E+03 -0.28892634800E+04  0.30660797998E+04  0.00000000000E+00 0. -1.
<mgrwt>
<rscale>  0 0.28378784E+04</rscale>
<asrwt>0</asrwt>
<pdfrwt beam="1">  1        2 0.54274086E+00 0.28378784E+04</pdfrwt>
<pdfrwt beam="2">  1       -2 0.87802793E-01 0.28378784E+04</pdfrwt>
<totfact> 0.75399881E-01</totfact>
</mgrwt>
</event>
<event>
 6    1  0.9562506E-007  0.1471533E+04  0.7818608E-02  0.8903607E-01
         -1   -1    0    0    0  501 -0.00000000000E+00  0.00000000000E+00  0.44554675385E+03  0.44554675385E+03  0.00000000000E+00 0.  1.
          1   -1    0    0  501    0  0.00000000000E+00 -0.00000000000E+00 -0.12150296210E+04  0.12150296210E+04  0.00000000000E+00 0. -1.
         23    2    1    2    0    0  0.38820470975E+03 -0.41570882523E+02  0.31374976525E+03  0.50913207709E+03  0.91353827380E+02 0.  0.
         13    1    3    3    0    0  0.19285228971E+03 -0.64833135146E+02  0.17535450884E+03  0.26859736565E+03  0.00000000000E+00 0.  1.
        -13    1    3    3    0    0  0.19535242003E+03  0.23262252623E+02  0.13839525641E+03  0.24053471144E+03  0.00000000000E+00 0. -1.
         22    1    1    2    0    0 -0.38820470975E+03  0.41570882523E+02 -0.10832326325E+04  0.11514442978E+04  0.00000000000E+00 0. -1.
<mgrwt>
<rscale>  0 0.14715332E+04</rscale>
<asrwt>0</asrwt>
<pdfrwt beam="1">  1        1 0.18692763E+00 0.14715332E+04</pdfrwt>
<pdfrwt beam="2">  1       -1 0.68545655E-01 0.14715332E+04</pdfrwt>
<totfact> 0.21760408E+01</totfact>
</mgrwt>
</event>
<event>
 6    1  0.9562506E-007  0.2487590E+04  0.7818608E-02  0.8407420E-01
          1   -1    0    0  501    0  0.00000000000E+00  0.00000000000E+00  0.27774601648E+04  0.27774601648E+04  0.00000000000E+00 0. -1.
         -1   -1    0    0    0  501 -0.00000000000E+00 -0.00000000000E+00 -0.55699325136E+03  0.55699325136E+03  0.00000000000E+00 0.  1.
         23    2    1    2    0    0 -0.29745900886E+03  0.71216148654E+03 -0.19226742929E+03  0.80128487588E+03  0.97133120416E+02 0.  0.
         11    1    3    3    0    0 -0.22305729871E+03  0.41405535992E+03 -0.12733702394E+03  0.48724851693E+03  0.00000000000E+00 0. -1.
        -11    1    3    3    0    0 -0.74401710154E+02  0.29810612662E+03 -0.64930405351E+02  0.31403635895E+03  0.00000000000E+00 0.  1.
         22    1    1    2    0    0  0.29745900886E+03 -0.71216148654E+03  0.24127343427E+04  0.25331685403E+04  0.00000000000E+00 0. -1.
<mgrwt>
<rscale>  0 0.24875905E+04</rscale>
<asrwt>0</asrwt>
<pdfrwt beam="1">  1        1 0.42730155E+00 0.24875905E+04</pdfrwt>
<pdfrwt beam="2">  1       -1 0.85691271E-01 0.24875905E+04</pdfrwt>
<totfact> 0.10343979E+00</totfact>
</mgrwt>
</event>
<event>
 6    1  0.9562506E-007  0.2189125E+04  0.7818608E-02  0.8522968E-01
         -4   -1    0    0    0  501 -0.00000000000E+00  0.00000000000E+00  0.88127235806E+03  0.88127235806E+03  0.00000000000E+00 0.  1.
          4   -1    0    0  501    0  0.00000000000E+00 -0.00000000000E+00 -0.13594747254E+04  0.13594747254E+04  0.00000000000E+00 0. -1.
         23    2    1    2    0    0  0.28347874666E+02 -0.25555768661E+03 -0.13265894240E+04  0.13542517755E+04  0.89694137840E+02 0.  0.
         13    1    3    3    0    0 -0.28689003106E+02 -0.96882129045E+02 -0.59184513947E+03  0.60040809034E+03  0.00000000000E+00 0. -1.
        -13    1    3    3    0    0  0.57036877772E+02 -0.15867555756E+03 -0.73474428453E+03  0.75384368515E+03  0.00000000000E+00 0.  1.
         22    1    1    2    0    0 -0.28347874666E+02  0.25555768661E+03  0.84838705665E+03  0.88649530798E+03  0.00000000000E+00 0.  1.
<mgrwt>
<rscale>  0 0.21891254E+04</rscale>
<asrwt>0</asrwt>
<pdfrwt beam="1">  1        4 0.20914996E+00 0.21891254E+04</pdfrwt>
<pdfrwt beam="2">  1       -4 0.13558036E+00 0.21891254E+04</pdfrwt>
<totfact> 0.81405180E-02</totfact>
</mgrwt>
</event>
<event>
 6    1  0.9562506E-007  0.3219310E+04  0.7818608E-02  0.8183736E-01
          2   -1    0    0  501    0  0.00000000000E+00  0.00000000000E+00  0.19011536485E+04  0.19011536485E+04  0.00000000000E+00 0. -1.
         -2   -1    0    0    0  501 -0.00000000000E+00 -0.00000000000E+00 -0.13628514279E+04  0.13628514279E+04  0.00000000000E+00 0.  1.
         23    2    1    2    0    0  0.10374881811E+04 -0.28203452843E+03 -0.94357364117E+03  0.14331907028E+04  0.88199619896E+02 0.  0.
         11    1    3    3    0    0  0.63766670772E+03 -0.17612576945E+03 -0.63676666076E+03  0.91821070406E+03  0.00000000000E+00 0. -1.
        -11    1    3    3    0    0  0.39982147342E+03 -0.10590875898E+03 -0.30680698041E+03  0.51497999870E+03  0.00000000000E+00 0.  1.
         22    1    1    2    0    0 -0.10374881811E+04  0.28203452843E+03  0.14818758617E+04  0.18308143736E+04  0.00000000000E+00 0. -1.
<mgrwt>
<rscale>  0 0.32193105E+04</rscale>
<asrwt>0</asrwt>
<pdfrwt beam="1">  1        2 0.29248518E+00 0.32193105E+04</pdfrwt>
<pdfrwt beam="2">  1       -2 0.20966945E+00 0.32193105E+04</pdfrwt>
<totfact> 0.73360008E-01</totfact>
</mgrwt>
</event>
<event>
 6    1  0.9562506E-007  0.2148774E+04  0.7818608E-02  0.8540057E-01
          2   -1    0    0  501    0  0.00000000000E+00  0.00000000000E+00  0.15251079831E+04  0.15251079831E+04  0.00000000000E+00 0. -1.
         -2   -1    0    0    0  501 -0.00000000000E+00 -0.00000000000E+00 -0.75686918245E+03  0.75686918245E+03  0.00000000000E+00 0.  1.
         23    2    1    2    0    0 -0.38412924387E+03  0.51856095283E+03 -0.52513481074E+03  0.83654434578E+03  0.87058228832E+02 0.  0.
         11    1    3    3    0    0 -0.19477040960E+03  0.22012338963E+03 -0.28375398936E+03  0.40854148577E+03  0.00000000000E+00 0. -1.
        -11    1    3    3    0    0 -0.18935883427E+03  0.29843756320E+03 -0.24138082138E+03  0.42800286001E+03  0.00000000000E+00 0.  1.
         22    1    1    2    0    0  0.38412924387E+03 -0.51856095283E+03  0.12933736113E+04  0.14454328197E+04  0.00000000000E+00 0. -1.
<mgrwt>
<rscale>  0 0.21487738E+04</rscale>
<asrwt>0</asrwt>
<pdfrwt beam="1">  1        2 0.23463200E+00 0.21487738E+04</pdfrwt>
<pdfrwt beam="2">  1       -2 0.11644141E+00 0.21487738E+04</pdfrwt>
<totfact> 0.64510746E+00</totfact>
</mgrwt>
</event>
<event>
 6    1  0.9562506E-007  0.1673396E+04  0.7818608E-02  0.8776685E-01
          1   -1    0    0  501    0  0.00000000000E+00  0.00000000000E+00  0.98219562624E+03  0.98219562624E+03  0.00000000000E+00 0. -1.
         -1   -1    0    0    0  501 -0.00000000000E+00 -0.00000000000E+00 -0.71275332724E+03  0.71275332724E+03  0.00000000000E+00 0.  1.
         23    2    1    2    0    0 -0.82457769518E+03  0.11767376206E+03  0.17489741919E+03  0.85666843720E+03  0.97551086088E+02 0.  0.
         13    1    3    3    0    0 -0.68170601998E+03  0.82799717363E+02  0.10821295288E+03  0.69518985467E+03  0.00000000000E+00 0. -1.
        -13    1    3    3    0    0 -0.14287167520E+03  0.34874044700E+02  0.66684466316E+02  0.16147858253E+03  0.00000000000E+00 0.  1.
         22    1    1    2    0    0  0.82457769518E+03 -0.11767376206E+03  0.94544879812E+02  0.83828051627E+03  0.00000000000E+00 0.  1.
<mgrwt>
<rscale>  0 0.16733956E+04</rscale>
<asrwt>0</asrwt>
<pdfrwt beam="1">  1        1 0.15110702E+00 0.16733956E+04</pdfrwt>
<pdfrwt beam="2">  1       -1 0.10965436E+00 0.16733956E+04</pdfrwt>
<totfact> 0.11461546E+01</totfact>
</mgrwt>
</event>
<event>
 6    1  0.9562506E-007  0.1392030E+04  0.7818608E-02  0.8959608E-01
          1   -1    0    0  501    0  0.00000000000E+00  0.00000000000E+00  0.69132885273E+03  0.69132885273E+03  0.00000000000E+00 0. -1.
         -1   -1    0    0    0  501 -0.00000000000E+00 -0.00000000000E+00 -0.70073319097E+03  0.70073319097E+03  0.00000000000E+00 0.  1.
         23    2    1    2    0    0  0.24520384456E+03 -0.18434473032E+03  0.61649550366E+03  0.69502652303E+03  0.94272247743E+02 0.  0.
         11    1    3    3    0    0  0.11797174912E+03 -0.34467773516E+02  0.26962674633E+03  0.29631730179E+03  0.00000000000E+00 0.  1.
        -11    1    3    3    0    0  0.12723209544E+03 -0.14987695680E+03  0.34686875733E+03  0.39870922124E+03  0.00000000000E+00 0. -1.
         22    1    1    2    0    0 -0.24520384456E+03  0.18434473032E+03 -0.62589984190E+03  0.69703552067E+03  0.00000000000E+00 0.  1.
<mgrwt>
<rscale>  0 0.13920303E+04</rscale>
<asrwt>0</asrwt>
<pdfrwt beam="1">  1        1 0.10635828E+00 0.13920303E+04</pdfrwt>
<pdfrwt beam="2">  1       -1 0.10780511E+00 0.13920303E+04</pdfrwt>
<totfact> 0.21691004E+01</totfact>
</mgrwt>
</event>
<event>
 6    1  0.9562506E-007  0.1950972E+04  0.7818608E-02  0.8629892E-01
          2   -1    0    0  501    0  0.00000000000E+00  0.00000000000E+00  0.27483748745E+04  0.27483748745E+04  0.00000000000E+00 0. -1.
         -2   -1    0    0    0  501 -0.00000000000E+00 -0.00000000000E+00 -0.34623130061E+03  0.34623130061E+03  0.00000000000E+00 0.  1.
         23    2    1    2    0    0 -0.46399793510E+03 -0.73757635883E+03  0.51596416535E+03  0.10168704532E+04  0.92160348329E+02 0.  0.
         11    1    3    3    0    0 -0.10769712002E+03 -0.25075718313E+03  0.15510330862E+03  0.31390264557E+03  0.00000000000E+00 0.  1.
        -11    1    3    3    0    0 -0.35630081508E+03 -0.48681917570E+03  0.36086085673E+03  0.70296780764E+03  0.00000000000E+00 0. -1.
         22    1    1    2    0    0  0.46399793510E+03  0.73757635883E+03  0.18861794085E+04  0.20777357219E+04  0.00000000000E+00 0. -1.
<mgrwt>
<rscale>  0 0.19509725E+04</rscale>
<asrwt>0</asrwt>
<pdfrwt beam="1">  1        2 0.42282689E+00 0.19509725E+04</pdfrwt>
<pdfrwt beam="2">  1       -2 0.53266356E-01 0.19509725E+04</pdfrwt>
<totfact> 0.77109240E+00</totfact>
</mgrwt>
</event>
<event>
 6    1  0.9562506E-007  0.6908070E+03  0.7818608E-02  0.9733084E-01
          2   -1    0    0  501    0  0.00000000000E+00  0.00000000000E+00  0.47214008541E+03  0.47214008541E+03  0.00000000000E+00 0. -1.
         -2   -1    0    0    0  501 -0.00000000000E+00 -0.00000000000E+00 -0.25268682143E+03  0.25268682143E+03  0.00000000000E+00 0.  1.
         23    2    1    2    0    0 -0.14593813657E+03 -0.30431794111E+03  0.14801220941E+03  0.37984694617E+03  0.92025753964E+02 0.  0.
         11    1    3    3    0    0  0.64396026806E+01 -0.45671903891E+02  0.39228939688E+02  0.60549987587E+02  0.00000000000E+00 0. -1.
        -11    1    3    3    0    0 -0.15237773925E+03 -0.25864603722E+03  0.10878326972E+03  0.31929695858E+03  0.00000000000E+00 0.  1.
         22    1    1    2    0    0  0.14593813657E+03  0.30431794111E+03  0.71441054567E+02  0.34497996067E+03  0.00000000000E+00 0. -1.
<mgrwt>
<rscale>  0 0.69080700E+03</rscale>
<asrwt>0</asrwt>
<pdfrwt beam="1">  1        2 0.72636936E-01 0.69080700E+03</pdfrwt>
<pdfrwt beam="2">  1       -2 0.38874896E-01 0.69080700E+03</pdfrwt>
<totfact> 0.41479477E+02</totfact>
</mgrwt>
</event>
<event>
 6    1  0.9562506E-007  0.4542413E+04  0.7818608E-02  0.7903253E-01
         -1   -1    0    0    0  501 -0.00000000000E+00  0.00000000000E+00  0.14485382898E+04  0.14485382898E+04  0.00000000000E+00 0.  1.
          1   -1    0    0  501    0  0.00000000000E+00 -0.00000000000E+00 -0.35610928215E+04  0.35610928215E+04  0.00000000000E+00 0. -1.
         23    2    1    2    0    0 -0.33303530499E+03  0.22376391820E+04 -0.85412550730E+03  0.24208890939E+04  0.11503042888E+03 0.  0.
         11    1    3    3    0    0 -0.79067562472E+02  0.75901116317E+03 -0.24243842051E+03  0.80070344885E+03  0.00000000000E+00 0.  1.
        -11    1    3    3    0    0 -0.25396774252E+03  0.14786280188E+04 -0.61168708679E+03  0.16201856450E+04  0.00000000000E+00 0. -1.
         22    1    1    2    0    0  0.33303530499E+03 -0.22376391820E+04 -0.12584290244E+04  0.25887420174E+04  0.00000000000E+00 0. -1.
<mgrwt>
<rscale>  0 0.45424131E+04</rscale>
<asrwt>0</asrwt>
<pdfrwt beam="1">  1        1 0.54786043E+00 0.45424131E+04</pdfrwt>
<pdfrwt beam="2">  1       -1 0.22285205E+00 0.45424131E+04</pdfrwt>
<totfact> 0.17599762E-02</totfact>
</mgrwt>
</event>
<event>
 6    1  0.9562506E-007  0.4920388E+03  0.7818608E-02  0.1015878E+00
          1   -1    0    0  501    0  0.00000000000E+00  0.00000000000E+00  0.91608207166E+03  0.91608207166E+03  0.00000000000E+00 0. -1.
         -1   -1    0    0    0  501 -0.00000000000E+00 -0.00000000000E+00 -0.66070009224E+02  0.66070009224E+02  0.00000000000E+00 0.  1.
         23    2    1    2    0    0  0.14405130483E+03 -0.15975384380E+03  0.23703434622E+03  0.33252622732E+03  0.90090740572E+02 0.  0.
         13    1    3    3    0    0  0.10434357651E+03 -0.48481261017E+02  0.11530058095E+03  0.16288719592E+03  0.00000000000E+00 0.  1.
        -13    1    3    3    0    0  0.39707728329E+02 -0.11127258278E+03  0.12173376527E+03  0.16963903140E+03  0.00000000000E+00 0. -1.
         22    1    1    2    0    0 -0.14405130483E+03  0.15975384380E+03  0.61297771622E+03  0.64962585356E+03  0.00000000000E+00 0.  1.
<mgrwt>
<rscale>  0 0.49203882E+03</rscale>
<asrwt>0</asrwt>
<pdfrwt beam="1">  1        1 0.14093569E+00 0.49203882E+03</pdfrwt>
<pdfrwt beam="2">  1       -1 0.10164617E-01 0.49203882E+03</pdfrwt>
<totfact> 0.10981937E+03</totfact>
</mgrwt>
</event>
<event>
 6    1  0.9562506E-007  0.3683581E+04  0.7818608E-02  0.8071610E-01
          1   -1    0    0  501    0  0.00000000000E+00  0.00000000000E+00  0.37921855664E+04  0.37921855664E+04  0.00000000000E+00 0. -1.
         -1   -1    0    0    0  501 -0.00000000000E+00 -0.00000000000E+00 -0.89452163253E+03  0.89452163253E+03  0.00000000000E+00 0.  1.
         23    2    1    2    0    0  0.20006636319E+03 -0.79162107846E+03 -0.64928187147E+03  0.10469936075E+04  0.89096487142E+02 0.  0.
         13    1    3    3    0    0  0.14219289859E+03 -0.38097652718E+03 -0.31914892984E+03  0.51693130500E+03  0.00000000000E+00 0. -1.
        -13    1    3    3    0    0  0.57873464602E+02 -0.41064455128E+03 -0.33013294162E+03  0.53006230252E+03  0.00000000000E+00 0.  1.
         22    1    1    2    0    0 -0.20006636319E+03  0.79162107846E+03  0.35469458053E+04  0.36397135914E+04  0.00000000000E+00 0. -1.
<mgrwt>
<rscale>  0 0.36835809E+04</rscale>
<asrwt>0</asrwt>
<pdfrwt beam="1">  1        1 0.58341316E+00 0.36835809E+04</pdfrwt>
<pdfrwt beam="2">  1       -1 0.13761871E+00 0.36835809E+04</pdfrwt>
<totfact> 0.50841906E-02</totfact>
</mgrwt>
</event>
<event>
 6    1  0.9562506E-007  0.3246770E+04  0.7818608E-02  0.8176573E-01
         -1   -1    0    0    0  501 -0.00000000000E+00  0.00000000000E+00  0.30930176628E+04  0.30930176628E+04  0.00000000000E+00 0.  1.
          1   -1    0    0  501    0  0.00000000000E+00 -0.00000000000E+00 -0.85204133034E+03  0.85204133034E+03  0.00000000000E+00 0. -1.
         23    2    1    2    0    0 -0.13671188600E+04 -0.41971876280E+03  0.19104234586E+03  0.14455776136E+04  0.89552452664E+02 0.  0.
         11    1    3    3    0    0 -0.16656379995E+03 -0.81070833824E+02  0.33776279704E+02  0.18829980515E+03  0.00000000000E+00 0.  1.
        -11    1    3    3    0    0 -0.12005550601E+04 -0.33864792898E+03  0.15726606615E+03  0.12572778084E+04  0.00000000000E+00 0. -1.
         22    1    1    2    0    0  0.13671188600E+04  0.41971876280E+03  0.20499339866E+04  0.24994813796E+04  0.00000000000E+00 0.  1.
<mgrwt>
<rscale>  0 0.32467700E+04</rscale>
<asrwt>0</asrwt>
<pdfrwt beam="1">  1        1 0.13108328E+00 0.32467700E+04</pdfrwt>
<pdfrwt beam="2">  1       -1 0.47584886E+00 0.32467700E+04</pdfrwt>
<totfact> 0.35755868E-02</totfact>
</mgrwt>
</event>
<event>
 6    1  0.9562506E-007  0.3472204E+04  0.7818608E-02  0.8120409E-01
         -2   -1    0    0    0  501 -0.00000000000E+00  0.00000000000E+00  0.91534654792E+03  0.91534654792E+03  0.00000000000E+00 0.  1.
          2   -1    0    0  501    0  0.00000000000E+00 -0.00000000000E+00 -0.32927974667E+04  0.32927974667E+04  0.00000000000E+00 0. -1.
         23    2    1    2    0    0  0.10036919582E+04 -0.53769206664E+03 -0.27759264767E+04  0.30017887288E+04  0.91964465756E+02 0.  0.
         13    1    3    3    0    0  0.28700359294E+03 -0.11394233717E+03 -0.80697461754E+03  0.86403816577E+03  0.00000000000E+00 0. -1.
        -13    1    3    3    0    0  0.71668836521E+03 -0.42374972948E+03 -0.19689518591E+04  0.21377505630E+04  0.00000000000E+00 0.  1.
         22    1    1    2    0    0 -0.10036919582E+04  0.53769206664E+03  0.39847555790E+03  0.12063552858E+04  0.00000000000E+00 0.  1.
<mgrwt>
<rscale>  0 0.34722044E+04</rscale>
<asrwt>0</asrwt>
<pdfrwt beam="1">  1        2 0.50658423E+00 0.34722044E+04</pdfrwt>
<pdfrwt beam="2">  1       -2 0.14082254E+00 0.34722044E+04</pdfrwt>
<totfact> 0.32770374E-01</totfact>
</mgrwt>
</event>
<event>
 6    1  0.9562506E-007  0.4348098E+04  0.7818608E-02  0.7937784E-01
         -2   -1    0    0    0  501 -0.00000000000E+00  0.00000000000E+00  0.16839204994E+04  0.16839204994E+04  0.00000000000E+00 0.  1.
          2   -1    0    0  501    0  0.00000000000E+00 -0.00000000000E+00 -0.28068359056E+04  0.28068359056E+04  0.00000000000E+00 0. -1.
         23    2    1    2    0    0 -0.80364217948E+03 -0.16982985155E+04 -0.16896875809E+04  0.25282862019E+04  0.84429837453E+02 0.  0.
         11    1    3    3    0    0 -0.48298326750E+03 -0.10377049145E+04 -0.10834791020E+04  0.15760809911E+04  0.00000000000E+00 0.  1.
        -11    1    3    3    0    0 -0.32065891199E+03 -0.66059360097E+03 -0.60620847892E+03  0.95220521076E+03  0.00000000000E+00 0. -1.
         22    1    1    2    0    0  0.80364217948E+03  0.16982985155E+04  0.56677217473E+03  0.19624702032E+04  0.00000000000E+00 0. -1.
<mgrwt>
<rscale>  0 0.43480978E+04</rscale>
<asrwt>0</asrwt>
<pdfrwt beam="1">  1        2 0.43182091E+00 0.43480978E+04</pdfrwt>
<pdfrwt beam="2">  1       -2 0.25906469E+00 0.43480978E+04</pdfrwt>
<totfact> 0.99299342E-02</totfact>
</mgrwt>
</event>
<event>
 6    1  0.9562506E-007  0.1600944E+04  0.7818608E-02  0.8819968E-01
         -2   -1    0    0    0  501 -0.00000000000E+00  0.00000000000E+00  0.40343562814E+03  0.40343562814E+03  0.00000000000E+00 0.  1.
          2   -1    0    0  501    0  0.00000000000E+00 -0.00000000000E+00 -0.15882464512E+04  0.15882464512E+04  0.00000000000E+00 0. -1.
         23    2    1    2    0    0  0.70865667673E+03 -0.28378725715E+03 -0.88329592653E+03  0.11709258880E+04  0.90145707771E+02 0.  0.
         11    1    3    3    0    0  0.12550158041E+03 -0.14741142341E+02 -0.13902490979E+03  0.18787196040E+03  0.00000000000E+00 0. -1.
        -11    1    3    3    0    0  0.58315509631E+03 -0.26904611481E+03 -0.74427101674E+03  0.98305392762E+03  0.00000000000E+00 0.  1.
         22    1    1    2    0    0 -0.70865667673E+03  0.28378725715E+03 -0.30151489657E+03  0.82075619135E+03  0.00000000000E+00 0.  1.
<mgrwt>
<rscale>  0 0.16009437E+04</rscale>
<asrwt>0</asrwt>
<pdfrwt beam="1">  1        2 0.24434561E+00 0.16009437E+04</pdfrwt>
<pdfrwt beam="2">  1       -2 0.62067019E-01 0.16009437E+04</pdfrwt>
<totfact> 0.26162302E+01</totfact>
</mgrwt>
</event>
<event>
 6    1  0.9562506E-007  0.3932604E+04  0.7818608E-02  0.8018282E-01
          2   -1    0    0  501    0  0.00000000000E+00  0.00000000000E+00  0.33565591429E+04  0.33565591429E+04  0.00000000000E+00 0. -1.
         -2   -1    0    0    0  501 -0.00000000000E+00 -0.00000000000E+00 -0.11518772077E+04  0.11518772077E+04  0.00000000000E+00 0.  1.
         23    2    1    2    0    0 -0.17261294262E+04 -0.73285610364E+03  0.42904500772E+03  0.19259012855E+04  0.91734826575E+02 0.  0.
         13    1    3    3    0    0 -0.70565704037E+03 -0.32913871827E+03  0.21516396378E+03  0.80782404384E+03  0.00000000000E+00 0. -1.
        -13    1    3    3    0    0 -0.10204723858E+04 -0.40371738538E+03  0.21388104394E+03  0.11180772417E+04  0.00000000000E+00 0.  1.
         22    1    1    2    0    0  0.17261294262E+04  0.73285610364E+03  0.17756369275E+04  0.25825350651E+04  0.00000000000E+00 0. -1.
<mgrwt>
<rscale>  0 0.39326042E+04</rscale>
<asrwt>0</asrwt>
<pdfrwt beam="1">  1        2 0.51639371E+00 0.39326042E+04</pdfrwt>
<pdfrwt beam="2">  1       -2 0.17721188E+00 0.39326042E+04</pdfrwt>
<totfact> 0.15325129E-01</totfact>
</mgrwt>
</event>
<event>
 6    1  0.9562506E-007  0.1283663E+04  0.7818608E-02  0.9042622E-01
          2   -1    0    0  501    0  0.00000000000E+00  0.00000000000E+00  0.32842215111E+04  0.32842215111E+04  0.00000000000E+00 0. -1.
         -2   -1    0    0    0  501 -0.00000000000E+00 -0.00000000000E+00 -0.12543233625E+03  0.12543233625E+03  0.00000000000E+00 0.  1.
         23    2    1    2    0    0 -0.16325398029E+03  0.47602013380E+03  0.54206874285E+03  0.74498260138E+03  0.88957993038E+02 0.  0.
         11    1    3    3    0    0 -0.10696083166E+03  0.19593595585E+03  0.20437902176E+03  0.30265872338E+03  0.00000000000E+00 0. -1.
        -11    1    3    3    0    0 -0.56293148636E+02  0.28008417796E+03  0.33768972109E+03  0.44232387800E+03  0.00000000000E+00 0.  1.
         22    1    1    2    0    0  0.16325398029E+03 -0.47602013380E+03  0.26167204320E+04  0.26646712459E+04  0.00000000000E+00 0. -1.
<mgrwt>
<rscale>  0 0.12836628E+04</rscale>
<asrwt>0</asrwt>
<pdfrwt beam="1">  1        2 0.50526478E+00 0.12836628E+04</pdfrwt>
<pdfrwt beam="2">  1       -2 0.19297285E-01 0.12836628E+04</pdfrwt>
<totfact> 0.25923371E+01</totfact>
</mgrwt>
</event>
<event>
 6    1  0.9562506E-007  0.3413771E+04  0.7818608E-02  0.8134535E-01
          1   -1    0    0  501    0  0.00000000000E+00  0.00000000000E+00  0.30223080076E+04  0.30223080076E+04  0.00000000000E+00 0. -1.
         -1   -1    0    0    0  501 -0.00000000000E+00 -0.00000000000E+00 -0.96398452167E+03  0.96398452167E+03  0.00000000000E+00 0.  1.
         23    2    1    2    0    0 -0.92823081603E+03  0.25246955582E+03 -0.61487384520E+03  0.11452826216E+04  0.90824629349E+02 0.  0.
         11    1    3    3    0    0 -0.83276397337E+03  0.21744474705E+03 -0.51633795340E+03  0.10036846793E+04  0.00000000000E+00 0. -1.
        -11    1    3    3    0    0 -0.95466842666E+02  0.35024808772E+02 -0.98535891803E+02  0.14159794226E+03  0.00000000000E+00 0.  1.
         22    1    1    2    0    0  0.92823081603E+03 -0.25246955582E+03  0.26731973311E+04  0.28410099077E+04  0.00000000000E+00 0. -1.
<mgrwt>
<rscale>  0 0.34137710E+04</rscale>
<asrwt>0</asrwt>
<pdfrwt beam="1">  1        1 0.46497046E+00 0.34137710E+04</pdfrwt>
<pdfrwt beam="2">  1       -1 0.14830531E+00 0.34137710E+04</pdfrwt>
<totfact> 0.17004762E-01</totfact>
</mgrwt>
</event>
<event>
 6    1  0.9562506E-007  0.3571722E+04  0.7818608E-02  0.8097000E-01
         -1   -1    0    0    0  501 -0.00000000000E+00  0.00000000000E+00  0.11381445029E+04  0.11381445029E+04  0.00000000000E+00 0.  1.
          1   -1    0    0  501    0  0.00000000000E+00 -0.00000000000E+00 -0.28021916363E+04  0.28021916363E+04  0.00000000000E+00 0. -1.
         23    2    1    2    0    0  0.21391549684E+03 -0.15890336951E+04 -0.16975791961E+04  0.23366178587E+04  0.84970385593E+02 0.  0.
         13    1    3    3    0    0  0.24634545994E+02 -0.40905479090E+03 -0.40255646084E+03  0.57444267510E+03  0.00000000000E+00 0.  1.
        -13    1    3    3    0    0  0.18928095085E+03 -0.11799789042E+04 -0.12950227352E+04  0.17621751836E+04  0.00000000000E+00 0. -1.
         22    1    1    2    0    0 -0.21391549684E+03  0.15890336951E+04  0.33532062626E+02  0.16037182805E+04  0.00000000000E+00 0.  1.
<mgrwt>
<rscale>  0 0.35717217E+04</rscale>
<asrwt>0</asrwt>
<pdfrwt beam="1">  1        1 0.43110640E+00 0.35717217E+04</pdfrwt>
<pdfrwt beam="2">  1       -1 0.17509916E+00 0.35717217E+04</pdfrwt>
<totfact> 0.15199839E-01</totfact>
</mgrwt>
</event>
<event>
 6    1  0.9562506E-007  0.8560343E+03  0.7818608E-02  0.9482274E-01
          2   -1    0    0  501    0  0.00000000000E+00  0.00000000000E+00  0.34447657904E+04  0.34447657904E+04  0.00000000000E+00 0. -1.
         -2   -1    0    0    0  501 -0.00000000000E+00 -0.00000000000E+00 -0.53181746260E+02  0.53181746260E+02  0.00000000000E+00 0.  1.
         23    2    1    2    0    0  0.50352110770E+02  0.33703989538E+03  0.27403648370E+04  0.27629525149E+04  0.90420871962E+02 0.  0.
         13    1    3    3    0    0 -0.12918457451E+02  0.20648496144E+03  0.15303318272E+04  0.15442533559E+04  0.00000000000E+00 0.  1.
        -13    1    3    3    0    0  0.63270568222E+02  0.13055493394E+03  0.12100330098E+04  0.12186991591E+04  0.00000000000E+00 0. -1.
         22    1    1    2    0    0 -0.50352110770E+02 -0.33703989538E+03  0.65121920718E+03  0.73499502171E+03  0.00000000000E+00 0.  1.
<mgrwt>
<rscale>  0 0.85603425E+03</rscale>
<asrwt>0</asrwt>
<pdfrwt beam="1">  1        2 0.52996379E+00 0.85603425E+03</pdfrwt>
<pdfrwt beam="2">  1       -2 0.81818098E-02 0.85603425E+03</pdfrwt>
<totfact> 0.89254480E+01</totfact>
</mgrwt>
</event>
<event>
 6    1  0.9562506E-007  0.9453241E+03  0.7818608E-02  0.9370633E-01
         -1   -1    0    0    0  501 -0.00000000000E+00  0.00000000000E+00  0.86698890222E+03  0.86698890222E+03  0.00000000000E+00 0.  1.
          1   -1    0    0  501    0  0.00000000000E+00 -0.00000000000E+00 -0.25768426008E+03  0.25768426008E+03  0.00000000000E+00 0. -1.
         23    2    1    2    0    0 -0.35741420718E+03 -0.14064836020E+03  0.62611217290E+03  0.74021332069E+03  0.91500985525E+02 0.  0.
         13    1    3    3    0    0 -0.27237878080E+03 -0.12474730993E+03  0.54347090368E+03  0.62057450375E+03  0.00000000000E+00 0. -1.
        -13    1    3    3    0    0 -0.85035426381E+02 -0.15901050276E+02  0.82641269225E+02  0.11963881694E+03  0.00000000000E+00 0.  1.
         22    1    1    2    0    0  0.35741420718E+03  0.14064836020E+03 -0.16807530754E+02  0.38445984161E+03  0.00000000000E+00 0. -1.
<mgrwt>
<rscale>  0 0.94532406E+03</rscale>
<asrwt>0</asrwt>
<pdfrwt beam="1">  1        1 0.39643733E-01 0.94532406E+03</pdfrwt>
<pdfrwt beam="2">  1       -1 0.13338291E+00 0.94532406E+03</pdfrwt>
<totfact> 0.51097539E+01</totfact>
</mgrwt>
</event>
<event>
 6    1  0.9562506E-007  0.2735281E+04  0.7818608E-02  0.8323647E-01
         -2   -1    0    0    0  501 -0.00000000000E+00  0.00000000000E+00  0.84554251509E+03  0.84554251509E+03  0.00000000000E+00 0.  1.
          2   -1    0    0  501    0  0.00000000000E+00 -0.00000000000E+00 -0.22121196402E+04  0.22121196402E+04  0.00000000000E+00 0. -1.
         23    2    1    2    0    0 -0.13274793979E+04 -0.32269724627E+03 -0.67967951425E+03  0.15285567330E+04  0.90478612628E+02 0.  0.
         11    1    3    3    0    0 -0.88462184585E+03 -0.25683754020E+03 -0.47107479512E+03  0.10346172214E+04  0.00000000000E+00 0.  1.
        -11    1    3    3    0    0 -0.44285755207E+03 -0.65859706070E+02 -0.20860471914E+03  0.49393951164E+03  0.00000000000E+00 0. -1.
         22    1    1    2    0    0  0.13274793979E+04  0.32269724627E+03 -0.68689761087E+03  0.15291054223E+04  0.00000000000E+00 0. -1.
<mgrwt>
<rscale>  0 0.27352815E+04</rscale>
<asrwt>0</asrwt>
<pdfrwt beam="1">  1        2 0.34032610E+00 0.27352815E+04</pdfrwt>
<pdfrwt beam="2">  1       -2 0.13008346E+00 0.27352815E+04</pdfrwt>
<totfact> 0.19279352E+00</totfact>
</mgrwt>
</event>
<event>
 6    1  0.9562506E-007  0.9502789E+03  0.7818608E-02  0.9364825E-01
         -2   -1    0    0    0  501 -0.00000000000E+00  0.00000000000E+00  0.16430023640E+03  0.16430023640E+03  0.00000000000E+00 0.  1.
          2   -1    0    0  501    0  0.00000000000E+00 -0.00000000000E+00 -0.13740545558E+04  0.13740545558E+04  0.00000000000E+00 0. -1.
         23    2    1    2    0    0  0.16995934018E+03 -0.41094435523E+03 -0.85938619038E+03  0.97221058246E+03  0.94272753324E+02 0.  0.
         13    1    3    3    0    0  0.54823307694E+02 -0.53007308072E+02 -0.11087238228E+03  0.13456617304E+03  0.00000000000E+00 0. -1.
        -13    1    3    3    0    0  0.11513603248E+03 -0.35793704716E+03 -0.74851380810E+03  0.83764440942E+03  0.00000000000E+00 0.  1.
         22    1    1    2    0    0 -0.16995934018E+03  0.41094435523E+03 -0.35036812907E+03  0.56614420979E+03  0.00000000000E+00 0. -1.
<mgrwt>
<rscale>  0 0.95027888E+03</rscale>
<asrwt>0</asrwt>
<pdfrwt beam="1">  1        2 0.21139302E+00 0.95027888E+03</pdfrwt>
<pdfrwt beam="2">  1       -2 0.25276959E-01 0.95027888E+03</pdfrwt>
<totfact> 0.21047338E+02</totfact>
</mgrwt>
</event>
<event>
 6    1  0.9562506E-007  0.2520596E+04  0.7818608E-02  0.8395685E-01
          2   -1    0    0  501    0  0.00000000000E+00  0.00000000000E+00  0.16663548072E+04  0.16663548072E+04  0.00000000000E+00 0. -1.
         -2   -1    0    0    0  501 -0.00000000000E+00 -0.00000000000E+00 -0.95318875761E+03  0.95318875761E+03  0.00000000000E+00 0.  1.
         23    2    1    2    0    0  0.71552030093E+03 -0.45387576480E+03  0.13242840504E+04  0.15748245970E+04  0.91497289644E+02 0.  0.
         11    1    3    3    0    0  0.98780021010E+02 -0.93330555803E+02  0.25297185041E+03  0.28716344178E+03  0.00000000000E+00 0. -1.
        -11    1    3    3    0    0  0.61674027992E+03 -0.36054520899E+03  0.10713122000E+04  0.12876611552E+04  0.00000000000E+00 0.  1.
         22    1    1    2    0    0 -0.71552030093E+03  0.45387576480E+03 -0.61111800082E+03  0.10447189679E+04  0.00000000000E+00 0.  1.
<mgrwt>
<rscale>  0 0.25205957E+04</rscale>
<asrwt>0</asrwt>
<pdfrwt beam="1">  1        2 0.25636228E+00 0.25205957E+04</pdfrwt>
<pdfrwt beam="2">  1       -2 0.14664442E+00 0.25205957E+04</pdfrwt>
<totfact> 0.29005057E+00</totfact>
</mgrwt>
</event>
<event>
 6    1  0.9562506E-007  0.1952023E+04  0.7818608E-02  0.8629386E-01
          1   -1    0    0  501    0  0.00000000000E+00  0.00000000000E+00  0.16586574504E+04  0.16586574504E+04  0.00000000000E+00 0. -1.
         -1   -1    0    0    0  501 -0.00000000000E+00 -0.00000000000E+00 -0.57431896620E+03  0.57431896620E+03  0.00000000000E+00 0.  1.
         23    2    1    2    0    0  0.82423046814E+03  0.43606901060E+03  0.86417518782E+03  0.12748616408E+04  0.94664678003E+02 0.  0.
         11    1    3    3    0    0  0.19636343300E+03  0.11900909058E+03  0.16219343869E+03  0.28112003311E+03  0.00000000000E+00 0.  1.
        -11    1    3    3    0    0  0.62786703514E+03  0.31705992002E+03  0.70198174913E+03  0.99374160767E+03  0.00000000000E+00 0. -1.
         22    1    1    2    0    0 -0.82423046814E+03 -0.43606901060E+03  0.22016329640E+03  0.95811477584E+03  0.00000000000E+00 0.  1.
<mgrwt>
<rscale>  0 0.19520230E+04</rscale>
<asrwt>0</asrwt>
<pdfrwt beam="1">  1        1 0.25517807E+00 0.19520230E+04</pdfrwt>
<pdfrwt beam="2">  1       -1 0.88356765E-01 0.19520230E+04</pdfrwt>
<totfact> 0.59597883E+00</totfact>
</mgrwt>
</event>
<event>
 6    1  0.9562506E-007  0.4245899E+04  0.7818608E-02  0.7956698E-01
          1   -1    0    0  501    0  0.00000000000E+00  0.00000000000E+00  0.32960439622E+04  0.32960439622E+04  0.00000000000E+00 0. -1.
         -1   -1    0    0    0  501 -0.00000000000E+00 -0.00000000000E+00 -0.13673711604E+04  0.13673711604E+04  0.00000000000E+00 0.  1.
         23    2    1    2    0    0  0.11488810414E+04 -0.26070014987E+03 -0.97365379057E+03  0.15311009839E+04  0.91522147036E+02 0.  0.
         13    1    3    3    0    0  0.90339210582E+03 -0.17983265715E+03 -0.72199133387E+03  0.11703540352E+04  0.00000000000E+00 0. -1.
        -13    1    3    3    0    0  0.24548893561E+03 -0.80867492722E+02 -0.25166245670E+03  0.36074694870E+03  0.00000000000E+00 0.  1.
         22    1    1    2    0    0 -0.11488810414E+04  0.26070014987E+03  0.29023265924E+04  0.31323141388E+04  0.00000000000E+00 0. -1.
<mgrwt>
<rscale>  0 0.42458994E+04</rscale>
<asrwt>0</asrwt>
<pdfrwt beam="1">  1        1 0.50708369E+00 0.42458994E+04</pdfrwt>
<pdfrwt beam="2">  1       -1 0.21036479E+00 0.42458994E+04</pdfrwt>
<totfact> 0.35230237E-02</totfact>
</mgrwt>
</event>
<event>
 6    1  0.9562506E-007  0.6154774E+04  0.7818608E-02  0.7671502E-01
          2   -1    0    0  501    0  0.00000000000E+00  0.00000000000E+00  0.34346338580E+04  0.34346338580E+04  0.00000000000E+00 0. -1.
         -2   -1    0    0    0  501 -0.00000000000E+00 -0.00000000000E+00 -0.27572982694E+04  0.27572982694E+04  0.00000000000E+00 0.  1.
         23    2    1    2    0    0  0.26364796078E+04  0.90494907991E+03 -0.97151432591E+03  0.29533114951E+04  0.90835794622E+02 0.  0.
         11    1    3    3    0    0  0.77271161112E+03  0.22595920078E+03 -0.26172525701E+03  0.84654645740E+03  0.00000000000E+00 0. -1.
        -11    1    3    3    0    0  0.18637679967E+04  0.67898987913E+03 -0.70978906891E+03  0.21067650377E+04  0.00000000000E+00 0.  1.
         22    1    1    2    0    0 -0.26364796078E+04 -0.90494907991E+03  0.16488499145E+04  0.32386206324E+04  0.00000000000E+00 0.  1.
<mgrwt>
<rscale>  0 0.61547738E+04</rscale>
<asrwt>0</asrwt>
<pdfrwt beam="1">  1        2 0.52840521E+00 0.61547738E+04</pdfrwt>
<pdfrwt beam="2">  1       -2 0.42419973E+00 0.61547738E+04</pdfrwt>
<totfact> 0.30907568E-03</totfact>
</mgrwt>
</event>
<event>
 6    1  0.9562506E-007  0.1352737E+04  0.7818608E-02  0.8988759E-01
         -2   -1    0    0    0  501 -0.00000000000E+00  0.00000000000E+00  0.16086072659E+03  0.16086072659E+03  0.00000000000E+00 0.  1.
          2   -1    0    0  501    0  0.00000000000E+00 -0.00000000000E+00 -0.28439165895E+04  0.28439165895E+04  0.00000000000E+00 0. -1.
         23    2    1    2    0    0  0.60829849761E+02  0.60984282767E+03 -0.72845241612E+03  0.95634299220E+03  0.91326070215E+02 0.  0.
         13    1    3    3    0    0  0.30023836097E+02  0.38681472411E+03 -0.52564848352E+03  0.65332487305E+03  0.00000000000E+00 0.  1.
        -13    1    3    3    0    0  0.30806013664E+02  0.22302810355E+03 -0.20280393260E+03  0.30301811915E+03  0.00000000000E+00 0. -1.
         22    1    1    2    0    0 -0.60829849761E+02 -0.60984282767E+03 -0.19546034468E+04  0.20484343239E+04  0.00000000000E+00 0. -1.
<mgrwt>
<rscale>  0 0.13527372E+04</rscale>
<asrwt>0</asrwt>
<pdfrwt beam="1">  1        2 0.43752564E+00 0.13527372E+04</pdfrwt>
<pdfrwt beam="2">  1       -2 0.24747803E-01 0.13527372E+04</pdfrwt>
<totfact> 0.31281293E+01</totfact>
</mgrwt>
</event>
<event>
 6    1  0.9562506E-007  0.4339425E+04  0.7818608E-02  0.7939368E-01
         -2   -1    0    0    0  501 -0.00000000000E+00  0.00000000000E+00  0.20393187887E+04  0.20393187887E+04  0.00000000000E+00 0.  1.
          2   -1    0    0  501    0  0.00000000000E+00 -0.00000000000E+00 -0.23084435345E+04  0.23084435345E+04  0.00000000000E+00 0. -1.
         23    2    1    2    0    0 -0.14721701319E+04 -0.82856776355E+03  0.12280315366E+04  0.20904882217E+04  0.90940167257E+02 0.  0.
         11    1    3    3    0    0 -0.20969408440E+03 -0.10176565655E+03  0.20502141902E+03  0.31042171339E+03  0.00000000000E+00 0.  1.
        -11    1    3    3    0    0 -0.12624760475E+04 -0.72680210700E+03  0.10230101176E+04  0.17800665083E+04  0.00000000000E+00 0. -1.
         22    1    1    2    0    0  0.14721701319E+04  0.82856776355E+03 -0.14971562823E+04  0.22572741016E+04  0.00000000000E+00 0. -1.
<mgrwt>
<rscale>  0 0.43394250E+04</rscale>
<asrwt>0</asrwt>
<pdfrwt beam="1">  1        2 0.35514516E+00 0.43394250E+04</pdfrwt>
<pdfrwt beam="2">  1       -2 0.31374135E+00 0.43394250E+04</pdfrwt>
<totfact> 0.90072094E-02</totfact>
</mgrwt>
</event>
<event>
 6    1  0.9562506E-007  0.3057226E+04  0.7818608E-02  0.8227576E-01
          2   -1    0    0  501    0  0.00000000000E+00  0.00000000000E+00  0.26769428764E+04  0.26769428764E+04  0.00000000000E+00 0. -1.
         -2   -1    0    0    0  501 -0.00000000000E+00 -0.00000000000E+00 -0.87288316289E+03  0.87288316289E+03  0.00000000000E+00 0.  1.
         23    2    1    2    0    0  0.55457174121E+03 -0.41105799374E+03  0.24846851484E+04  0.25804089604E+04  0.91277742193E+02 0.  0.
         11    1    3    3    0    0  0.27701090258E+03 -0.15120039268E+03  0.10782401801E+04  0.11234760722E+04  0.00000000000E+00 0. -1.
        -11    1    3    3    0    0  0.27756083864E+03 -0.25985760107E+03  0.14064449683E+04  0.14569328882E+04  0.00000000000E+00 0.  1.
         22    1    1    2    0    0 -0.55457174121E+03  0.41105799374E+03 -0.68062543481E+03  0.96941707891E+03  0.00000000000E+00 0.  1.
<mgrwt>
<rscale>  0 0.30572264E+04</rscale>
<asrwt>0</asrwt>
<pdfrwt beam="1">  1        2 0.41183736E+00 0.30572264E+04</pdfrwt>
<pdfrwt beam="2">  1       -2 0.13428972E+00 0.30572264E+04</pdfrwt>
<totfact> 0.93342189E-01</totfact>
</mgrwt>
</event>
<event>
 6    1  0.9562506E-007  0.1761547E+04  0.7818608E-02  0.8727020E-01
         -1   -1    0    0    0  501 -0.00000000000E+00  0.00000000000E+00  0.22740173824E+03  0.22740173824E+03  0.00000000000E+00 0.  1.
          1   -1    0    0  501    0  0.00000000000E+00 -0.00000000000E+00 -0.34114149274E+04  0.34114149274E+04  0.00000000000E+00 0. -1.
         23    2    1    2    0    0  0.45138114357E+03  0.70775884389E+03 -0.21301008417E+04  0.22914493237E+04  0.93503420105E+02 0.  0.
         13    1    3    3    0    0  0.71696278092E+02  0.18347592056E+03 -0.47065178887E+03  0.51021257930E+03  0.00000000000E+00 0. -1.
        -13    1    3    3    0    0  0.37968486548E+03  0.52428292333E+03 -0.16594490528E+04  0.17812367444E+04  0.00000000000E+00 0.  1.
         22    1    1    2    0    0 -0.45138114357E+03 -0.70775884389E+03 -0.10539123475E+04  0.13473673419E+04  0.00000000000E+00 0. -1.
<mgrwt>
<rscale>  0 0.17615467E+04</rscale>
<asrwt>0</asrwt>
<pdfrwt beam="1">  1        1 0.52483299E+00 0.17615467E+04</pdfrwt>
<pdfrwt beam="2">  1       -1 0.34984888E-01 0.17615467E+04</pdfrwt>
<totfact> 0.21689597E+00</totfact>
</mgrwt>
</event>
<event>
 6    1  0.9562506E-007  0.2723883E+04  0.7818608E-02  0.8327297E-01
          2   -1    0    0  501    0  0.00000000000E+00  0.00000000000E+00  0.15302808601E+04  0.15302808601E+04  0.00000000000E+00 0. -1.
         -2   -1    0    0    0  501 -0.00000000000E+00 -0.00000000000E+00 -0.12121200354E+04  0.12121200354E+04  0.00000000000E+00 0.  1.
         23    2    1    2    0    0 -0.27129895107E+03 -0.12933013567E+04 -0.16676573620E+03  0.13347840124E+04  0.87212549968E+02 0.  0.
         11    1    3    3    0    0 -0.25781073833E+03 -0.10791578899E+04 -0.13052610433E+03  0.11171773324E+04  0.00000000000E+00 0.  1.
        -11    1    3    3    0    0 -0.13488212743E+02 -0.21414346681E+03 -0.36239631873E+02  0.21760668000E+03  0.00000000000E+00 0. -1.
         22    1    1    2    0    0  0.27129895107E+03  0.12933013567E+04  0.48492656089E+03  0.14076168831E+04  0.00000000000E+00 0.  1.
<mgrwt>
<rscale>  0 0.27238826E+04</rscale>
<asrwt>0</asrwt>
<pdfrwt beam="1">  1        2 0.23542783E+00 0.27238826E+04</pdfrwt>
<pdfrwt beam="2">  1       -2 0.18648000E+00 0.27238826E+04</pdfrwt>
<totfact> 0.17496578E+00</totfact>
</mgrwt>
</event>
<event>
 6    1  0.9562506E-007  0.2215755E+04  0.7818608E-02  0.8511899E-01
          2   -1    0    0  501    0  0.00000000000E+00  0.00000000000E+00  0.24179211287E+04  0.24179211287E+04  0.00000000000E+00 0. -1.
         -2   -1    0    0    0  501 -0.00000000000E+00 -0.00000000000E+00 -0.50762284877E+03  0.50762284877E+03  0.00000000000E+00 0.  1.
         23    2    1    2    0    0 -0.50848924190E+03 -0.58832904270E+03 -0.81729754505E+02  0.78711743874E+03  0.90452960150E+02 0.  0.
         11    1    3    3    0    0 -0.14611476452E+03 -0.22832522314E+03 -0.47163910408E+02  0.27514789909E+03  0.00000000000E+00 0.  1.
        -11    1    3    3    0    0 -0.36237447738E+03 -0.36000381956E+03 -0.34565844097E+02  0.51196953965E+03  0.00000000000E+00 0. -1.
         22    1    1    2    0    0  0.50848924190E+03  0.58832904270E+03  0.19920280345E+04  0.21384265388E+04  0.00000000000E+00 0. -1.
<mgrwt>
<rscale>  0 0.22157545E+04</rscale>
<asrwt>0</asrwt>
<pdfrwt beam="1">  1        2 0.37198786E+00 0.22157545E+04</pdfrwt>
<pdfrwt beam="2">  1       -2 0.78095824E-01 0.22157545E+04</pdfrwt>
<totfact> 0.51712134E+00</totfact>
</mgrwt>
</event>
<event>
 6    1  0.9562506E-007  0.3147208E+04  0.7818608E-02  0.8202900E-01
         -3   -1    0    0    0  501 -0.00000000000E+00  0.00000000000E+00  0.14067380144E+04  0.14067380144E+04  0.00000000000E+00 0.  1.
          3   -1    0    0  501    0  0.00000000000E+00 -0.00000000000E+00 -0.17602634271E+04  0.17602634271E+04  0.00000000000E+00 0. -1.
         23    2    1    2    0    0 -0.63763038926E+03  0.28447701980E+03 -0.15944855519E+04  0.17431047616E+04  0.92359875314E+02 0.  0.
         13    1    3    3    0    0 -0.10970908483E+03  0.34525853662E+02 -0.19146735963E+03  0.22335592150E+03  0.00000000000E+00 0. -1.
        -13    1    3    3    0    0 -0.52792130443E+03  0.24995116614E+03 -0.14030181923E+04  0.15197488401E+04  0.00000000000E+00 0.  1.
         22    1    1    2    0    0  0.63763038926E+03 -0.28447701980E+03  0.12409601392E+04  0.14238966799E+04  0.00000000000E+00 0.  1.
<mgrwt>
<rscale>  0 0.31472080E+04</rscale>
<asrwt>0</asrwt>
<pdfrwt beam="1">  1        3 0.27080976E+00 0.31472080E+04</pdfrwt>
<pdfrwt beam="2">  1       -3 0.21642123E+00 0.31472080E+04</pdfrwt>
<totfact> 0.14264430E-02</totfact>
</mgrwt>
</event>
<event>
 6    1  0.1105020E-006  0.2710997E+04  0.7818608E-02  0.8331446E-01
          2   -1    0    0  501    0  0.00000000000E+00  0.00000000000E+00  0.13851673256E+04  0.13851673256E+04  0.00000000000E+00 0. -1.
         -2   -1    0    0    0  501 -0.00000000000E+00 -0.00000000000E+00 -0.13264646968E+04  0.13264646968E+04  0.00000000000E+00 0.  1.
         23    2    1    2    0    0  0.54120418040E+03  0.33026833688E+03 -0.11672503283E+04  0.13314364593E+04  0.90942712765E+02 0.  0.
         11    1    3    3    0    0  0.37115491720E+03  0.17643994951E+03 -0.76676138762E+03  0.86994830530E+03  0.00000000000E+00 0. -1.
        -11    1    3    3    0    0  0.17004926320E+03  0.15382838738E+03 -0.40048894072E+03  0.46148815404E+03  0.00000000000E+00 0.  1.
         22    1    1    2    0    0 -0.54120418040E+03 -0.33026833688E+03  0.12259529571E+04  0.13801955631E+04  0.00000000000E+00 0. -1.
<mgrwt>
<rscale>  0 0.27109965E+04</rscale>
<asrwt>0</asrwt>
<pdfrwt beam="1">  1        2 0.21310267E+00 0.27109965E+04</pdfrwt>
<pdfrwt beam="2">  1       -2 0.20407149E+00 0.27109965E+04</pdfrwt>
<totfact> 0.16180863E+00</totfact>
</mgrwt>
</event>
<event>
 6    1  0.9562506E-007  0.2853197E+04  0.7818608E-02  0.8286941E-01
          2   -1    0    0  501    0  0.00000000000E+00  0.00000000000E+00  0.23755027489E+04  0.23755027489E+04  0.00000000000E+00 0. -1.
         -2   -1    0    0    0  501 -0.00000000000E+00 -0.00000000000E+00 -0.85673781931E+03  0.85673781931E+03  0.00000000000E+00 0.  1.
         23    2    1    2    0    0 -0.12208030982E+04  0.56740859803E+03  0.23039185281E+03  0.13688517450E+04  0.91443820019E+02 0.  0.
         11    1    3    3    0    0 -0.86929274772E+03  0.43631288961E+03  0.13704931019E+03  0.98225319154E+03  0.00000000000E+00 0.  1.
        -11    1    3    3    0    0 -0.35151035046E+03  0.13109570843E+03  0.93342542620E+02  0.38659855343E+03  0.00000000000E+00 0. -1.
         22    1    1    2    0    0  0.12208030982E+04 -0.56740859803E+03  0.12883730768E+04  0.18633888233E+04  0.00000000000E+00 0. -1.
<mgrwt>
<rscale>  0 0.28531968E+04</rscale>
<asrwt>0</asrwt>
<pdfrwt beam="1">  1        2 0.36546196E+00 0.28531968E+04</pdfrwt>
<pdfrwt beam="2">  1       -2 0.13180582E+00 0.28531968E+04</pdfrwt>
<totfact> 0.14915758E+00</totfact>
</mgrwt>
</event>
<event>
 6    1  0.9562506E-007  0.3301547E+04  0.7818608E-02  0.8162502E-01
          1   -1    0    0  501    0  0.00000000000E+00  0.00000000000E+00  0.19727332514E+04  0.19727332514E+04  0.00000000000E+00 0. -1.
         -1   -1    0    0    0  501 -0.00000000000E+00 -0.00000000000E+00 -0.13813588131E+04  0.13813588131E+04  0.00000000000E+00 0.  1.
         23    2    1    2    0    0  0.64864088640E+02 -0.16478456042E+04  0.25871904695E+03  0.16717537826E+04  0.90678989186E+02 0.  0.
         13    1    3    3    0    0  0.23553002129E+02 -0.77274451193E+03  0.76032445112E+02  0.77683315927E+03  0.00000000000E+00 0.  1.
        -13    1    3    3    0    0  0.41311086511E+02 -0.87510109227E+03  0.18268660184E+03  0.89492062332E+03  0.00000000000E+00 0. -1.
         22    1    1    2    0    0 -0.64864088640E+02  0.16478456042E+04  0.33265539131E+03  0.16823382819E+04  0.00000000000E+00 0. -1.
<mgrwt>
<rscale>  0 0.33015466E+04</rscale>
<asrwt>0</asrwt>
<pdfrwt beam="1">  1        1 0.30349742E+00 0.33015466E+04</pdfrwt>
<pdfrwt beam="2">  1       -1 0.21251674E+00 0.33015466E+04</pdfrwt>
<totfact> 0.31886063E-01</totfact>
</mgrwt>
</event>
<event>
 6    1  0.9562506E-007  0.3670975E+04  0.7818608E-02  0.8074425E-01
          1   -1    0    0  501    0  0.00000000000E+00  0.00000000000E+00  0.30108145879E+04  0.30108145879E+04  0.00000000000E+00 0. -1.
         -1   -1    0    0    0  501 -0.00000000000E+00 -0.00000000000E+00 -0.11189711614E+04  0.11189711614E+04  0.00000000000E+00 0.  1.
         23    2    1    2    0    0 -0.17986932815E+03 -0.21102316295E+03  0.29864396508E+04  0.30006158574E+04  0.89386716823E+02 0.  0.
         11    1    3    3    0    0 -0.12847340216E+03 -0.19281380180E+03  0.26074547600E+04  0.26177285770E+04  0.00000000000E+00 0.  1.
        -11    1    3    3    0    0 -0.51395925995E+02 -0.18209361147E+02  0.37898489078E+03  0.38288728038E+03  0.00000000000E+00 0. -1.
         22    1    1    2    0    0  0.17986932815E+03  0.21102316295E+03 -0.10945962243E+04  0.11291698919E+04  0.00000000000E+00 0.  1.
<mgrwt>
<rscale>  0 0.36709752E+04</rscale>
<asrwt>0</asrwt>
<pdfrwt beam="1">  1        1 0.46320224E+00 0.36709752E+04</pdfrwt>
<pdfrwt beam="2">  1       -1 0.17214941E+00 0.36709752E+04</pdfrwt>
<totfact> 0.11194021E-01</totfact>
</mgrwt>
</event>
<event>
 6    1  0.9562506E-007  0.2977568E+04  0.7818608E-02  0.8250166E-01
          4   -1    0    0  501    0  0.00000000000E+00  0.00000000000E+00  0.17860270497E+04  0.17860270497E+04  0.00000000000E+00 0. -1.
         -4   -1    0    0    0  501 -0.00000000000E+00 -0.00000000000E+00 -0.12410102816E+04  0.12410102816E+04  0.00000000000E+00 0.  1.
         23    2    1    2    0    0  0.55278020984E+03 -0.99202244134E+03 -0.70348432099E+03  0.13393082494E+04  0.95822296003E+02 0.  0.
         11    1    3    3    0    0  0.27305901195E+03 -0.52707188487E+03 -0.41953799764E+03  0.72689622870E+03  0.00000000000E+00 0.  1.
        -11    1    3    3    0    0  0.27972119789E+03 -0.46495055647E+03 -0.28394632335E+03  0.61241202066E+03  0.00000000000E+00 0. -1.
         22    1    1    2    0    0 -0.55278020984E+03  0.99202244134E+03  0.12485010891E+04  0.16877290820E+04  0.00000000000E+00 0. -1.
<mgrwt>
<rscale>  0 0.29775681E+04</rscale>
<asrwt>0</asrwt>
<pdfrwt beam="1">  1        4 0.27477339E+00 0.29775681E+04</pdfrwt>
<pdfrwt beam="2">  1       -4 0.19092466E+00 0.29775681E+04</pdfrwt>
<totfact> 0.11417818E-02</totfact>
</mgrwt>
</event>
<event>
 6    1  0.9562506E-007  0.3897821E+04  0.7818608E-02  0.8025483E-01
          2   -1    0    0  501    0  0.00000000000E+00  0.00000000000E+00  0.15666882971E+04  0.15666882971E+04  0.00000000000E+00 0. -1.
         -2   -1    0    0    0  501 -0.00000000000E+00 -0.00000000000E+00 -0.24243827563E+04  0.24243827563E+04  0.00000000000E+00 0.  1.
         23    2    1    2    0    0  0.12831392300E+04  0.50176951744E+02  0.10705732502E+04  0.16743534682E+04  0.91479190943E+02 0.  0.
         11    1    3    3    0    0  0.27378829029E+03  0.18608792820E+02  0.27796936681E+03  0.39060630302E+03  0.00000000000E+00 0.  1.
        -11    1    3    3    0    0  0.10093509397E+04  0.31568158924E+02  0.79260388339E+03  0.12837471652E+04  0.00000000000E+00 0. -1.
         22    1    1    2    0    0 -0.12831392300E+04 -0.50176951744E+02 -0.19282677094E+04  0.23167175852E+04  0.00000000000E+00 0.  1.
<mgrwt>
<rscale>  0 0.38978210E+04</rscale>
<asrwt>0</asrwt>
<pdfrwt beam="1">  1        2 0.24102897E+00 0.38978210E+04</pdfrwt>
<pdfrwt beam="2">  1       -2 0.37298196E+00 0.38978210E+04</pdfrwt>
<totfact> 0.10283226E-01</totfact>
</mgrwt>
</event>
<event>
 6    1  0.9562506E-007  0.2215183E+04  0.7818608E-02  0.8512135E-01
         -1   -1    0    0    0  501 -0.00000000000E+00  0.00000000000E+00  0.67232338133E+03  0.67232338133E+03  0.00000000000E+00 0.  1.
          1   -1    0    0  501    0  0.00000000000E+00 -0.00000000000E+00 -0.18246558330E+04  0.18246558330E+04  0.00000000000E+00 0. -1.
         23    2    1    2    0    0 -0.66238743145E+03 -0.55902518587E+03  0.19669023250E+03  0.89350533859E+03  0.91643192593E+02 0.  0.
         11    1    3    3    0    0 -0.16861432191E+03 -0.19129670267E+03  0.76456355939E+02  0.26621568768E+03  0.00000000000E+00 0.  1.
        -11    1    3    3    0    0 -0.49377310954E+03 -0.36772848320E+03  0.12023387656E+03  0.62728965091E+03  0.00000000000E+00 0. -1.
         22    1    1    2    0    0  0.66238743145E+03  0.55902518587E+03 -0.13490226842E+04  0.16034738757E+04  0.00000000000E+00 0. -1.
<mgrwt>
<rscale>  0 0.22151829E+04</rscale>
<asrwt>0</asrwt>
<pdfrwt beam="1">  1        1 0.28071628E+00 0.22151829E+04</pdfrwt>
<pdfrwt beam="2">  1       -1 0.10343437E+00 0.22151829E+04</pdfrwt>
<totfact> 0.31461902E+00</totfact>
</mgrwt>
</event>
<event>
 6    1  0.9562506E-007  0.1517192E+04  0.7818608E-02  0.8873100E-01
          2   -1    0    0  501    0  0.00000000000E+00  0.00000000000E+00  0.23046645532E+04  0.23046645532E+04  0.00000000000E+00 0. -1.
         -2   -1    0    0    0  501 -0.00000000000E+00 -0.00000000000E+00 -0.24969717716E+03  0.24969717716E+03  0.00000000000E+00 0.  1.
         23    2    1    2    0    0 -0.19300611589E+03 -0.51580301708E+03  0.19027568150E+04  0.19829842999E+04  0.91864701482E+02 0.  0.
         13    1    3    3    0    0 -0.13368282551E+03 -0.34616361804E+03  0.14256739102E+04  0.14731756333E+04  0.00000000000E+00 0.  1.
        -13    1    3    3    0    0 -0.59323290377E+02 -0.16963939905E+03  0.47708290480E+03  0.50980866660E+03  0.00000000000E+00 0. -1.
         22    1    1    2    0    0  0.19300611589E+03  0.51580301708E+03  0.15221056108E+03  0.57137743052E+03  0.00000000000E+00 0.  1.
<mgrwt>
<rscale>  0 0.15171925E+04</rscale>
<asrwt>0</asrwt>
<pdfrwt beam="1">  1        2 0.35456376E+00 0.15171925E+04</pdfrwt>
<pdfrwt beam="2">  1       -2 0.38414952E-01 0.15171925E+04</pdfrwt>
<totfact> 0.27871170E+01</totfact>
</mgrwt>
</event>
<event>
 6    1  0.9562506E-007  0.4158004E+04  0.7818608E-02  0.7973409E-01
         -2   -1    0    0    0  501 -0.00000000000E+00  0.00000000000E+00  0.17346732370E+04  0.17346732370E+04  0.00000000000E+00 0.  1.
          2   -1    0    0  501    0  0.00000000000E+00 -0.00000000000E+00 -0.24916792695E+04  0.24916792695E+04  0.00000000000E+00 0. -1.
         23    2    1    2    0    0  0.12203732724E+04  0.15353861945E+04  0.31910708368E+03  0.19892246315E+04  0.91997899459E+02 0.  0.
         13    1    3    3    0    0  0.78887639247E+03  0.98663177438E+03  0.24990481727E+03  0.12877191613E+04  0.00000000000E+00 0.  1.
        -13    1    3    3    0    0  0.43149687996E+03  0.54875442010E+03  0.69202266418E+02  0.70150547016E+03  0.00000000000E+00 0. -1.
         22    1    1    2    0    0 -0.12203732724E+04 -0.15353861945E+04 -0.10761131162E+04  0.22371278750E+04  0.00000000000E+00 0. -1.
<mgrwt>
<rscale>  0 0.41580040E+04</rscale>
<asrwt>0</asrwt>
<pdfrwt beam="1">  1        2 0.38333527E+00 0.41580040E+04</pdfrwt>
<pdfrwt beam="2">  1       -2 0.26687281E+00 0.41580040E+04</pdfrwt>
<totfact> 0.13886293E-01</totfact>
</mgrwt>
</event>
<event>
 6    1  0.9562506E-007  0.1872751E+04  0.7818608E-02  0.8668540E-01
         -2   -1    0    0    0  501 -0.00000000000E+00  0.00000000000E+00  0.79949956738E+03  0.79949956738E+03  0.00000000000E+00 0.  1.
          2   -1    0    0  501    0  0.00000000000E+00 -0.00000000000E+00 -0.10966853994E+04  0.10966853994E+04  0.00000000000E+00 0. -1.
         23    2    1    2    0    0 -0.15500893710E+03  0.77949843875E+03  0.34812831620E+03  0.87242916754E+03  0.91069979881E+02 0.  0.
         11    1    3    3    0    0 -0.54285045733E+02  0.18238690304E+03  0.46379859508E+02  0.19586459598E+03  0.00000000000E+00 0. -1.
        -11    1    3    3    0    0 -0.10072389136E+03  0.59711153572E+03  0.30174845669E+03  0.67656457156E+03  0.00000000000E+00 0.  1.
         22    1    1    2    0    0  0.15500893710E+03 -0.77949843875E+03 -0.64531414825E+03  0.10237557993E+04  0.00000000000E+00 0. -1.
<mgrwt>
<rscale>  0 0.18727515E+04</rscale>
<asrwt>0</asrwt>
<pdfrwt beam="1">  1        2 0.16872083E+00 0.18727515E+04</pdfrwt>
<pdfrwt beam="2">  1       -2 0.12299993E+00 0.18727515E+04</pdfrwt>
<totfact> 0.10258811E+01</totfact>
</mgrwt>
</event>
<event>
 6    1  0.9562506E-007  0.1431686E+04  0.7818608E-02  0.8931196E-01
         -1   -1    0    0    0  501 -0.00000000000E+00  0.00000000000E+00  0.60123885853E+03  0.60123885853E+03  0.00000000000E+00 0.  1.
          1   -1    0    0  501    0  0.00000000000E+00 -0.00000000000E+00 -0.85229266900E+03  0.85229266900E+03  0.00000000000E+00 0. -1.
         23    2    1    2    0    0  0.15531633407E+03  0.10916362624E+03  0.57158429162E+03  0.60927249860E+03  0.92002794523E+02 0.  0.
         11    1    3    3    0    0  0.83568853536E+02  0.70512923886E+02  0.19121101384E+03  0.22026683257E+03  0.00000000000E+00 0. -1.
        -11    1    3    3    0    0  0.71747480538E+02  0.38650702355E+02  0.38037327777E+03  0.38900566602E+03  0.00000000000E+00 0.  1.
         22    1    1    2    0    0 -0.15531633407E+03 -0.10916362624E+03 -0.82263810209E+03  0.84425902893E+03  0.00000000000E+00 0. -1.
<mgrwt>
<rscale>  0 0.14316864E+04</rscale>
<asrwt>0</asrwt>
<pdfrwt beam="1">  1        1 0.13112195E+00 0.14316864E+04</pdfrwt>
<pdfrwt beam="2">  1       -1 0.92498287E-01 0.14316864E+04</pdfrwt>
<totfact> 0.22052496E+01</totfact>
</mgrwt>
</event>
<event>
 6    1  0.9562506E-007  0.2322902E+04  0.7818608E-02  0.8468946E-01
          1   -1    0    0  501    0  0.00000000000E+00  0.00000000000E+00  0.27003328941E+04  0.27003328941E+04  0.00000000000E+00 0. -1.
         -1   -1    0    0    0  501 -0.00000000000E+00 -0.00000000000E+00 -0.49955633021E+03  0.49955633021E+03  0.00000000000E+00 0.  1.
         23    2    1    2    0    0 -0.30309402982E+03 -0.99643168518E+03  0.18045655601E+04  0.20855619593E+04  0.91486233917E+02 0.  0.
         11    1    3    3    0    0 -0.12218485719E+03 -0.40065009856E+03  0.81659385018E+03  0.91775549955E+03  0.00000000000E+00 0. -1.
        -11    1    3    3    0    0 -0.18090917263E+03 -0.59578158662E+03  0.98797170994E+03  0.11678064597E+04  0.00000000000E+00 0.  1.
         22    1    1    2    0    0  0.30309402982E+03  0.99643168518E+03  0.39621100378E+03  0.11143272651E+04  0.00000000000E+00 0. -1.
<mgrwt>
<rscale>  0 0.23229020E+04</rscale>
<asrwt>0</asrwt>
<pdfrwt beam="1">  1        1 0.41543582E+00 0.23229020E+04</pdfrwt>
<pdfrwt beam="2">  1       -1 0.76854822E-01 0.23229020E+04</pdfrwt>
<totfact> 0.15028428E+00</totfact>
</mgrwt>
</event>
<event>
 6    1  0.9562506E-007  0.1836086E+04  0.7818608E-02  0.8687341E-01
         -2   -1    0    0    0  501 -0.00000000000E+00  0.00000000000E+00  0.94353252508E+03  0.94353252508E+03  0.00000000000E+00 0.  1.
          2   -1    0    0  501    0  0.00000000000E+00 -0.00000000000E+00 -0.89324229834E+03  0.89324229834E+03  0.00000000000E+00 0. -1.
         23    2    1    2    0    0 -0.41519265924E+03  0.38275691426E+03 -0.69601284177E+03  0.90090300005E+03  0.91129248250E+02 0.  0.
         11    1    3    3    0    0 -0.23909730833E+03  0.27970777469E+03 -0.44625991357E+03  0.57840459242E+03  0.00000000000E+00 0. -1.
        -11    1    3    3    0    0 -0.17609535091E+03  0.10304913957E+03 -0.24975292821E+03  0.32249840763E+03  0.00000000000E+00 0.  1.
         22    1    1    2    0    0  0.41519265924E+03 -0.38275691426E+03  0.74630306851E+03  0.93587182337E+03  0.00000000000E+00 0.  1.
<mgrwt>
<rscale>  0 0.18360862E+04</rscale>
<asrwt>0</asrwt>
<pdfrwt beam="1">  1        2 0.13742189E+00 0.18360862E+04</pdfrwt>
<pdfrwt beam="2">  1       -2 0.14515885E+00 0.18360862E+04</pdfrwt>
<totfact> 0.91123911E+00</totfact>
</mgrwt>
</event>
<event>
 6    1  0.9562506E-007  0.1181884E+04  0.7818608E-02  0.9128863E-01
          2   -1    0    0  501    0  0.00000000000E+00  0.00000000000E+00  0.12546959666E+04  0.12546959666E+04  0.00000000000E+00 0. -1.
         -2   -1    0    0    0  501 -0.00000000000E+00 -0.00000000000E+00 -0.27832419996E+03  0.27832419996E+03  0.00000000000E+00 0.  1.
         23    2    1    2    0    0 -0.50799483535E+03 -0.27313842628E+03  0.63574008708E+03  0.86317444272E+03  0.90781647905E+02 0.  0.
         13    1    3    3    0    0 -0.14971509085E+03 -0.12195580556E+03  0.17886883790E+03  0.26321452869E+03  0.00000000000E+00 0.  1.
        -13    1    3    3    0    0 -0.35827974449E+03 -0.15118262071E+03  0.45687124918E+03  0.59995991403E+03  0.00000000000E+00 0. -1.
         22    1    1    2    0    0  0.50799483535E+03  0.27313842628E+03  0.34063167960E+03  0.66984572388E+03  0.00000000000E+00 0. -1.
<mgrwt>
<rscale>  0 0.11818837E+04</rscale>
<asrwt>0</asrwt>
<pdfrwt beam="1">  1        2 0.19303015E+00 0.11818837E+04</pdfrwt>
<pdfrwt beam="2">  1       -2 0.42819108E-01 0.11818837E+04</pdfrwt>
<totfact> 0.89725717E+01</totfact>
</mgrwt>
</event>
<event>
 6    1  0.9562506E-007  0.3333611E+04  0.7818608E-02  0.8154395E-01
          1   -1    0    0  501    0  0.00000000000E+00  0.00000000000E+00  0.19849881052E+04  0.19849881052E+04  0.00000000000E+00 0. -1.
         -1   -1    0    0    0  501 -0.00000000000E+00 -0.00000000000E+00 -0.13996254131E+04  0.13996254131E+04  0.00000000000E+00 0.  1.
         23    2    1    2    0    0 -0.16146079034E+04  0.15266023205E+02  0.70689576714E+03  0.17653661557E+04  0.98103541980E+02 0.  0.
         13    1    3    3    0    0 -0.50700268958E+03  0.40828286536E+02  0.25301939092E+03  0.56809989298E+03  0.00000000000E+00 0.  1.
        -13    1    3    3    0    0 -0.11076052138E+04 -0.25562263330E+02  0.45387637622E+03  0.11972662627E+04  0.00000000000E+00 0. -1.
         22    1    1    2    0    0  0.16146079034E+04 -0.15266023205E+02 -0.12153307508E+03  0.16192473626E+04  0.00000000000E+00 0.  1.
<mgrwt>
<rscale>  0 0.33336105E+04</rscale>
<asrwt>0</asrwt>
<pdfrwt beam="1">  1        1 0.30538279E+00 0.33336105E+04</pdfrwt>
<pdfrwt beam="2">  1       -1 0.21532698E+00 0.33336105E+04</pdfrwt>
<totfact> 0.29861708E-01</totfact>
</mgrwt>
</event>
<event>
 6    1  0.9562506E-007  0.1430940E+04  0.7818608E-02  0.8931722E-01
         -2   -1    0    0    0  501 -0.00000000000E+00  0.00000000000E+00  0.20858398228E+03  0.20858398228E+03  0.00000000000E+00 0.  1.
          2   -1    0    0  501    0  0.00000000000E+00 -0.00000000000E+00 -0.24541544924E+04  0.24541544924E+04  0.00000000000E+00 0. -1.
         23    2    1    2    0    0 -0.40530731223E+03  0.53176646648E+03 -0.15858588799E+04  0.17234467057E+04  0.90942664880E+02 0.  0.
         11    1    3    3    0    0 -0.24703395533E+03  0.38732882503E+03 -0.10346755864E+04  0.11320790445E+04  0.00000000000E+00 0. -1.
        -11    1    3    3    0    0 -0.15827335690E+03  0.14443764145E+03 -0.55118329346E+03  0.59136766124E+03  0.00000000000E+00 0.  1.
         22    1    1    2    0    0  0.40530731223E+03 -0.53176646648E+03 -0.65971163030E+03  0.93929176903E+03  0.00000000000E+00 0. -1.
<mgrwt>
<rscale>  0 0.14309400E+04</rscale>
<asrwt>0</asrwt>
<pdfrwt beam="1">  1        2 0.37756222E+00 0.14309400E+04</pdfrwt>
<pdfrwt beam="2">  1       -2 0.32089844E-01 0.14309400E+04</pdfrwt>
<totfact> 0.32569658E+01</totfact>
</mgrwt>
</event>
<event>
 6    1  0.9562506E-007  0.1518570E+04  0.7818608E-02  0.8872197E-01
         -2   -1    0    0    0  501 -0.00000000000E+00  0.00000000000E+00  0.31421260027E+04  0.31421260027E+04  0.00000000000E+00 0.  1.
          2   -1    0    0  501    0  0.00000000000E+00 -0.00000000000E+00 -0.18347885580E+03  0.18347885580E+03  0.00000000000E+00 0. -1.
         23    2    1    2    0    0 -0.40588067745E+03  0.57741469618E+02  0.28770245980E+04  0.29075911720E+04  0.93502321255E+02 0.  0.
         13    1    3    3    0    0 -0.43995501839E+02  0.71047907115E+01  0.57722560469E+03  0.57894341773E+03  0.00000000000E+00 0.  1.
        -13    1    3    3    0    0 -0.36188517561E+03  0.50636678907E+02  0.22997989934E+04  0.23286477543E+04  0.00000000000E+00 0. -1.
         22    1    1    2    0    0  0.40588067745E+03 -0.57741469618E+02  0.81622548883E+02  0.41801368653E+03  0.00000000000E+00 0. -1.
<mgrwt>
<rscale>  0 0.15185700E+04</rscale>
<asrwt>0</asrwt>
<pdfrwt beam="1">  1        2 0.28227519E-01 0.15185700E+04</pdfrwt>
<pdfrwt beam="2">  1       -2 0.48340396E+00 0.15185700E+04</pdfrwt>
<totfact> 0.38863171E-01</totfact>
</mgrwt>
</event>
<event>
 6    1  0.9562506E-007  0.6878075E+03  0.7818608E-02  0.9738313E-01
          2   -1    0    0  501    0  0.00000000000E+00  0.00000000000E+00  0.60075516417E+03  0.60075516417E+03  0.00000000000E+00 0. -1.
         -2   -1    0    0    0  501 -0.00000000000E+00 -0.00000000000E+00 -0.19686855131E+03  0.19686855131E+03  0.00000000000E+00 0.  1.
         23    2    1    2    0    0  0.11501785141E+03 -0.12389275948E+01 -0.16304002219E+03  0.21914601442E+03  0.90621662514E+02 0.  0.
         13    1    3    3    0    0  0.10492596881E+03  0.15315228541E+02 -0.77250943872E+02  0.13119345824E+03  0.00000000000E+00 0.  1.
        -13    1    3    3    0    0  0.10091882597E+02 -0.16554156136E+02 -0.85789078322E+02  0.87952556183E+02  0.00000000000E+00 0. -1.
         22    1    1    2    0    0 -0.11501785141E+03  0.12389275948E+01  0.56692663506E+03  0.57847770106E+03  0.00000000000E+00 0. -1.
<mgrwt>
<rscale>  0 0.68780753E+03</rscale>
<asrwt>0</asrwt>
<pdfrwt beam="1">  1        2 0.92423870E-01 0.68780753E+03</pdfrwt>
<pdfrwt beam="2">  1       -2 0.30287470E-01 0.68780753E+03</pdfrwt>
<totfact> 0.50188270E+02</totfact>
</mgrwt>
</event>
<event>
 6    1  0.9562506E-007  0.3396572E+04  0.7818608E-02  0.8138748E-01
          1   -1    0    0  501    0  0.00000000000E+00  0.00000000000E+00  0.12970435347E+04  0.12970435347E+04  0.00000000000E+00 0. -1.
         -1   -1    0    0    0  501 -0.00000000000E+00 -0.00000000000E+00 -0.22236538537E+04  0.22236538537E+04  0.00000000000E+00 0.  1.
         23    2    1    2    0    0 -0.68884477118E+03 -0.16532796497E+03  0.11348762606E+04  0.13408883664E+04  0.90537449085E+02 0.  0.
         13    1    3    3    0    0 -0.59848351407E+03 -0.16343089682E+03  0.94282020042E+03  0.11286284176E+04  0.00000000000E+00 0.  1.
        -13    1    3    3    0    0 -0.90361257118E+02 -0.18970681556E+01  0.19205606013E+03  0.21225994886E+03  0.00000000000E+00 0. -1.
         22    1    1    2    0    0  0.68884477118E+03  0.16532796497E+03 -0.20614865796E+04  0.21798090220E+04  0.00000000000E+00 0.  1.
<mgrwt>
<rscale>  0 0.33965723E+04</rscale>
<asrwt>0</asrwt>
<pdfrwt beam="1">  1        1 0.19954516E+00 0.33965723E+04</pdfrwt>
<pdfrwt beam="2">  1       -1 0.34210059E+00 0.33965723E+04</pdfrwt>
<totfact> 0.13104403E-01</totfact>
</mgrwt>
</event>
<event>
 6    1  0.9562506E-007  0.1963483E+04  0.7818608E-02  0.8623886E-01
          2   -1    0    0  501    0  0.00000000000E+00  0.00000000000E+00  0.14893371720E+04  0.14893371720E+04  0.00000000000E+00 0. -1.
         -2   -1    0    0    0  501 -0.00000000000E+00 -0.00000000000E+00 -0.64714445901E+03  0.64714445901E+03  0.00000000000E+00 0.  1.
         23    2    1    2    0    0 -0.18684876818E+03 -0.86414802256E+03  0.88125737573E+03  0.12515012273E+04  0.89311212584E+02 0.  0.
         11    1    3    3    0    0 -0.88855158426E+02 -0.46836057103E+03  0.41434333656E+03  0.63161480684E+03  0.00000000000E+00 0.  1.
        -11    1    3    3    0    0 -0.97993609757E+02 -0.39578745153E+03  0.46691403917E+03  0.61988642049E+03  0.00000000000E+00 0. -1.
         22    1    1    2    0    0  0.18684876818E+03  0.86414802256E+03 -0.39064662714E+02  0.88498040370E+03  0.00000000000E+00 0.  1.
<mgrwt>
<rscale>  0 0.19634829E+04</rscale>
<asrwt>0</asrwt>
<pdfrwt beam="1">  1        2 0.22912880E+00 0.19634829E+04</pdfrwt>
<pdfrwt beam="2">  1       -2 0.99560686E-01 0.19634829E+04</pdfrwt>
<totfact> 0.10011750E+01</totfact>
</mgrwt>
</event>
<event>
 6    1  0.9562506E-007  0.3300352E+04  0.7818608E-02  0.8162806E-01
         -2   -1    0    0    0  501 -0.00000000000E+00  0.00000000000E+00  0.22311083708E+04  0.22311083708E+04  0.00000000000E+00 0.  1.
          2   -1    0    0  501    0  0.00000000000E+00 -0.00000000000E+00 -0.12205055342E+04  0.12205055342E+04  0.00000000000E+00 0. -1.
         23    2    1    2    0    0 -0.13375468479E+04  0.96116798789E+03  0.42359102995E+03  0.17030549748E+04  0.89952294281E+02 0.  0.
         13    1    3    3    0    0 -0.75215988846E+03  0.59047041308E+03  0.26420968828E+03  0.99207185522E+03  0.00000000000E+00 0. -1.
        -13    1    3    3    0    0 -0.58538695944E+03  0.37069757480E+03  0.15938134167E+03  0.71098311957E+03  0.00000000000E+00 0.  1.
         22    1    1    2    0    0  0.13375468479E+04 -0.96116798789E+03  0.58701180666E+03  0.17485589302E+04  0.00000000000E+00 0. -1.
<mgrwt>
<rscale>  0 0.33003516E+04</rscale>
<asrwt>0</asrwt>
<pdfrwt beam="1">  1        2 0.18777008E+00 0.33003516E+04</pdfrwt>
<pdfrwt beam="2">  1       -2 0.34324744E+00 0.33003516E+04</pdfrwt>
<totfact> 0.26377223E-01</totfact>
</mgrwt>
</event>
<event>
 6    1  0.9562506E-007  0.3309790E+04  0.7818608E-02  0.8160409E-01
          2   -1    0    0  501    0  0.00000000000E+00  0.00000000000E+00  0.29533637470E+04  0.29533637470E+04  0.00000000000E+00 0. -1.
         -2   -1    0    0    0  501 -0.00000000000E+00 -0.00000000000E+00 -0.92730810687E+03  0.92730810687E+03  0.00000000000E+00 0.  1.
         23    2    1    2    0    0  0.11530961896E+04  0.13443821859E+03 -0.36698896494E+03  0.12209036424E+04  0.90666126695E+02 0.  0.
         13    1    3    3    0    0  0.10275181776E+04  0.12508301794E+03 -0.29716631088E+03  0.10769155877E+04  0.00000000000E+00 0. -1.
        -13    1    3    3    0    0  0.12557801194E+03  0.93552006518E+01 -0.69822654059E+02  0.14398805465E+03  0.00000000000E+00 0.  1.
         22    1    1    2    0    0 -0.11530961896E+04 -0.13443821859E+03  0.23930446051E+04  0.26597682115E+04  0.00000000000E+00 0. -1.
<mgrwt>
<rscale>  0 0.33097904E+04</rscale>
<asrwt>0</asrwt>
<pdfrwt beam="1">  1        2 0.45436365E+00 0.33097904E+04</pdfrwt>
<pdfrwt beam="2">  1       -2 0.14266279E+00 0.33097904E+04</pdfrwt>
<totfact> 0.53097208E-01</totfact>
</mgrwt>
</event>
<event>
 6    1  0.9562506E-007  0.1599867E+04  0.7818608E-02  0.8820630E-01
         -2   -1    0    0    0  501 -0.00000000000E+00  0.00000000000E+00  0.55862044634E+03  0.55862044634E+03  0.00000000000E+00 0.  1.
          2   -1    0    0  501    0  0.00000000000E+00 -0.00000000000E+00 -0.11454893373E+04  0.11454893373E+04  0.00000000000E+00 0. -1.
         23    2    1    2    0    0 -0.17130214125E+03  0.76897944708E+03 -0.16341342346E+03  0.80968910711E+03  0.90656988584E+02 0.  0.
         11    1    3    3    0    0 -0.98590505611E+02  0.33267419167E+03 -0.11085930933E+03  0.36425539401E+03  0.00000000000E+00 0. -1.
        -11    1    3    3    0    0 -0.72711635637E+02  0.43630525541E+03 -0.52554114131E+02  0.44543371310E+03  0.00000000000E+00 0.  1.
         22    1    1    2    0    0  0.17130214125E+03 -0.76897944708E+03 -0.42345546749E+03  0.89442067652E+03  0.00000000000E+00 0.  1.
<mgrwt>
<rscale>  0 0.15998672E+04</rscale>
<asrwt>0</asrwt>
<pdfrwt beam="1">  1        2 0.17622913E+00 0.15998672E+04</pdfrwt>
<pdfrwt beam="2">  1       -2 0.85941609E-01 0.15998672E+04</pdfrwt>
<totfact> 0.23024587E+01</totfact>
</mgrwt>
</event>
<event>
 6    1  0.9562506E-007  0.4027300E+04  0.7818608E-02  0.7999062E-01
         -2   -1    0    0    0  501 -0.00000000000E+00  0.00000000000E+00  0.14260791662E+04  0.14260791662E+04  0.00000000000E+00 0.  1.
          2   -1    0    0  501    0  0.00000000000E+00 -0.00000000000E+00 -0.28433101741E+04  0.28433101741E+04  0.00000000000E+00 0. -1.
         23    2    1    2    0    0  0.40812529577E+03  0.17407692097E+04 -0.16884864073E+04  0.24609581997E+04  0.92115225149E+02 0.  0.
         13    1    3    3    0    0  0.10488296083E+03  0.38684350366E+03 -0.42881055576E+03  0.58696407431E+03  0.00000000000E+00 0. -1.
        -13    1    3    3    0    0  0.30324233494E+03  0.13539257060E+04 -0.12596758516E+04  0.18739941254E+04  0.00000000000E+00 0.  1.
         22    1    1    2    0    0 -0.40812529577E+03 -0.17407692097E+04  0.27125539941E+03  0.18084311405E+04  0.00000000000E+00 0.  1.
<mgrwt>
<rscale>  0 0.40272995E+04</rscale>
<asrwt>0</asrwt>
<pdfrwt beam="1">  1        2 0.43743233E+00 0.40272995E+04</pdfrwt>
<pdfrwt beam="2">  1       -2 0.21939680E+00 0.40272995E+04</pdfrwt>
<totfact> 0.17076158E-01</totfact>
</mgrwt>
</event>
<event>
 6    1  0.9562506E-007  0.4945138E+04  0.7818608E-02  0.7837026E-01
          1   -1    0    0  501    0  0.00000000000E+00  0.00000000000E+00  0.39917154589E+04  0.39917154589E+04  0.00000000000E+00 0. -1.
         -1   -1    0    0    0  501 -0.00000000000E+00 -0.00000000000E+00 -0.15315713208E+04  0.15315713208E+04  0.00000000000E+00 0.  1.
         23    2    1    2    0    0  0.14682508697E+04  0.13516111096E+04  0.28593219877E+04  0.34881071405E+04  0.92498575567E+02 0.  0.
         11    1    3    3    0    0  0.45750056877E+03  0.46006600497E+03  0.98656004673E+03  0.11807913555E+04  0.00000000000E+00 0.  1.
        -11    1    3    3    0    0  0.10107503009E+04  0.89154510460E+03  0.18727619410E+04  0.23073157851E+04  0.00000000000E+00 0. -1.
         22    1    1    2    0    0 -0.14682508697E+04 -0.13516111096E+04 -0.39917784960E+03  0.20351796391E+04  0.00000000000E+00 0.  1.
<mgrwt>
<rscale>  0 0.49451378E+04</rscale>
<asrwt>0</asrwt>
<pdfrwt beam="1">  1        1 0.61411007E+00 0.49451378E+04</pdfrwt>
<pdfrwt beam="2">  1       -1 0.23562636E+00 0.49451378E+04</pdfrwt>
<totfact> 0.61086995E-03</totfact>
</mgrwt>
</event>
<event>
 6    1  0.9562506E-007  0.1340236E+04  0.7818608E-02  0.8998253E-01
         -1   -1    0    0    0  501 -0.00000000000E+00  0.00000000000E+00  0.32448394218E+03  0.32448394218E+03  0.00000000000E+00 0.  1.
          1   -1    0    0  501    0  0.00000000000E+00 -0.00000000000E+00 -0.13839141450E+04  0.13839141450E+04  0.00000000000E+00 0. -1.
         23    2    1    2    0    0 -0.21340537810E+03  0.47988500866E+03 -0.80298130708E+01  0.53312184030E+03  0.91230158215E+02 0.  0.
         13    1    3    3    0    0  0.81791611029E+01  0.36269975823E+02 -0.61977551071E-01  0.37180823872E+02  0.00000000000E+00 0. -1.
        -13    1    3    3    0    0 -0.22158453921E+03  0.44361503283E+03 -0.79678355197E+01  0.49594101643E+03  0.00000000000E+00 0.  1.
         22    1    1    2    0    0  0.21340537810E+03 -0.47988500866E+03 -0.10514003897E+04  0.11752762469E+04  0.00000000000E+00 0. -1.
<mgrwt>
<rscale>  0 0.13402357E+04</rscale>
<asrwt>0</asrwt>
<pdfrwt beam="1">  1        1 0.21290987E+00 0.13402357E+04</pdfrwt>
<pdfrwt beam="2">  1       -1 0.49920606E-01 0.13402357E+04</pdfrwt>
<totfact> 0.31094846E+01</totfact>
</mgrwt>
</event>
<event>
 6    1  0.9562506E-007  0.1666559E+04  0.7818608E-02  0.8780670E-01
         -1   -1    0    0    0  501 -0.00000000000E+00  0.00000000000E+00  0.17083897980E+03  0.17083897980E+03  0.00000000000E+00 0.  1.
          1   -1    0    0  501    0  0.00000000000E+00 -0.00000000000E+00 -0.40643825759E+04  0.40643825759E+04  0.00000000000E+00 0. -1.
         23    2    1    2    0    0 -0.54885034840E+03  0.12706869840E+03 -0.35049375200E+04  0.35508255874E+04  0.79951072163E+02 0.  0.
         11    1    3    3    0    0 -0.25651561873E+03  0.36414846656E+02 -0.14030937354E+04  0.14268140503E+04  0.00000000000E+00 0. -1.
        -11    1    3    3    0    0 -0.29233472968E+03  0.90653851742E+02 -0.21018437846E+04  0.21240115371E+04  0.00000000000E+00 0.  1.
         22    1    1    2    0    0  0.54885034840E+03 -0.12706869840E+03 -0.38860607611E+03  0.68439596832E+03  0.00000000000E+00 0.  1.
<mgrwt>
<rscale>  0 0.16665593E+04</rscale>
<asrwt>0</asrwt>
<pdfrwt beam="1">  1        1 0.62528958E+00 0.16665593E+04</pdfrwt>
<pdfrwt beam="2">  1       -1 0.26282922E-01 0.16665593E+04</pdfrwt>
<totfact> 0.10476414E+00</totfact>
</mgrwt>
</event>
<event>
 6    1  0.9562506E-007  0.2308841E+04  0.7818608E-02  0.8474443E-01
          2   -1    0    0  501    0  0.00000000000E+00  0.00000000000E+00  0.14609448670E+04  0.14609448670E+04  0.00000000000E+00 0. -1.
         -2   -1    0    0    0  501 -0.00000000000E+00 -0.00000000000E+00 -0.91220878958E+03  0.91220878958E+03  0.00000000000E+00 0.  1.
         23    2    1    2    0    0 -0.91735274073E+03 -0.57088752829E+03 -0.13796084719E+03  0.10929188003E+04  0.89385053903E+02 0.  0.
         13    1    3    3    0    0 -0.38379348139E+03 -0.19962867094E+03 -0.26507274630E+02  0.43341859470E+03  0.00000000000E+00 0.  1.
        -13    1    3    3    0    0 -0.53355925934E+03 -0.37125885734E+03 -0.11145357256E+03  0.65950020563E+03  0.00000000000E+00 0. -1.
         22    1    1    2    0    0  0.91735274073E+03  0.57088752829E+03  0.68669692459E+03  0.12802348562E+04  0.00000000000E+00 0. -1.
<mgrwt>
<rscale>  0 0.23088411E+04</rscale>
<asrwt>0</asrwt>
<pdfrwt beam="1">  1        2 0.22476075E+00 0.23088411E+04</pdfrwt>
<pdfrwt beam="2">  1       -2 0.14033981E+00 0.23088411E+04</pdfrwt>
<totfact> 0.43197241E+00</totfact>
</mgrwt>
</event>
<event>
 6    1  0.9562506E-007  0.3263293E+04  0.7818608E-02  0.8172299E-01
          2   -1    0    0  501    0  0.00000000000E+00  0.00000000000E+00  0.14299900456E+04  0.14299900456E+04  0.00000000000E+00 0. -1.
         -2   -1    0    0    0  501 -0.00000000000E+00 -0.00000000000E+00 -0.18617402153E+04  0.18617402153E+04  0.00000000000E+00 0.  1.
         23    2    1    2    0    0 -0.10407579179E+04 -0.10724903491E+04 -0.87334816712E+03  0.17333909577E+04  0.92166146205E+02 0.  0.
         11    1    3    3    0    0 -0.50815953124E+03 -0.58563564506E+03 -0.47093793272E+03  0.90718121367E+03  0.00000000000E+00 0. -1.
        -11    1    3    3    0    0 -0.53259838670E+03 -0.48685470402E+03 -0.40241023440E+03  0.82620974400E+03  0.00000000000E+00 0.  1.
         22    1    1    2    0    0  0.10407579179E+04  0.10724903491E+04  0.44159799739E+03  0.15583393032E+04  0.00000000000E+00 0. -1.
<mgrwt>
<rscale>  0 0.32632928E+04</rscale>
<asrwt>0</asrwt>
<pdfrwt beam="1">  1        2 0.21999847E+00 0.32632928E+04</pdfrwt>
<pdfrwt beam="2">  1       -2 0.28642157E+00 0.32632928E+04</pdfrwt>
<totfact> 0.44835816E-01</totfact>
</mgrwt>
</event>
<event>
 6    1  0.9562506E-007  0.3463094E+04  0.7818608E-02  0.8122592E-01
         -2   -1    0    0    0  501 -0.00000000000E+00  0.00000000000E+00  0.79903821688E+03  0.79903821688E+03  0.00000000000E+00 0.  1.
          2   -1    0    0  501    0  0.00000000000E+00 -0.00000000000E+00 -0.37523297640E+04  0.37523297640E+04  0.00000000000E+00 0. -1.
         23    2    1    2    0    0 -0.17701330102E+03 -0.47952308984E+03 -0.36502693881E+04  0.36870450012E+04  0.92510179055E+02 0.  0.
         11    1    3    3    0    0 -0.54985444731E+02 -0.12941122425E+03 -0.13193822493E+04  0.13268534900E+04  0.00000000000E+00 0. -1.
        -11    1    3    3    0    0 -0.12202785629E+03 -0.35011186559E+03 -0.23308871387E+04  0.23601915112E+04  0.00000000000E+00 0.  1.
         22    1    1    2    0    0  0.17701330102E+03  0.47952308984E+03  0.69697784092E+03  0.86432297966E+03  0.00000000000E+00 0.  1.
<mgrwt>
<rscale>  0 0.34630939E+04</rscale>
<asrwt>0</asrwt>
<pdfrwt beam="1">  1        2 0.57728149E+00 0.34630939E+04</pdfrwt>
<pdfrwt beam="2">  1       -2 0.12292896E+00 0.34630939E+04</pdfrwt>
<totfact> 0.21943711E-01</totfact>
</mgrwt>
</event>
<event>
 6    1  0.9562506E-007  0.4615246E+04  0.7818608E-02  0.7890765E-01
          2   -1    0    0  501    0  0.00000000000E+00  0.00000000000E+00  0.44399601505E+04  0.44399601505E+04  0.00000000000E+00 0. -1.
         -2   -1    0    0    0  501 -0.00000000000E+00 -0.00000000000E+00 -0.11993631033E+04  0.11993631033E+04  0.00000000000E+00 0.  1.
         23    2    1    2    0    0 -0.26289305460E+03 -0.13475057444E+04  0.38858900371E+04  0.41223237376E+04  0.92342448785E+02 0.  0.
         11    1    3    3    0    0 -0.17705886582E+03 -0.10080308946E+04  0.27860604823E+04  0.29680985728E+04  0.00000000000E+00 0.  1.
        -11    1    3    3    0    0 -0.85834188779E+02 -0.33947484980E+03  0.10998295548E+04  0.11542251649E+04  0.00000000000E+00 0. -1.
         22    1    1    2    0    0  0.26289305460E+03  0.13475057444E+04 -0.64529298982E+03  0.15169995162E+04  0.00000000000E+00 0.  1.
<mgrwt>
<rscale>  0 0.46152462E+04</rscale>
<asrwt>0</asrwt>
<pdfrwt beam="1">  1        2 0.68307078E+00 0.46152462E+04</pdfrwt>
<pdfrwt beam="2">  1       -2 0.18451740E+00 0.46152462E+04</pdfrwt>
<totfact> 0.17682297E-02</totfact>
</mgrwt>
</event>
<event>
 6    1  0.9562506E-007  0.2341988E+04  0.7818608E-02  0.8461547E-01
         -1   -1    0    0    0  501 -0.00000000000E+00  0.00000000000E+00  0.75284029062E+03  0.75284029062E+03  0.00000000000E+00 0.  1.
          1   -1    0    0  501    0  0.00000000000E+00 -0.00000000000E+00 -0.18214051095E+04  0.18214051095E+04  0.00000000000E+00 0. -1.
         23    2    1    2    0    0 -0.64038469831E+03  0.81779373331E+03  0.55269342771E+02  0.10439243962E+04  0.88568011733E+02 0.  0.
         11    1    3    3    0    0 -0.54854036650E+03  0.66399146684E+03  0.20911389392E+02  0.86152103162E+03  0.00000000000E+00 0. -1.
        -11    1    3    3    0    0 -0.91844331804E+02  0.15380226647E+03  0.34357953379E+02  0.18240336460E+03  0.00000000000E+00 0.  1.
         22    1    1    2    0    0  0.64038469831E+03 -0.81779373331E+03 -0.11238341616E+04  0.15303210039E+04  0.00000000000E+00 0. -1.
<mgrwt>
<rscale>  0 0.23419882E+04</rscale>
<asrwt>0</asrwt>
<pdfrwt beam="1">  1        1 0.28021617E+00 0.23419882E+04</pdfrwt>
<pdfrwt beam="2">  1       -1 0.11582158E+00 0.23419882E+04</pdfrwt>
<totfact> 0.23938812E+00</totfact>
</mgrwt>
</event>
<event>
 6    1  0.9562506E-007  0.4213593E+04  0.7818608E-02  0.7962792E-01
         -2   -1    0    0    0  501 -0.00000000000E+00  0.00000000000E+00  0.33105463660E+04  0.33105463660E+04  0.00000000000E+00 0.  1.
          2   -1    0    0  501    0  0.00000000000E+00 -0.00000000000E+00 -0.13407427326E+04  0.13407427326E+04  0.00000000000E+00 0. -1.
         23    2    1    2    0    0 -0.65252273754E+03 -0.19923527384E+04  0.76733307499E+03  0.22344335380E+04  0.92939929451E+02 0.  0.
         11    1    3    3    0    0 -0.13204530097E+03 -0.34713511243E+03  0.10335806404E+03  0.38551476910E+03  0.00000000000E+00 0.  1.
        -11    1    3    3    0    0 -0.52047743657E+03 -0.16452176260E+04  0.66397501095E+03  0.18489187689E+04  0.00000000000E+00 0. -1.
         22    1    1    2    0    0  0.65252273754E+03  0.19923527384E+04  0.12024705585E+04  0.24168555607E+04  0.00000000000E+00 0. -1.
<mgrwt>
<rscale>  0 0.42135928E+04</rscale>
<asrwt>0</asrwt>
<pdfrwt beam="1">  1        2 0.20626811E+00 0.42135928E+04</pdfrwt>
<pdfrwt beam="2">  1       -2 0.50931482E+00 0.42135928E+04</pdfrwt>
<totfact> 0.17602222E-02</totfact>
</mgrwt>
</event>
<event>
 6    1  0.9562506E-007  0.1896014E+04  0.7818608E-02  0.8656843E-01
         -2   -1    0    0    0  501 -0.00000000000E+00  0.00000000000E+00  0.40965969297E+03  0.40965969297E+03  0.00000000000E+00 0.  1.
          2   -1    0    0  501    0  0.00000000000E+00 -0.00000000000E+00 -0.21938140268E+04  0.21938140268E+04  0.00000000000E+00 0. -1.
         23    2    1    2    0    0  0.45207432338E+03 -0.64499116711E+03 -0.16130347911E+04  0.17974546770E+04  0.92613599852E+02 0.  0.
         13    1    3    3    0    0  0.12291336493E+03 -0.12685883067E+03 -0.30283421105E+03  0.35058439438E+03  0.00000000000E+00 0.  1.
        -13    1    3    3    0    0  0.32916095845E+03 -0.51813233645E+03 -0.13102005801E+04  0.14468702826E+04  0.00000000000E+00 0. -1.
         22    1    1    2    0    0 -0.45207432338E+03  0.64499116711E+03 -0.17111954275E+03  0.80601904284E+03  0.00000000000E+00 0.  1.
<mgrwt>
<rscale>  0 0.18960139E+04</rscale>
<asrwt>0</asrwt>
<pdfrwt beam="1">  1        2 0.33750984E+00 0.18960139E+04</pdfrwt>
<pdfrwt beam="2">  1       -2 0.63024569E-01 0.18960139E+04</pdfrwt>
<totfact> 0.11376980E+01</totfact>
</mgrwt>
</event>
<event>
 6    1  0.9562506E-007  0.1187155E+04  0.7818608E-02  0.9124174E-01
         -2   -1    0    0    0  501 -0.00000000000E+00  0.00000000000E+00  0.19007160709E+03  0.19007160709E+03  0.00000000000E+00 0.  1.
          2   -1    0    0  501    0  0.00000000000E+00 -0.00000000000E+00 -0.18536936572E+04  0.18536936572E+04  0.00000000000E+00 0. -1.
         23    2    1    2    0    0 -0.22352381177E+03  0.51381430765E+03 -0.51932318203E+03  0.76964284604E+03  0.93196061568E+02 0.  0.
         11    1    3    3    0    0 -0.74904008384E+02  0.28883961808E+03 -0.27284238038E+03  0.40432895021E+03  0.00000000000E+00 0. -1.
        -11    1    3    3    0    0 -0.14861980339E+03  0.22497468957E+03 -0.24648080166E+03  0.36531389584E+03  0.00000000000E+00 0.  1.
         22    1    1    2    0    0  0.22352381177E+03 -0.51381430765E+03 -0.11442988681E+04  0.12741224183E+04  0.00000000000E+00 0.  1.
<mgrwt>
<rscale>  0 0.11871555E+04</rscale>
<asrwt>0</asrwt>
<pdfrwt beam="1">  1        2 0.28518363E+00 0.11871555E+04</pdfrwt>
<pdfrwt beam="2">  1       -2 0.29241787E-01 0.11871555E+04</pdfrwt>
<totfact> 0.85620515E+01</totfact>
</mgrwt>
</event>
<event>
 6    1  0.9562506E-007  0.4398291E+04  0.7818608E-02  0.7928689E-01
          1   -1    0    0  501    0  0.00000000000E+00  0.00000000000E+00  0.29999702073E+04  0.29999702073E+04  0.00000000000E+00 0. -1.
         -1   -1    0    0    0  501 -0.00000000000E+00 -0.00000000000E+00 -0.16120964619E+04  0.16120964619E+04  0.00000000000E+00 0.  1.
         23    2    1    2    0    0 -0.52579852301E+03 -0.20263524969E+04 -0.86574112341E+01  0.20955476846E+04  0.93148372875E+02 0.  0.
         11    1    3    3    0    0 -0.30060773739E+03 -0.97338987082E+03 -0.17739315194E+01  0.10187521775E+04  0.00000000000E+00 0.  1.
        -11    1    3    3    0    0 -0.22519078562E+03 -0.10529626261E+04 -0.68834797147E+01  0.10767955071E+04  0.00000000000E+00 0. -1.
         22    1    1    2    0    0  0.52579852301E+03  0.20263524969E+04  0.13965311566E+04  0.25165189846E+04  0.00000000000E+00 0.  1.
<mgrwt>
<rscale>  0 0.43982912E+04</rscale>
<asrwt>0</asrwt>
<pdfrwt beam="1">  1        1 0.46153388E+00 0.43982912E+04</pdfrwt>
<pdfrwt beam="2">  1       -1 0.24801484E+00 0.43982912E+04</pdfrwt>
<totfact> 0.32524925E-02</totfact>
</mgrwt>
</event>
<event>
 6    1  0.9562506E-007  0.9039144E+03  0.7818608E-02  0.9420701E-01
         -2   -1    0    0    0  501 -0.00000000000E+00  0.00000000000E+00  0.64070745020E+02  0.64070745020E+02  0.00000000000E+00 0.  1.
          2   -1    0    0  501    0  0.00000000000E+00 -0.00000000000E+00 -0.31881216303E+04  0.31881216303E+04  0.00000000000E+00 0. -1.
         23    2    1    2    0    0  0.41929489555E+03 -0.67577993886E+02 -0.10716046378E+04  0.11562652312E+04  0.90762274166E+02 0.  0.
         11    1    3    3    0    0  0.32120781562E+03 -0.12261820007E+02 -0.81029640488E+03  0.87172534482E+03  0.00000000000E+00 0.  1.
        -11    1    3    3    0    0  0.98087079929E+02 -0.55316173878E+02 -0.26130823291E+03  0.28453988635E+03  0.00000000000E+00 0. -1.
         22    1    1    2    0    0 -0.41929489555E+03  0.67577993886E+02 -0.20524462475E+04  0.20959271441E+04  0.00000000000E+00 0. -1.
<mgrwt>
<rscale>  0 0.90391444E+03</rscale>
<asrwt>0</asrwt>
<pdfrwt beam="1">  1        2 0.49048009E+00 0.90391444E+03</pdfrwt>
<pdfrwt beam="2">  1       -2 0.98570409E-02 0.90391444E+03</pdfrwt>
<totfact> 0.96745653E+01</totfact>
</mgrwt>
</event>
<event>
 6    1  0.9562506E-007  0.2123992E+04  0.7818608E-02  0.8550748E-01
         -1   -1    0    0    0  501 -0.00000000000E+00  0.00000000000E+00  0.12455950794E+04  0.12455950794E+04  0.00000000000E+00 0.  1.
          1   -1    0    0  501    0  0.00000000000E+00 -0.00000000000E+00 -0.90545928385E+03  0.90545928385E+03  0.00000000000E+00 0. -1.
         23    2    1    2    0    0  0.41413367926E+03 -0.21386728468E+03  0.11345560617E+04  0.12299954731E+04  0.91790451171E+02 0.  0.
         13    1    3    3    0    0  0.62661717321E+02 -0.98591188984E+01  0.22520167920E+03  0.23396471819E+03  0.00000000000E+00 0.  1.
        -13    1    3    3    0    0  0.35147196194E+03 -0.20400816578E+03  0.90935438253E+03  0.99603075493E+03  0.00000000000E+00 0. -1.
         22    1    1    2    0    0 -0.41413367926E+03  0.21386728468E+03 -0.79442026618E+03  0.92105889013E+03  0.00000000000E+00 0. -1.
<mgrwt>
<rscale>  0 0.21239921E+04</rscale>
<asrwt>0</asrwt>
<pdfrwt beam="1">  1        1 0.13930143E+00 0.21239921E+04</pdfrwt>
<pdfrwt beam="2">  1       -1 0.19163001E+00 0.21239921E+04</pdfrwt>
<totfact> 0.28446309E+00</totfact>
</mgrwt>
</event>
<event>
 6    1  0.9562506E-007  0.3687163E+04  0.7818608E-02  0.8070813E-01
         -2   -1    0    0    0  501 -0.00000000000E+00  0.00000000000E+00  0.93042331867E+03  0.93042331867E+03  0.00000000000E+00 0.  1.
          2   -1    0    0  501    0  0.00000000000E+00 -0.00000000000E+00 -0.36529529413E+04  0.36529529413E+04  0.00000000000E+00 0. -1.
         23    2    1    2    0    0  0.13859706823E+04  0.98339358826E+02 -0.28662043900E+04  0.31865127017E+04  0.90278628644E+02 0.  0.
         13    1    3    3    0    0  0.90741648831E+03  0.39239173332E+02 -0.17911795662E+04  0.20082999364E+04  0.00000000000E+00 0. -1.
        -13    1    3    3    0    0  0.47855419401E+03  0.59100185494E+02 -0.10750248238E+04  0.11782127653E+04  0.00000000000E+00 0.  1.
         22    1    1    2    0    0 -0.13859706823E+04 -0.98339358826E+02  0.14367476740E+03  0.13968635583E+04  0.00000000000E+00 0.  1.
<mgrwt>
<rscale>  0 0.36871629E+04</rscale>
<asrwt>0</asrwt>
<pdfrwt beam="1">  1        2 0.56199276E+00 0.36871629E+04</pdfrwt>
<pdfrwt beam="2">  1       -2 0.14314205E+00 0.36871629E+04</pdfrwt>
<totfact> 0.17299760E-01</totfact>
</mgrwt>
</event>
<event>
 6    1  0.9562506E-007  0.9634590E+03  0.7818608E-02  0.9349556E-01
         -2   -1    0    0    0  501 -0.00000000000E+00  0.00000000000E+00  0.59842423715E+02  0.59842423715E+02  0.00000000000E+00 0.  1.
          2   -1    0    0  501    0  0.00000000000E+00 -0.00000000000E+00 -0.38779063061E+04  0.38779063061E+04  0.00000000000E+00 0. -1.
         23    2    1    2    0    0 -0.28079751531E+03 -0.53408954823E+01 -0.35045618179E+04  0.35168457550E+04  0.85876418530E+02 0.  0.
         11    1    3    3    0    0 -0.19921510680E+03  0.96369928920E+01 -0.28639325766E+04  0.28708690903E+04  0.00000000000E+00 0.  1.
        -11    1    3    3    0    0 -0.81582408518E+02 -0.14977888374E+02 -0.64062924124E+03  0.64597666463E+03  0.00000000000E+00 0. -1.
         22    1    1    2    0    0  0.28079751531E+03  0.53408954823E+01 -0.31350206452E+03  0.42090297484E+03  0.00000000000E+00 0.  1.
<mgrwt>
<rscale>  0 0.96345900E+03</rscale>
<asrwt>0</asrwt>
<pdfrwt beam="1">  1        2 0.59660110E+00 0.96345900E+03</pdfrwt>
<pdfrwt beam="2">  1       -2 0.92065248E-02 0.96345900E+03</pdfrwt>
<totfact> 0.35605901E+01</totfact>
</mgrwt>
</event>
<event>
 6    1  0.9562506E-007  0.1433257E+04  0.7818608E-02  0.8930091E-01
         -2   -1    0    0    0  501 -0.00000000000E+00  0.00000000000E+00  0.10793274574E+04  0.10793274574E+04  0.00000000000E+00 0.  1.
          2   -1    0    0  501    0  0.00000000000E+00 -0.00000000000E+00 -0.47581166287E+03  0.47581166287E+03  0.00000000000E+00 0. -1.
         23    2    1    2    0    0 -0.26788401862E+03  0.61160855776E+03  0.57657985469E+03  0.88689334199E+03  0.91151499611E+02 0.  0.
         13    1    3    3    0    0 -0.19356100446E+03  0.46444877171E+03  0.48224017491E+03  0.69694627504E+03  0.00000000000E+00 0. -1.
        -13    1    3    3    0    0 -0.74323014163E+02  0.14715978605E+03  0.94339679772E+02  0.18994706695E+03  0.00000000000E+00 0.  1.
         22    1    1    2    0    0  0.26788401862E+03 -0.61160855776E+03  0.26935939852E+02  0.66824577830E+03  0.00000000000E+00 0. -1.
<mgrwt>
<rscale>  0 0.14332573E+04</rscale>
<asrwt>0</asrwt>
<pdfrwt beam="1">  1        2 0.73201795E-01 0.14332573E+04</pdfrwt>
<pdfrwt beam="2">  1       -2 0.16605038E+00 0.14332573E+04</pdfrwt>
<totfact> 0.14392380E+01</totfact>
</mgrwt>
</event>
<event>
 6    1  0.9562506E-007  0.2064367E+04  0.7818608E-02  0.8577105E-01
         -2   -1    0    0    0  501 -0.00000000000E+00  0.00000000000E+00  0.45278009358E+03  0.45278009358E+03  0.00000000000E+00 0.  1.
          2   -1    0    0  501    0  0.00000000000E+00 -0.00000000000E+00 -0.23530242517E+04  0.23530242517E+04  0.00000000000E+00 0. -1.
         23    2    1    2    0    0 -0.29131795844E+03  0.94487316666E+03 -0.13442170722E+04  0.16714245261E+04  0.95336012154E+02 0.  0.
         13    1    3    3    0    0 -0.11758849045E+03  0.47333401561E+03 -0.59613758376E+03  0.77022864280E+03  0.00000000000E+00 0.  1.
        -13    1    3    3    0    0 -0.17372946799E+03  0.47153915105E+03 -0.74807948841E+03  0.90119588326E+03  0.00000000000E+00 0. -1.
         22    1    1    2    0    0  0.29131795844E+03 -0.94487316666E+03 -0.55602708598E+03  0.11343798193E+04  0.00000000000E+00 0.  1.
<mgrwt>
<rscale>  0 0.20643668E+04</rscale>
<asrwt>0</asrwt>
<pdfrwt beam="1">  1        2 0.36200373E+00 0.20643668E+04</pdfrwt>
<pdfrwt beam="2">  1       -2 0.69658476E-01 0.20643668E+04</pdfrwt>
<totfact> 0.73451756E+00</totfact>
</mgrwt>
</event>
<event>
 6    1  0.9562506E-007  0.2690392E+04  0.7818608E-02  0.8338129E-01
          2   -1    0    0  501    0  0.00000000000E+00  0.00000000000E+00  0.14529210160E+04  0.14529210160E+04  0.00000000000E+00 0. -1.
         -2   -1    0    0    0  501 -0.00000000000E+00 -0.00000000000E+00 -0.12454579760E+04  0.12454579760E+04  0.00000000000E+00 0.  1.
         23    2    1    2    0    0 -0.19704912290E+03  0.13284776398E+04  0.80051233420E+02  0.13493367522E+04  0.10305471708E+03 0.  0.
         13    1    3    3    0    0 -0.46008955872E+02  0.58848051810E+03  0.65969852503E+02  0.59395131588E+03  0.00000000000E+00 0.  1.
        -13    1    3    3    0    0 -0.15104016703E+03  0.73999712168E+03  0.14081380918E+02  0.75538543634E+03  0.00000000000E+00 0. -1.
         22    1    1    2    0    0  0.19704912290E+03 -0.13284776398E+04  0.12741180651E+03  0.13490422398E+04  0.00000000000E+00 0.  1.
<mgrwt>
<rscale>  0 0.26903918E+04</rscale>
<asrwt>0</asrwt>
<pdfrwt beam="1">  1        2 0.22352631E+00 0.26903918E+04</pdfrwt>
<pdfrwt beam="2">  1       -2 0.19160892E+00 0.26903918E+04</pdfrwt>
<totfact> 0.17921294E+00</totfact>
</mgrwt>
</event>
<event>
 6    1  0.1077391E-006  0.2599069E+04  0.7818608E-02  0.8368517E-01
         -1   -1    0    0    0  501 -0.00000000000E+00  0.00000000000E+00  0.90563127512E+03  0.90563127512E+03  0.00000000000E+00 0.  1.
          1   -1    0    0  501    0  0.00000000000E+00 -0.00000000000E+00 -0.18647660828E+04  0.18647660828E+04  0.00000000000E+00 0. -1.
         23    2    1    2    0    0 -0.86669031154E+03 -0.25721562035E+03 -0.14729542008E+04  0.17305308568E+04  0.88492921531E+02 0.  0.
         11    1    3    3    0    0 -0.44853481192E+03 -0.17800836585E+03 -0.76382232609E+03  0.90349045465E+03  0.00000000000E+00 0. -1.
        -11    1    3    3    0    0 -0.41815549962E+03 -0.79207254500E+02 -0.70913187471E+03  0.82704040213E+03  0.00000000000E+00 0.  1.
         22    1    1    2    0    0  0.86669031154E+03  0.25721562035E+03  0.51381939310E+03  0.10398665011E+04  0.00000000000E+00 0.  1.
<mgrwt>
<rscale>  0 0.25990694E+04</rscale>
<asrwt>0</asrwt>
<pdfrwt beam="1">  1        1 0.28688709E+00 0.25990694E+04</pdfrwt>
<pdfrwt beam="2">  1       -1 0.13932789E+00 0.25990694E+04</pdfrwt>
<totfact> 0.13762910E+00</totfact>
</mgrwt>
</event>
<event>
 6    1  0.9562506E-007  0.1603020E+04  0.7818608E-02  0.8818695E-01
         -2   -1    0    0    0  501 -0.00000000000E+00  0.00000000000E+00  0.30190531128E+03  0.30190531128E+03  0.00000000000E+00 0.  1.
          2   -1    0    0  501    0  0.00000000000E+00 -0.00000000000E+00 -0.21278807495E+04  0.21278807495E+04  0.00000000000E+00 0. -1.
         23    2    1    2    0    0 -0.46260721479E+03 -0.55487276527E+03 -0.39846883893E+03  0.82989096677E+03  0.89735056295E+02 0.  0.
         11    1    3    3    0    0 -0.43666159465E+03 -0.51717406366E+03 -0.34567252000E+03  0.76002095461E+03  0.00000000000E+00 0.  1.
        -11    1    3    3    0    0 -0.25945620134E+02 -0.37698701604E+02 -0.52796318928E+02  0.69870012159E+02  0.00000000000E+00 0. -1.
         22    1    1    2    0    0  0.46260721479E+03  0.55487276527E+03 -0.14275065993E+04  0.15998950940E+04  0.00000000000E+00 0.  1.
<mgrwt>
<rscale>  0 0.16030203E+04</rscale>
<asrwt>0</asrwt>
<pdfrwt beam="1">  1        2 0.32736627E+00 0.16030203E+04</pdfrwt>
<pdfrwt beam="2">  1       -2 0.46446971E-01 0.16030203E+04</pdfrwt>
<totfact> 0.23895571E+01</totfact>
</mgrwt>
</event>
<event>
 6    1  0.9562506E-007  0.6445643E+04  0.7818608E-02  0.7637476E-01
          2   -1    0    0  501    0  0.00000000000E+00  0.00000000000E+00  0.37738847773E+04  0.37738847773E+04  0.00000000000E+00 0. -1.
         -2   -1    0    0    0  501 -0.00000000000E+00 -0.00000000000E+00 -0.27522247376E+04  0.27522247376E+04  0.00000000000E+00 0.  1.
         23    2    1    2    0    0  0.29242271804E+04  0.12630662788E+04  0.19061486632E+02  0.31867016503E+04  0.90901268921E+02 0.  0.
         13    1    3    3    0    0  0.10009359678E+04  0.46987956612E+03  0.32779339388E+02  0.11062251594E+04  0.00000000000E+00 0.  1.
        -13    1    3    3    0    0  0.19232912126E+04  0.79318671269E+03 -0.13717852756E+02  0.20804764909E+04  0.00000000000E+00 0. -1.
         22    1    1    2    0    0 -0.29242271804E+04 -0.12630662788E+04  0.10025985530E+04  0.33394078645E+04  0.00000000000E+00 0.  1.
<mgrwt>
<rscale>  0 0.64456432E+04</rscale>
<asrwt>0</asrwt>
<pdfrwt beam="1">  1        2 0.58059766E+00 0.64456432E+04</pdfrwt>
<pdfrwt beam="2">  1       -2 0.42341919E+00 0.64456432E+04</pdfrwt>
<totfact> 0.17387158E-03</totfact>
</mgrwt>
</event>
<event>
 6    1  0.9562506E-007  0.1589523E+04  0.7818608E-02  0.8827010E-01
         -1   -1    0    0    0  501 -0.00000000000E+00  0.00000000000E+00  0.11021159757E+04  0.11021159757E+04  0.00000000000E+00 0.  1.
          1   -1    0    0  501    0  0.00000000000E+00 -0.00000000000E+00 -0.57312136047E+03  0.57312136047E+03  0.00000000000E+00 0. -1.
         23    2    1    2    0    0  0.72708201002E+03  0.10359895384E+03  0.57830766711E+03  0.93915801328E+03  0.90537415082E+02 0.  0.
         11    1    3    3    0    0  0.17900721373E+03  0.40530066483E+02  0.19232524151E+03  0.26584820364E+03  0.00000000000E+00 0. -1.
        -11    1    3    3    0    0  0.54807479629E+03  0.63068887359E+02  0.38598242561E+03  0.67330980964E+03  0.00000000000E+00 0.  1.
         22    1    1    2    0    0 -0.72708201002E+03 -0.10359895384E+03 -0.49313051858E+02  0.73607932291E+03  0.00000000000E+00 0. -1.
<mgrwt>
<rscale>  0 0.15895235E+04</rscale>
<asrwt>0</asrwt>
<pdfrwt beam="1">  1        1 0.88172517E-01 0.15895235E+04</pdfrwt>
<pdfrwt beam="2">  1       -1 0.16955630E+00 0.15895235E+04</pdfrwt>
<totfact> 0.87096162E+00</totfact>
</mgrwt>
</event>
<event>
 6    1  0.9562506E-007  0.1492228E+04  0.7818608E-02  0.8889638E-01
         -1   -1    0    0    0  501 -0.00000000000E+00  0.00000000000E+00  0.11346982965E+04  0.11346982965E+04  0.00000000000E+00 0.  1.
          1   -1    0    0  501    0  0.00000000000E+00 -0.00000000000E+00 -0.49060257797E+03  0.49060257797E+03  0.00000000000E+00 0. -1.
         23    2    1    2    0    0  0.67876734058E+03  0.19443420053E+03  0.70189751265E+02  0.71541196904E+03  0.91421678480E+02 0.  0.
         13    1    3    3    0    0  0.13481970575E+03  0.64148905473E+02 -0.13248772457E+02  0.14988984323E+03  0.00000000000E+00 0. -1.
        -13    1    3    3    0    0  0.54394763482E+03  0.13028529505E+03  0.83438523722E+02  0.56552212581E+03  0.00000000000E+00 0.  1.
         22    1    1    2    0    0 -0.67876734058E+03 -0.19443420053E+03  0.57390596725E+03  0.90988890542E+03  0.00000000000E+00 0.  1.
<mgrwt>
<rscale>  0 0.14922277E+04</rscale>
<asrwt>0</asrwt>
<pdfrwt beam="1">  1        1 0.75477320E-01 0.14922277E+04</pdfrwt>
<pdfrwt beam="2">  1       -1 0.17456897E+00 0.14922277E+04</pdfrwt>
<totfact> 0.10032657E+01</totfact>
</mgrwt>
</event>
<event>
 6    1  0.9562506E-007  0.3877658E+04  0.7818608E-02  0.8029692E-01
          2   -1    0    0  501    0  0.00000000000E+00  0.00000000000E+00  0.26755054303E+04  0.26755054303E+04  0.00000000000E+00 0. -1.
         -2   -1    0    0    0  501 -0.00000000000E+00 -0.00000000000E+00 -0.14049895971E+04  0.14049895971E+04  0.00000000000E+00 0.  1.
         23    2    1    2    0    0  0.30932698991E+03 -0.36951257601E+03  0.26106830367E+04  0.26563212797E+04  0.90300013839E+02 0.  0.
         11    1    3    3    0    0  0.27152733662E+03 -0.26834616086E+03  0.19821908612E+04  0.20186176872E+04  0.00000000000E+00 0.  1.
        -11    1    3    3    0    0  0.37799653293E+02 -0.10116641515E+03  0.62849217543E+03  0.63770359253E+03  0.00000000000E+00 0. -1.
         22    1    1    2    0    0 -0.30932698991E+03  0.36951257601E+03 -0.13401672035E+04  0.14241737478E+04  0.00000000000E+00 0.  1.
<mgrwt>
<rscale>  0 0.38776577E+04</rscale>
<asrwt>0</asrwt>
<pdfrwt beam="1">  1        2 0.41161622E+00 0.38776577E+04</pdfrwt>
<pdfrwt beam="2">  1       -2 0.21615225E+00 0.38776577E+04</pdfrwt>
<totfact> 0.22874316E-01</totfact>
</mgrwt>
</event>
<event>
 6    1  0.9562506E-007  0.3687851E+04  0.7818608E-02  0.8070660E-01
          2   -1    0    0  501    0  0.00000000000E+00  0.00000000000E+00  0.33359723173E+04  0.33359723173E+04  0.00000000000E+00 0. -1.
         -2   -1    0    0    0  501 -0.00000000000E+00 -0.00000000000E+00 -0.10192112264E+04  0.10192112264E+04  0.00000000000E+00 0.  1.
         23    2    1    2    0    0 -0.16589898048E+04  0.57357729921E+03  0.18211568709E+04  0.25312148945E+04  0.95908304720E+02 0.  0.
         13    1    3    3    0    0 -0.48884266450E+03  0.13832360511E+03  0.48071342402E+03  0.69941830573E+03  0.00000000000E+00 0.  1.
        -13    1    3    3    0    0 -0.11701471403E+04  0.43525369410E+03  0.13404434469E+04  0.18317965887E+04  0.00000000000E+00 0. -1.
         22    1    1    2    0    0  0.16589898048E+04 -0.57357729921E+03  0.49560422002E+03  0.18239686493E+04  0.00000000000E+00 0. -1.
<mgrwt>
<rscale>  0 0.36878506E+04</rscale>
<asrwt>0</asrwt>
<pdfrwt beam="1">  1        2 0.51322650E+00 0.36878506E+04</pdfrwt>
<pdfrwt beam="2">  1       -2 0.15680173E+00 0.36878506E+04</pdfrwt>
<totfact> 0.22657759E-01</totfact>
</mgrwt>
</event>
<event>
 6    1  0.9562506E-007  0.1175171E+04  0.7818608E-02  0.9134871E-01
          2   -1    0    0  501    0  0.00000000000E+00  0.00000000000E+00  0.21298466017E+04  0.21298466017E+04  0.00000000000E+00 0. -1.
         -2   -1    0    0    0  501 -0.00000000000E+00 -0.00000000000E+00 -0.16210414241E+03  0.16210414241E+03  0.00000000000E+00 0.  1.
         23    2    1    2    0    0 -0.88556679374E+02 -0.56031134523E+03  0.12610728839E+04  0.13857647931E+04  0.90819349339E+02 0.  0.
         11    1    3    3    0    0 -0.35911412709E+02 -0.42994349955E+03  0.89322683184E+03  0.99196532978E+03  0.00000000000E+00 0.  1.
        -11    1    3    3    0    0 -0.52645266664E+02 -0.13036784568E+03  0.36784605205E+03  0.39379946330E+03  0.00000000000E+00 0. -1.
         22    1    1    2    0    0  0.88556679374E+02  0.56031134523E+03  0.70666957541E+03  0.90618595105E+03  0.00000000000E+00 0. -1.
<mgrwt>
<rscale>  0 0.11751714E+04</rscale>
<asrwt>0</asrwt>
<pdfrwt beam="1">  1        2 0.32766869E+00 0.11751714E+04</pdfrwt>
<pdfrwt beam="2">  1       -2 0.24939100E-01 0.11751714E+04</pdfrwt>
<totfact> 0.80732658E+01</totfact>
</mgrwt>
</event>
<event>
 6    1  0.9562506E-007  0.1545012E+04  0.7818608E-02  0.8855060E-01
         -1   -1    0    0    0  501 -0.00000000000E+00  0.00000000000E+00  0.41866064947E+03  0.41866064947E+03  0.00000000000E+00 0.  1.
          1   -1    0    0  501    0  0.00000000000E+00 -0.00000000000E+00 -0.14254165072E+04  0.14254165072E+04  0.00000000000E+00 0. -1.
         23    2    1    2    0    0  0.17793535248E+03 -0.32470519451E+03 -0.13107362362E+04  0.13650171150E+04  0.90265111305E+02 0.  0.
         11    1    3    3    0    0  0.15639413658E+03 -0.32234662566E+03 -0.12075840321E+04  0.12596133008E+04  0.00000000000E+00 0.  1.
        -11    1    3    3    0    0  0.21541215903E+02 -0.23585688526E+01 -0.10315220415E+03  0.10540381421E+03  0.00000000000E+00 0. -1.
         22    1    1    2    0    0 -0.17793535248E+03  0.32470519451E+03  0.30398037849E+03  0.47906004166E+03  0.00000000000E+00 0.  1.
<mgrwt>
<rscale>  0 0.15450124E+04</rscale>
<asrwt>0</asrwt>
<pdfrwt beam="1">  1        1 0.21929484E+00 0.15450124E+04</pdfrwt>
<pdfrwt beam="2">  1       -1 0.64409331E-01 0.15450124E+04</pdfrwt>
<totfact> 0.17370785E+01</totfact>
</mgrwt>
</event>
<event>
 6    1  0.9562506E-007  0.1664601E+04  0.7818608E-02  0.8781815E-01
          2   -1    0    0  501    0  0.00000000000E+00  0.00000000000E+00  0.31552538710E+04  0.31552538710E+04  0.00000000000E+00 0. -1.
         -2   -1    0    0    0  501 -0.00000000000E+00 -0.00000000000E+00 -0.21954616523E+03  0.21954616523E+03  0.00000000000E+00 0.  1.
         23    2    1    2    0    0 -0.11967563049E+03  0.69260698729E+03  0.57846602398E+03  0.91500023915E+03  0.92605622838E+02 0.  0.
         11    1    3    3    0    0 -0.11690874985E+02  0.79024967722E+02  0.31214417447E+02  0.85766904677E+02  0.00000000000E+00 0.  1.
        -11    1    3    3    0    0 -0.10798475550E+03  0.61358201957E+03  0.54725160653E+03  0.82923333448E+03  0.00000000000E+00 0. -1.
         22    1    1    2    0    0  0.11967563049E+03 -0.69260698729E+03  0.23572416817E+04  0.24597997970E+04  0.00000000000E+00 0. -1.
<mgrwt>
<rscale>  0 0.16646007E+04</rscale>
<asrwt>0</asrwt>
<pdfrwt beam="1">  1        2 0.48542364E+00 0.16646007E+04</pdfrwt>
<pdfrwt beam="2">  1       -2 0.33776335E-01 0.16646007E+04</pdfrwt>
<totfact> 0.10921217E+01</totfact>
</mgrwt>
</event>
<event>
 6    1  0.9562506E-007  0.2537506E+04  0.7818608E-02  0.8389744E-01
          1   -1    0    0  501    0  0.00000000000E+00  0.00000000000E+00  0.17637514898E+04  0.17637514898E+04  0.00000000000E+00 0. -1.
         -1   -1    0    0    0  501 -0.00000000000E+00 -0.00000000000E+00 -0.91267637355E+03  0.91267637355E+03  0.00000000000E+00 0.  1.
         23    2    1    2    0    0 -0.21637545221E+03 -0.33928948828E+03  0.16933860809E+04  0.17429272184E+04  0.91121767088E+02 0.  0.
         13    1    3    3    0    0 -0.20937974444E+03 -0.26962360187E+03  0.14521333025E+04  0.14917197768E+04  0.00000000000E+00 0. -1.
        -13    1    3    3    0    0 -0.69957077612E+01 -0.69665886412E+02  0.24125277836E+03  0.25120744161E+03  0.00000000000E+00 0.  1.
         22    1    1    2    0    0  0.21637545221E+03  0.33928948828E+03 -0.84231096460E+03  0.93350064502E+03  0.00000000000E+00 0.  1.
<mgrwt>
<rscale>  0 0.25375061E+04</rscale>
<asrwt>0</asrwt>
<pdfrwt beam="1">  1        1 0.27134638E+00 0.25375061E+04</pdfrwt>
<pdfrwt beam="2">  1       -1 0.14041175E+00 0.25375061E+04</pdfrwt>
<totfact> 0.15882067E+00</totfact>
</mgrwt>
</event>
<event>
 6    1  0.9562506E-007  0.5431340E+03  0.7818608E-02  0.1003096E+00
         -1   -1    0    0    0  501 -0.00000000000E+00  0.00000000000E+00  0.30254521239E+03  0.30254521239E+03  0.00000000000E+00 0.  1.
          1   -1    0    0  501    0  0.00000000000E+00 -0.00000000000E+00 -0.24376073289E+03  0.24376073289E+03  0.00000000000E+00 0. -1.
         23    2    1    2    0    0  0.19374411895E+03 -0.10435013229E+03  0.17709256888E+03  0.29646091781E+03  0.90008689032E+02 0.  0.
         11    1    3    3    0    0  0.27348223508E+02 -0.56793840561E+02  0.63362047989E+02  0.89376813437E+02  0.00000000000E+00 0. -1.
        -11    1    3    3    0    0  0.16639589544E+03 -0.47556291725E+02  0.11373052089E+03  0.20708410438E+03  0.00000000000E+00 0.  1.
         22    1    1    2    0    0 -0.19374411895E+03  0.10435013229E+03 -0.11830808938E+03  0.24984502747E+03  0.00000000000E+00 0. -1.
<mgrwt>
<rscale>  0 0.54313403E+03</rscale>
<asrwt>0</asrwt>
<pdfrwt beam="1">  1        1 0.37501651E-01 0.54313403E+03</pdfrwt>
<pdfrwt beam="2">  1       -1 0.46545417E-01 0.54313403E+03</pdfrwt>
<totfact> 0.53391438E+02</totfact>
</mgrwt>
</event>
<event>
 6    1  0.9562506E-007  0.2721793E+04  0.7818608E-02  0.8327968E-01
          2   -1    0    0  501    0  0.00000000000E+00  0.00000000000E+00  0.37237520381E+04  0.37237520381E+04  0.00000000000E+00 0. -1.
         -2   -1    0    0    0  501 -0.00000000000E+00 -0.00000000000E+00 -0.49735827949E+03  0.49735827949E+03  0.00000000000E+00 0.  1.
         23    2    1    2    0    0 -0.25648306503E+03  0.13286147337E+04  0.14120391722E+04  0.19577315957E+04  0.88643690051E+02 0.  0.
         11    1    3    3    0    0 -0.19071567203E+03  0.93395408501E+03  0.93690227808E+03  0.13365734470E+04  0.00000000000E+00 0.  1.
        -11    1    3    3    0    0 -0.65767392992E+02  0.39466064872E+03  0.47513689409E+03  0.62115814875E+03  0.00000000000E+00 0. -1.
         22    1    1    2    0    0  0.25648306503E+03 -0.13286147337E+04  0.18143545864E+04  0.22633787219E+04  0.00000000000E+00 0. -1.
<mgrwt>
<rscale>  0 0.27217927E+04</rscale>
<asrwt>0</asrwt>
<pdfrwt beam="1">  1        2 0.57288491E+00 0.27217927E+04</pdfrwt>
<pdfrwt beam="2">  1       -2 0.76516661E-01 0.27217927E+04</pdfrwt>
<totfact> 0.75006476E-01</totfact>
</mgrwt>
</event>
<event>
 6    1  0.9562506E-007  0.6579563E+03  0.7818608E-02  0.9791963E-01
          1   -1    0    0  501    0  0.00000000000E+00  0.00000000000E+00  0.74617357252E+03  0.74617357252E+03  0.00000000000E+00 0. -1.
         -1   -1    0    0    0  501 -0.00000000000E+00 -0.00000000000E+00 -0.14504213593E+03  0.14504213593E+03  0.00000000000E+00 0.  1.
         23    2    1    2    0    0  0.22896591696E+01  0.25310344158E+03  0.30918308819E+02  0.26734905142E+03  0.80330435062E+02 0.  0.
         11    1    3    3    0    0  0.34867951540E+02  0.18562575915E+03  0.35897459899E+02  0.19225328120E+03  0.00000000000E+00 0.  1.
        -11    1    3    3    0    0 -0.32578292370E+02  0.67477682432E+02 -0.49791510805E+01  0.75095770224E+02  0.00000000000E+00 0. -1.
         22    1    1    2    0    0 -0.22896591696E+01 -0.25310344158E+03  0.57021312777E+03  0.62386665704E+03  0.00000000000E+00 0. -1.
<mgrwt>
<rscale>  0 0.65795626E+03</rscale>
<asrwt>0</asrwt>
<pdfrwt beam="1">  1        1 0.11479593E+00 0.65795626E+03</pdfrwt>
<pdfrwt beam="2">  1       -1 0.22314175E-01 0.65795626E+03</pdfrwt>
<totfact> 0.42447075E+02</totfact>
</mgrwt>
</event>
<event>
 6    1  0.9562506E-007  0.1633190E+04  0.7818608E-02  0.8800413E-01
          2   -1    0    0  501    0  0.00000000000E+00  0.00000000000E+00  0.10179011407E+04  0.10179011407E+04  0.00000000000E+00 0. -1.
         -2   -1    0    0    0  501 -0.00000000000E+00 -0.00000000000E+00 -0.65510066923E+03  0.65510066923E+03  0.00000000000E+00 0.  1.
         23    2    1    2    0    0 -0.27470590698E+03 -0.74646409064E+03  0.35924363486E+03  0.87758705959E+03  0.91820934600E+02 0.  0.
         13    1    3    3    0    0 -0.11126646206E+03 -0.25156321158E+03  0.80864749145E+02  0.28671132286E+03  0.00000000000E+00 0.  1.
        -13    1    3    3    0    0 -0.16343944492E+03 -0.49490087906E+03  0.27837888572E+03  0.59087573674E+03  0.00000000000E+00 0. -1.
         22    1    1    2    0    0  0.27470590698E+03  0.74646409064E+03  0.35568365902E+01  0.79541475032E+03  0.00000000000E+00 0.  1.
<mgrwt>
<rscale>  0 0.16331904E+04</rscale>
<asrwt>0</asrwt>
<pdfrwt beam="1">  1        2 0.15660018E+00 0.16331904E+04</pdfrwt>
<pdfrwt beam="2">  1       -2 0.10078472E+00 0.16331904E+04</pdfrwt>
<totfact> 0.19028310E+01</totfact>
</mgrwt>
</event>
<event>
 6    1  0.9562506E-007  0.4183416E+04  0.7818608E-02  0.7968534E-01
          2   -1    0    0  501    0  0.00000000000E+00  0.00000000000E+00  0.28265256052E+04  0.28265256052E+04  0.00000000000E+00 0. -1.
         -2   -1    0    0    0  501 -0.00000000000E+00 -0.00000000000E+00 -0.15479227612E+04  0.15479227612E+04  0.00000000000E+00 0.  1.
         23    2    1    2    0    0  0.12754444152E+04 -0.16449523996E+04  0.84422568747E+03  0.22481110537E+04  0.93056139822E+02 0.  0.
         13    1    3    3    0    0  0.98708137613E+03 -0.12481928257E+04  0.60561856365E+03  0.17026710833E+04  0.00000000000E+00 0. -1.
        -13    1    3    3    0    0  0.28836303911E+03 -0.39675957386E+03  0.23860712382E+03  0.54543997040E+03  0.00000000000E+00 0.  1.
         22    1    1    2    0    0 -0.12754444152E+04  0.16449523996E+04  0.43437715654E+03  0.21263373127E+04  0.00000000000E+00 0. -1.
<mgrwt>
<rscale>  0 0.41834165E+04</rscale>
<asrwt>0</asrwt>
<pdfrwt beam="1">  1        2 0.43485009E+00 0.41834165E+04</pdfrwt>
<pdfrwt beam="2">  1       -2 0.23814196E+00 0.41834165E+04</pdfrwt>
<totfact> 0.13171301E-01</totfact>
</mgrwt>
</event>
<event>
 6    1  0.9562506E-007  0.9111288E+03  0.7818608E-02  0.9411776E-01
          1   -1    0    0  501    0  0.00000000000E+00  0.00000000000E+00  0.52576933956E+03  0.52576933956E+03  0.00000000000E+00 0. -1.
         -1   -1    0    0    0  501 -0.00000000000E+00 -0.00000000000E+00 -0.39473381709E+03  0.39473381709E+03  0.00000000000E+00 0.  1.
         23    2    1    2    0    0 -0.37008811542E+03 -0.25137070205E+03  0.89622225750E+01  0.45676364618E+03  0.91652954200E+02 0.  0.
         11    1    3    3    0    0 -0.71329653101E+02 -0.50666083742E+02 -0.34877757387E+02  0.94188265796E+02  0.00000000000E+00 0.  1.
        -11    1    3    3    0    0 -0.29875846232E+03 -0.20070461831E+03  0.43839979962E+02  0.36257538038E+03  0.00000000000E+00 0. -1.
         22    1    1    2    0    0  0.37008811542E+03  0.25137070205E+03  0.12207329990E+03  0.46373951047E+03  0.00000000000E+00 0. -1.
<mgrwt>
<rscale>  0 0.91112883E+03</rscale>
<asrwt>0</asrwt>
<pdfrwt beam="1">  1        1 0.80887591E-01 0.91112883E+03</pdfrwt>
<pdfrwt beam="2">  1       -1 0.60728279E-01 0.91112883E+03</pdfrwt>
<totfact> 0.11451016E+02</totfact>
</mgrwt>
</event>
<event>
 6    1  0.9562506E-007  0.2567245E+04  0.7818608E-02  0.8379413E-01
          2   -1    0    0  501    0  0.00000000000E+00  0.00000000000E+00  0.34970758351E+04  0.34970758351E+04  0.00000000000E+00 0. -1.
         -2   -1    0    0    0  501 -0.00000000000E+00 -0.00000000000E+00 -0.47116124966E+03  0.47116124966E+03  0.00000000000E+00 0.  1.
         23    2    1    2    0    0 -0.96595405224E+03  0.60468539842E+03  0.24225226553E+04  0.26787435860E+04  0.91320982928E+02 0.  0.
         13    1    3    3    0    0 -0.13050305677E+03  0.65530324843E+02  0.25073793159E+03  0.29016337060E+03  0.00000000000E+00 0.  1.
        -13    1    3    3    0    0 -0.83545099548E+03  0.53915507357E+03  0.21717847237E+04  0.23885802154E+04  0.00000000000E+00 0. -1.
         22    1    1    2    0    0  0.96595405224E+03 -0.60468539842E+03  0.60339193019E+03  0.12894934988E+04  0.00000000000E+00 0.  1.
<mgrwt>
<rscale>  0 0.25672449E+04</rscale>
<asrwt>0</asrwt>
<pdfrwt beam="1">  1        2 0.53801165E+00 0.25672449E+04</pdfrwt>
<pdfrwt beam="2">  1       -2 0.72486349E-01 0.25672449E+04</pdfrwt>
<totfact> 0.12485528E+00</totfact>
</mgrwt>
</event>
<event>
 6    1  0.9562506E-007  0.1544245E+04  0.7818608E-02  0.8855552E-01
         -2   -1    0    0    0  501 -0.00000000000E+00  0.00000000000E+00  0.23965360872E+03  0.23965360872E+03  0.00000000000E+00 0.  1.
          2   -1    0    0  501    0  0.00000000000E+00 -0.00000000000E+00 -0.24876441716E+04  0.24876441716E+04  0.00000000000E+00 0. -1.
         23    2    1    2    0    0  0.27152911985E+03  0.16424223290E+03 -0.23658394087E+04  0.23887834905E+04  0.91579925194E+02 0.  0.
         11    1    3    3    0    0  0.13607840326E+03  0.94622747512E+02 -0.90729229674E+03  0.92230694886E+03  0.00000000000E+00 0. -1.
        -11    1    3    3    0    0  0.13545071659E+03  0.69619485392E+02 -0.14585471119E+04  0.14664765416E+04  0.00000000000E+00 0.  1.
         22    1    1    2    0    0 -0.27152911985E+03 -0.16424223290E+03  0.11784884577E+03  0.33851428987E+03  0.00000000000E+00 0.  1.
<mgrwt>
<rscale>  0 0.15442447E+04</rscale>
<asrwt>0</asrwt>
<pdfrwt beam="1">  1        2 0.38271452E+00 0.15442447E+04</pdfrwt>
<pdfrwt beam="2">  1       -2 0.36869783E-01 0.15442447E+04</pdfrwt>
<totfact> 0.23677181E+01</totfact>
</mgrwt>
</event>
<event>
 6    1  0.9562506E-007  0.6863098E+03  0.7818608E-02  0.9740935E-01
         -1   -1    0    0    0  501 -0.00000000000E+00  0.00000000000E+00  0.80709782740E+03  0.80709782740E+03  0.00000000000E+00 0.  1.
          1   -1    0    0  501    0  0.00000000000E+00 -0.00000000000E+00 -0.14589962321E+03  0.14589962321E+03  0.00000000000E+00 0. -1.
         23    2    1    2    0    0  0.17975240184E+03  0.28067099211E+03  0.26384370596E+03  0.43436682190E+03  0.89296713318E+02 0.  0.
         11    1    3    3    0    0  0.13953030929E+03  0.13634615528E+03  0.15535878882E+03  0.24938992468E+03  0.00000000000E+00 0.  1.
        -11    1    3    3    0    0  0.40222092554E+02  0.14432483684E+03  0.10848491714E+03  0.18497689722E+03  0.00000000000E+00 0. -1.
         22    1    1    2    0    0 -0.17975240184E+03 -0.28067099211E+03  0.39735449823E+03  0.51863062872E+03  0.00000000000E+00 0.  1.
<mgrwt>
<rscale>  0 0.68630975E+03</rscale>
<asrwt>0</asrwt>
<pdfrwt beam="1">  1        1 0.22446096E-01 0.68630975E+03</pdfrwt>
<pdfrwt beam="2">  1       -1 0.12416889E+00 0.68630975E+03</pdfrwt>
<totfact> 0.13037205E+02</totfact>
</mgrwt>
</event>
<event>
 6    1  0.9562506E-007  0.2728818E+04  0.7818608E-02  0.8325715E-01
         -1   -1    0    0    0  501 -0.00000000000E+00  0.00000000000E+00  0.65304607446E+03  0.65304607446E+03  0.00000000000E+00 0.  1.
          1   -1    0    0  501    0  0.00000000000E+00 -0.00000000000E+00 -0.28506585526E+04  0.28506585526E+04  0.00000000000E+00 0. -1.
         23    2    1    2    0    0 -0.54264548808E+03 -0.11494896528E+04 -0.17312682951E+04  0.21497225428E+04  0.90700130119E+02 0.  0.
         11    1    3    3    0    0 -0.98157390060E+02 -0.28801824909E+03 -0.38368480257E+03  0.48969726644E+03  0.00000000000E+00 0.  1.
        -11    1    3    3    0    0 -0.44448809802E+03 -0.86147140369E+03 -0.13475834925E+04  0.16600252763E+04  0.00000000000E+00 0. -1.
         22    1    1    2    0    0  0.54264548808E+03  0.11494896528E+04 -0.46634418302E+03  0.13539820843E+04  0.00000000000E+00 0.  1.
<mgrwt>
<rscale>  0 0.27288176E+04</rscale>
<asrwt>0</asrwt>
<pdfrwt beam="1">  1        1 0.43856286E+00 0.27288176E+04</pdfrwt>
<pdfrwt beam="2">  1       -1 0.10046863E+00 0.27288176E+04</pdfrwt>
<totfact> 0.62934091E-01</totfact>
</mgrwt>
</event>
<event>
 6    1  0.9562506E-007  0.2693033E+04  0.7818608E-02  0.8337269E-01
         -2   -1    0    0    0  501 -0.00000000000E+00  0.00000000000E+00  0.91663859398E+03  0.91663859398E+03  0.00000000000E+00 0.  1.
          2   -1    0    0  501    0  0.00000000000E+00 -0.00000000000E+00 -0.19779953793E+04  0.19779953793E+04  0.00000000000E+00 0. -1.
         23    2    1    2    0    0  0.38925524578E+03 -0.12312917135E+04 -0.93505584871E+03  0.15971167840E+04  0.94093843112E+02 0.  0.
         13    1    3    3    0    0  0.84394203421E+02 -0.23516991420E+03 -0.22665988521E+03  0.33734548119E+03  0.00000000000E+00 0. -1.
        -13    1    3    3    0    0  0.30486104236E+03 -0.99612179929E+03 -0.70839596349E+03  0.12597713028E+04  0.00000000000E+00 0.  1.
         22    1    1    2    0    0 -0.38925524578E+03  0.12312917135E+04 -0.12630093666E+03  0.12975171894E+04  0.00000000000E+00 0.  1.
<mgrwt>
<rscale>  0 0.26930332E+04</rscale>
<asrwt>0</asrwt>
<pdfrwt beam="1">  1        2 0.30430698E+00 0.26930332E+04</pdfrwt>
<pdfrwt beam="2">  1       -2 0.14102132E+00 0.26930332E+04</pdfrwt>
<totfact> 0.21261363E+00</totfact>
</mgrwt>
</event>
<event>
 6    1  0.9562506E-007  0.2726113E+04  0.7818608E-02  0.8326582E-01
          2   -1    0    0  501    0  0.00000000000E+00  0.00000000000E+00  0.29380032340E+04  0.29380032340E+04  0.00000000000E+00 0. -1.
         -2   -1    0    0    0  501 -0.00000000000E+00 -0.00000000000E+00 -0.63237612969E+03  0.63237612969E+03  0.00000000000E+00 0.  1.
         23    2    1    2    0    0 -0.79699040533E+03  0.37983800276E+03 -0.20344064215E+03  0.91051253039E+03  0.90412159452E+02 0.  0.
         11    1    3    3    0    0 -0.36145074531E+03  0.13760270435E+03 -0.56002721251E+02  0.39079080122E+03  0.00000000000E+00 0. -1.
        -11    1    3    3    0    0 -0.43553966002E+03  0.24223529841E+03 -0.14743792090E+03  0.51972172916E+03  0.00000000000E+00 0.  1.
         22    1    1    2    0    0  0.79699040533E+03 -0.37983800276E+03  0.25090677464E+04  0.26598668333E+04  0.00000000000E+00 0. -1.
<mgrwt>
<rscale>  0 0.27261131E+04</rscale>
<asrwt>0</asrwt>
<pdfrwt beam="1">  1        2 0.45200049E+00 0.27261131E+04</pdfrwt>
<pdfrwt beam="2">  1       -2 0.97288637E-01 0.27261131E+04</pdfrwt>
<totfact> 0.14680786E+00</totfact>
</mgrwt>
</event>
<event>
 6    1  0.9562506E-007  0.1508039E+04  0.7818608E-02  0.8879125E-01
          1   -1    0    0  501    0  0.00000000000E+00  0.00000000000E+00  0.46287973281E+03  0.46287973281E+03  0.00000000000E+00 0. -1.
         -1   -1    0    0    0  501 -0.00000000000E+00 -0.00000000000E+00 -0.12282785275E+04  0.12282785275E+04  0.00000000000E+00 0.  1.
         23    2    1    2    0    0  0.75151733398E+03  0.49178111746E+01 -0.38860253346E+03  0.85045741539E+03  0.86390961528E+02 0.  0.
         13    1    3    3    0    0  0.23028210624E+03  0.16854315940E+02 -0.16148721242E+03  0.28176592447E+03  0.00000000000E+00 0.  1.
        -13    1    3    3    0    0  0.52123522774E+03 -0.11936504766E+02 -0.22711532104E+03  0.56869149092E+03  0.00000000000E+00 0. -1.
         22    1    1    2    0    0 -0.75151733398E+03 -0.49178111746E+01 -0.37679626120E+03  0.84070084489E+03  0.00000000000E+00 0. -1.
<mgrwt>
<rscale>  0 0.15080388E+04</rscale>
<asrwt>0</asrwt>
<pdfrwt beam="1">  1        1 0.71212269E-01 0.15080388E+04</pdfrwt>
<pdfrwt beam="2">  1       -1 0.18896592E+00 0.15080388E+04</pdfrwt>
<totfact> 0.85578935E+00</totfact>
</mgrwt>
</event>
<event>
 6    1  0.9562506E-007  0.2403773E+04  0.7818608E-02  0.8438092E-01
         -2   -1    0    0    0  501 -0.00000000000E+00  0.00000000000E+00  0.52703276974E+03  0.52703276974E+03  0.00000000000E+00 0.  1.
          2   -1    0    0  501    0  0.00000000000E+00 -0.00000000000E+00 -0.27408751991E+04  0.27408751991E+04  0.00000000000E+00 0. -1.
         23    2    1    2    0    0  0.11673996740E+04 -0.25799896402E+03 -0.12481684985E+04  0.17310567708E+04  0.96163811094E+02 0.  0.
         11    1    3    3    0    0  0.39943060484E+03 -0.13502757007E+03 -0.44568750585E+03  0.61352636914E+03  0.00000000000E+00 0.  1.
        -11    1    3    3    0    0  0.76796906918E+03 -0.12297139395E+03 -0.80248099267E+03  0.11175304016E+04  0.00000000000E+00 0. -1.
         22    1    1    2    0    0 -0.11673996740E+04  0.25799896402E+03 -0.96567393084E+03  0.15368511981E+04  0.00000000000E+00 0. -1.
<mgrwt>
<rscale>  0 0.24037729E+04</rscale>
<asrwt>0</asrwt>
<pdfrwt beam="1">  1        2 0.42167310E+00 0.24037729E+04</pdfrwt>
<pdfrwt beam="2">  1       -2 0.81081965E-01 0.24037729E+04</pdfrwt>
<totfact> 0.30263231E+00</totfact>
</mgrwt>
</event>
<event>
 6    1  0.9562506E-007  0.4428835E+04  0.7818608E-02  0.7923215E-01
         -1   -1    0    0    0  501 -0.00000000000E+00  0.00000000000E+00  0.13683798938E+04  0.13683798938E+04  0.00000000000E+00 0.  1.
          1   -1    0    0  501    0  0.00000000000E+00 -0.00000000000E+00 -0.35835411616E+04  0.35835411616E+04  0.00000000000E+00 0. -1.
         23    2    1    2    0    0  0.61986792375E+03 -0.21734061455E+02  0.12681528383E+04  0.14138162275E+04  0.77175718485E+02 0.  0.
         13    1    3    3    0    0  0.24304255410E+03  0.24358410662E+02  0.53861546982E+03  0.59141325619E+03  0.00000000000E+00 0.  1.
        -13    1    3    3    0    0  0.37682536965E+03 -0.46092472117E+02  0.72953736845E+03  0.82240297128E+03  0.00000000000E+00 0. -1.
         22    1    1    2    0    0 -0.61986792375E+03  0.21734061455E+02 -0.34833141060E+04  0.35381048280E+04  0.00000000000E+00 0. -1.
<mgrwt>
<rscale>  0 0.44288354E+04</rscale>
<asrwt>0</asrwt>
<pdfrwt beam="1">  1        1 0.55131401E+00 0.44288354E+04</pdfrwt>
<pdfrwt beam="2">  1       -1 0.21051999E+00 0.44288354E+04</pdfrwt>
<totfact> 0.20633435E-02</totfact>
</mgrwt>
</event>
<event>
 6    1  0.9562506E-007  0.2168627E+04  0.7818608E-02  0.8531601E-01
          2   -1    0    0  501    0  0.00000000000E+00  0.00000000000E+00  0.13219998592E+04  0.13219998592E+04  0.00000000000E+00 0. -1.
         -2   -1    0    0    0  501 -0.00000000000E+00 -0.00000000000E+00 -0.88936165709E+03  0.88936165709E+03  0.00000000000E+00 0.  1.
         23    2    1    2    0    0  0.17169898326E+03  0.13934761038E+03  0.12971708950E+04  0.13189966388E+04  0.90562160678E+02 0.  0.
         13    1    3    3    0    0  0.39766211816E+02 -0.77714877156E+01  0.18239209423E+03  0.18683849619E+03  0.00000000000E+00 0.  1.
        -13    1    3    3    0    0  0.13193277144E+03  0.14711909810E+03  0.11147788008E+04  0.11321581426E+04  0.00000000000E+00 0. -1.
         22    1    1    2    0    0 -0.17169898326E+03 -0.13934761038E+03 -0.86453269293E+03  0.89236487746E+03  0.00000000000E+00 0.  1.
<mgrwt>
<rscale>  0 0.21686272E+04</rscale>
<asrwt>0</asrwt>
<pdfrwt beam="1">  1        2 0.20338459E+00 0.21686272E+04</pdfrwt>
<pdfrwt beam="2">  1       -2 0.13682487E+00 0.21686272E+04</pdfrwt>
<totfact> 0.56074438E+00</totfact>
</mgrwt>
</event>
<event>
 6    1  0.9562506E-007  0.1093145E+04  0.7818608E-02  0.9211899E-01
          2   -1    0    0  501    0  0.00000000000E+00  0.00000000000E+00  0.29142649104E+04  0.29142649104E+04  0.00000000000E+00 0. -1.
         -2   -1    0    0    0  501 -0.00000000000E+00 -0.00000000000E+00 -0.10251005024E+03  0.10251005024E+03  0.00000000000E+00 0.  1.
         23    2    1    2    0    0  0.20424877630E+03 -0.27121451242E+03  0.25846154177E+04  0.26082811410E+04  0.87285615911E+02 0.  0.
         11    1    3    3    0    0  0.10101339326E+03 -0.20108770743E+03  0.15805639955E+04  0.15965032150E+04  0.00000000000E+00 0.  1.
        -11    1    3    3    0    0  0.10323538304E+03 -0.70126804985E+02  0.10040514223E+04  0.10117779260E+04  0.00000000000E+00 0. -1.
         22    1    1    2    0    0 -0.20424877630E+03  0.27121451242E+03  0.22713944246E+03  0.40849381965E+03  0.00000000000E+00 0. -1.
<mgrwt>
<rscale>  0 0.10931449E+04</rscale>
<asrwt>0</asrwt>
<pdfrwt beam="1">  1        2 0.44834838E+00 0.10931449E+04</pdfrwt>
<pdfrwt beam="2">  1       -2 0.15770779E-01 0.10931449E+04</pdfrwt>
<totfact> 0.64152289E+01</totfact>
</mgrwt>
</event>
<event>
 6    1  0.9562506E-007  0.1814070E+04  0.7818608E-02  0.8698853E-01
         -2   -1    0    0    0  501 -0.00000000000E+00  0.00000000000E+00  0.48888598530E+03  0.48888598530E+03  0.00000000000E+00 0.  1.
          2   -1    0    0  501    0  0.00000000000E+00 -0.00000000000E+00 -0.16828316124E+04  0.16828316124E+04  0.00000000000E+00 0. -1.
         23    2    1    2    0    0 -0.71970311599E+02 -0.89991631520E+03 -0.67073205682E+03  0.11282706464E+04  0.89911396871E+02 0.  0.
         13    1    3    3    0    0 -0.57936532066E+01 -0.57720421719E+03 -0.40725457282E+03  0.70643793913E+03  0.00000000000E+00 0. -1.
        -13    1    3    3    0    0 -0.66176658393E+02 -0.32271209801E+03 -0.26347748400E+03  0.42183270724E+03  0.00000000000E+00 0.  1.
         22    1    1    2    0    0  0.71970311599E+02  0.89991631520E+03 -0.52321357027E+03  0.10434469513E+04  0.00000000000E+00 0.  1.
<mgrwt>
<rscale>  0 0.18140703E+04</rscale>
<asrwt>0</asrwt>
<pdfrwt beam="1">  1        2 0.25889718E+00 0.18140703E+04</pdfrwt>
<pdfrwt beam="2">  1       -2 0.75213227E-01 0.18140703E+04</pdfrwt>
<totfact> 0.14999858E+01</totfact>
</mgrwt>
</event>
<event>
 6    1  0.9562506E-007  0.2759574E+04  0.7818608E-02  0.8315930E-01
          2   -1    0    0  501    0  0.00000000000E+00  0.00000000000E+00  0.28543408019E+04  0.28543408019E+04  0.00000000000E+00 0. -1.
         -2   -1    0    0    0  501 -0.00000000000E+00 -0.00000000000E+00 -0.66698831446E+03  0.66698831446E+03  0.00000000000E+00 0.  1.
         23    2    1    2    0    0  0.37188941501E+03 -0.13198217243E+04  0.91796132245E+03  0.16527507662E+04  0.93279068235E+02 0.  0.
         11    1    3    3    0    0  0.43415083257E+02 -0.75366987314E+02  0.49453429805E+02  0.10005345547E+03  0.00000000000E+00 0.  1.
        -11    1    3    3    0    0  0.32847433176E+03 -0.12444547370E+04  0.86850789265E+03  0.15526973107E+04  0.00000000000E+00 0. -1.
         22    1    1    2    0    0 -0.37188941501E+03  0.13198217243E+04  0.12693911650E+04  0.18685783502E+04  0.00000000000E+00 0. -1.
<mgrwt>
<rscale>  0 0.27595739E+04</rscale>
<asrwt>0</asrwt>
<pdfrwt beam="1">  1        2 0.43912935E+00 0.27595739E+04</pdfrwt>
<pdfrwt beam="2">  1       -2 0.10261359E+00 0.27595739E+04</pdfrwt>
<totfact> 0.14526233E+00</totfact>
</mgrwt>
</event>
<event>
 6    1  0.9562506E-007  0.1194141E+04  0.7818608E-02  0.9118000E-01
          1   -1    0    0  501    0  0.00000000000E+00  0.00000000000E+00  0.28601015914E+03  0.28601015914E+03  0.00000000000E+00 0. -1.
         -1   -1    0    0    0  501 -0.00000000000E+00 -0.00000000000E+00 -0.12464363925E+04  0.12464363925E+04  0.00000000000E+00 0.  1.
         23    2    1    2    0    0  0.10701948775E+03  0.15710061782E+03 -0.12045995254E+04  0.12230045193E+04  0.92445999538E+02 0.  0.
         13    1    3    3    0    0  0.46670813891E+02  0.10865548829E+03 -0.48293825227E+03  0.49720572756E+03  0.00000000000E+00 0. -1.
        -13    1    3    3    0    0  0.60348673855E+02  0.48445129531E+02 -0.72166127311E+03  0.72579879176E+03  0.00000000000E+00 0.  1.
         22    1    1    2    0    0 -0.10701948775E+03 -0.15710061782E+03  0.24417329199E+03  0.30944203237E+03  0.00000000000E+00 0. -1.
<mgrwt>
<rscale>  0 0.11941415E+04</rscale>
<asrwt>0</asrwt>
<pdfrwt beam="1">  1        1 0.44001563E-01 0.11941415E+04</pdfrwt>
<pdfrwt beam="2">  1       -1 0.19175945E+00 0.11941415E+04</pdfrwt>
<totfact> 0.15871831E+01</totfact>
</mgrwt>
</event>
<event>
 6    1  0.9562506E-007  0.2250478E+04  0.7818608E-02  0.8497707E-01
         -3   -1    0    0    0  501 -0.00000000000E+00  0.00000000000E+00  0.13445127293E+04  0.13445127293E+04  0.00000000000E+00 0.  1.
          3   -1    0    0  501    0  0.00000000000E+00 -0.00000000000E+00 -0.94172634550E+03  0.94172634550E+03  0.00000000000E+00 0. -1.
         23    2    1    2    0    0  0.76070307687E+03 -0.72340069104E+03 -0.20477100466E+03  0.10733484321E+04  0.90376774207E+02 0.  0.
         11    1    3    3    0    0  0.36635847722E+03 -0.36043009012E+03 -0.14541050108E+03  0.53410916255E+03  0.00000000000E+00 0.  1.
        -11    1    3    3    0    0  0.39434459965E+03 -0.36297060091E+03 -0.59360503578E+02  0.53923926951E+03  0.00000000000E+00 0. -1.
         22    1    1    2    0    0 -0.76070307687E+03  0.72340069104E+03  0.60755738843E+03  0.12128906427E+04  0.00000000000E+00 0. -1.
<mgrwt>
<rscale>  0 0.22504782E+04</rscale>
<asrwt>0</asrwt>
<pdfrwt beam="1">  1        3 0.14488098E+00 0.22504782E+04</pdfrwt>
<pdfrwt beam="2">  1       -3 0.20684811E+00 0.22504782E+04</pdfrwt>
<totfact> 0.11142646E-01</totfact>
</mgrwt>
</event>
<event>
 6    1  0.9562506E-007  0.4987766E+04  0.7818608E-02  0.7830397E-01
          2   -1    0    0  501    0  0.00000000000E+00  0.00000000000E+00  0.24858706144E+04  0.24858706144E+04  0.00000000000E+00 0. -1.
         -2   -1    0    0    0  501 -0.00000000000E+00 -0.00000000000E+00 -0.25019215525E+04  0.25019215525E+04  0.00000000000E+00 0.  1.
         23    2    1    2    0    0 -0.18992719537E+04  0.15677924317E+04 -0.39510816353E+03  0.24960274422E+04  0.93997171745E+02 0.  0.
         11    1    3    3    0    0 -0.12842561390E+04  0.10831813985E+04 -0.30992396755E+03  0.17084052910E+04  0.00000000000E+00 0.  1.
        -11    1    3    3    0    0 -0.61501581466E+03  0.48461103326E+03 -0.85184195984E+02  0.78762215121E+03  0.00000000000E+00 0. -1.
         22    1    1    2    0    0  0.18992719537E+04 -0.15677924317E+04  0.37905722546E+03  0.24917647247E+04  0.00000000000E+00 0. -1.
<mgrwt>
<rscale>  0 0.49877663E+04</rscale>
<asrwt>0</asrwt>
<pdfrwt beam="1">  1        2 0.38244163E+00 0.49877663E+04</pdfrwt>
<pdfrwt beam="2">  1       -2 0.38491101E+00 0.49877663E+04</pdfrwt>
<totfact> 0.24067535E-02</totfact>
</mgrwt>
</event>
<event>
 6    1  0.9562506E-007  0.1968180E+04  0.7818608E-02  0.8621644E-01
          2   -1    0    0  501    0  0.00000000000E+00  0.00000000000E+00  0.19988083488E+04  0.19988083488E+04  0.00000000000E+00 0. -1.
         -2   -1    0    0    0  501 -0.00000000000E+00 -0.00000000000E+00 -0.48450507844E+03  0.48450507844E+03  0.00000000000E+00 0.  1.
         23    2    1    2    0    0  0.61326670567E+03  0.38622884444E+03 -0.77502676113E+02  0.73428085356E+03  0.88842189000E+02 0.  0.
         13    1    3    3    0    0  0.45674328530E+03  0.31636681396E+03 -0.30026931521E+02  0.55642070976E+03  0.00000000000E+00 0. -1.
        -13    1    3    3    0    0  0.15652342037E+03  0.69862030483E+02 -0.47475744592E+02  0.17786014380E+03  0.00000000000E+00 0.  1.
         22    1    1    2    0    0 -0.61326670567E+03 -0.38622884444E+03  0.15918059465E+04  0.17490325737E+04  0.00000000000E+00 0. -1.
<mgrwt>
<rscale>  0 0.19681797E+04</rscale>
<asrwt>0</asrwt>
<pdfrwt beam="1">  1        2 0.30750897E+00 0.19681797E+04</pdfrwt>
<pdfrwt beam="2">  1       -2 0.74539244E-01 0.19681797E+04</pdfrwt>
<totfact> 0.10088655E+01</totfact>
</mgrwt>
</event>
<event>
 6    1  0.9562506E-007  0.1344322E+04  0.7818608E-02  0.8995137E-01
          2   -1    0    0  501    0  0.00000000000E+00  0.00000000000E+00  0.25080091535E+04  0.25080091535E+04  0.00000000000E+00 0. -1.
         -2   -1    0    0    0  501 -0.00000000000E+00 -0.00000000000E+00 -0.18014315904E+03  0.18014315904E+03  0.00000000000E+00 0.  1.
         23    2    1    2    0    0  0.10214685862E+03 -0.65016857293E+03  0.92972687284E+03  0.11428542321E+04  0.92577447773E+02 0.  0.
         11    1    3    3    0    0  0.36958219271E+02 -0.49409551602E+03  0.69080725424E+03  0.85012408003E+03  0.00000000000E+00 0. -1.
        -11    1    3    3    0    0  0.65188639353E+02 -0.15607305691E+03  0.23891961860E+03  0.29273015209E+03  0.00000000000E+00 0.  1.
         22    1    1    2    0    0 -0.10214685862E+03  0.65016857293E+03  0.13981391216E+04  0.15452980804E+04  0.00000000000E+00 0. -1.
<mgrwt>
<rscale>  0 0.13443224E+04</rscale>
<asrwt>0</asrwt>
<pdfrwt beam="1">  1        2 0.38584754E+00 0.13443224E+04</pdfrwt>
<pdfrwt beam="2">  1       -2 0.27714334E-01 0.13443224E+04</pdfrwt>
<totfact> 0.40154408E+01</totfact>
</mgrwt>
</event>
<event>
 6    1  0.9562506E-007  0.3020195E+04  0.7818608E-02  0.8237988E-01
         -2   -1    0    0    0  501 -0.00000000000E+00  0.00000000000E+00  0.10531820972E+04  0.10531820972E+04  0.00000000000E+00 0.  1.
          2   -1    0    0  501    0  0.00000000000E+00 -0.00000000000E+00 -0.21652418674E+04  0.21652418674E+04  0.00000000000E+00 0. -1.
         23    2    1    2    0    0 -0.83987641351E+03 -0.70715540368E+03  0.54614815612E+03  0.12296769517E+04  0.91468257233E+02 0.  0.
         11    1    3    3    0    0 -0.69362135599E+03 -0.54333299497E+03  0.45821084092E+03  0.99311555403E+03  0.00000000000E+00 0. -1.
        -11    1    3    3    0    0 -0.14625505751E+03 -0.16382240871E+03  0.87937315199E+02  0.23656139763E+03  0.00000000000E+00 0.  1.
         22    1    1    2    0    0  0.83987641351E+03  0.70715540368E+03 -0.16582079263E+04  0.19887470130E+04  0.00000000000E+00 0. -1.
<mgrwt>
<rscale>  0 0.30201947E+04</rscale>
<asrwt>0</asrwt>
<pdfrwt beam="1">  1        2 0.33311413E+00 0.30201947E+04</pdfrwt>
<pdfrwt beam="2">  1       -2 0.16202802E+00 0.30201947E+04</pdfrwt>
<totfact> 0.11234364E+00</totfact>
</mgrwt>
</event>
<event>
 6    1  0.9562506E-007  0.2389049E+04  0.7818608E-02  0.8443615E-01
          1   -1    0    0  501    0  0.00000000000E+00  0.00000000000E+00  0.76506040025E+03  0.76506040025E+03  0.00000000000E+00 0. -1.
         -1   -1    0    0    0  501 -0.00000000000E+00 -0.00000000000E+00 -0.18650663252E+04  0.18650663252E+04  0.00000000000E+00 0.  1.
         23    2    1    2    0    0  0.66052571428E+03  0.43311690158E+03 -0.15347523403E+04  0.17285232010E+04  0.91887109532E+02 0.  0.
         11    1    3    3    0    0  0.27471162062E+03  0.17620609436E+03 -0.73400918912E+03  0.80329605496E+03  0.00000000000E+00 0.  1.
        -11    1    3    3    0    0  0.38581409366E+03  0.25691080722E+03 -0.80074315116E+03  0.92522714609E+03  0.00000000000E+00 0. -1.
         22    1    1    2    0    0 -0.66052571428E+03 -0.43311690158E+03  0.43474641529E+03  0.90160352443E+03  0.00000000000E+00 0. -1.
<mgrwt>
<rscale>  0 0.23890487E+04</rscale>
<asrwt>0</asrwt>
<pdfrwt beam="1">  1        1 0.11770160E+00 0.23890487E+04</pdfrwt>
<pdfrwt beam="2">  1       -1 0.28693328E+00 0.23890487E+04</pdfrwt>
<totfact> 0.85472276E-01</totfact>
</mgrwt>
</event>
<event>
 6    1  0.9562506E-007  0.2352373E+04  0.7818608E-02  0.8457553E-01
         -2   -1    0    0    0  501 -0.00000000000E+00  0.00000000000E+00  0.10772252194E+04  0.10772252194E+04  0.00000000000E+00 0.  1.
          2   -1    0    0  501    0  0.00000000000E+00 -0.00000000000E+00 -0.12842395765E+04  0.12842395765E+04  0.00000000000E+00 0. -1.
         23    2    1    2    0    0  0.33266589402E+03 -0.22393546460E+03 -0.12116773261E+04  0.12797248223E+04  0.93380881432E+02 0.  0.
         13    1    3    3    0    0  0.17362284367E+02 -0.47589215357E+01 -0.14345207242E+03  0.14457729190E+03  0.00000000000E+00 0. -1.
        -13    1    3    3    0    0  0.31530360966E+03 -0.21917654307E+03 -0.10682252536E+04  0.11351475304E+04  0.00000000000E+00 0.  1.
         22    1    1    2    0    0 -0.33266589402E+03  0.22393546460E+03  0.10046629689E+04  0.10817399736E+04  0.00000000000E+00 0.  1.
<mgrwt>
<rscale>  0 0.23523735E+04</rscale>
<asrwt>0</asrwt>
<pdfrwt beam="1">  1        2 0.19757532E+00 0.23523735E+04</pdfrwt>
<pdfrwt beam="2">  1       -2 0.16572696E+00 0.23523735E+04</pdfrwt>
<totfact> 0.34869821E+00</totfact>
</mgrwt>
</event>
<event>
 6    1  0.9562506E-007  0.1979262E+04  0.7818608E-02  0.8616378E-01
         -2   -1    0    0    0  501 -0.00000000000E+00  0.00000000000E+00  0.50879176894E+03  0.50879176894E+03  0.00000000000E+00 0.  1.
          2   -1    0    0  501    0  0.00000000000E+00 -0.00000000000E+00 -0.19248934796E+04  0.19248934796E+04  0.00000000000E+00 0. -1.
         23    2    1    2    0    0  0.13145055621E+03 -0.83230285258E+03 -0.13427294110E+04  0.15878774799E+04  0.91789612097E+02 0.  0.
         11    1    3    3    0    0  0.14285040846E+02 -0.38293731015E+03 -0.60296565705E+03  0.71443168287E+03  0.00000000000E+00 0.  1.
        -11    1    3    3    0    0  0.11716551537E+03 -0.44936554243E+03 -0.73976375396E+03  0.87344579705E+03  0.00000000000E+00 0. -1.
         22    1    1    2    0    0 -0.13145055621E+03  0.83230285258E+03 -0.73372299671E+02  0.84580776865E+03  0.00000000000E+00 0. -1.
<mgrwt>
<rscale>  0 0.19792624E+04</rscale>
<asrwt>0</asrwt>
<pdfrwt beam="1">  1        2 0.29613746E+00 0.19792624E+04</pdfrwt>
<pdfrwt beam="2">  1       -2 0.78275657E-01 0.19792624E+04</pdfrwt>
<totfact> 0.99357650E+00</totfact>
</mgrwt>
</event>
<event>
 6    1  0.9562506E-007  0.2463670E+04  0.7818608E-02  0.8416044E-01
          3   -1    0    0  501    0  0.00000000000E+00  0.00000000000E+00  0.49714469077E+03  0.49714469077E+03  0.00000000000E+00 0. -1.
         -3   -1    0    0    0  501 -0.00000000000E+00 -0.00000000000E+00 -0.30522643808E+04  0.30522643808E+04  0.00000000000E+00 0.  1.
         23    2    1    2    0    0 -0.99912083878E+03  0.47096147574E+03 -0.20593288973E+04  0.23386838045E+04  0.92516313015E+02 0.  0.
         13    1    3    3    0    0 -0.42422992507E+03  0.22382503379E+03 -0.80894121208E+03  0.94045444317E+03  0.00000000000E+00 0. -1.
        -13    1    3    3    0    0 -0.57489091371E+03  0.24713644195E+03 -0.12503876852E+04  0.13982293613E+04  0.00000000000E+00 0.  1.
         22    1    1    2    0    0  0.99912083878E+03 -0.47096147574E+03 -0.49579079277E+03  0.12107252671E+04  0.00000000000E+00 0. -1.
<mgrwt>
<rscale>  0 0.24636696E+04</rscale>
<asrwt>0</asrwt>
<pdfrwt beam="1">  1        3 0.76483802E-01 0.24636696E+04</pdfrwt>
<pdfrwt beam="2">  1       -3 0.46957911E+00 0.24636696E+04</pdfrwt>
<totfact> 0.16550117E-02</totfact>
</mgrwt>
</event>
<event>
 6    1  0.9562506E-007  0.2157447E+04  0.7818608E-02  0.8536351E-01
          1   -1    0    0  501    0  0.00000000000E+00  0.00000000000E+00  0.65822602619E+03  0.65822602619E+03  0.00000000000E+00 0. -1.
         -1   -1    0    0    0  501 -0.00000000000E+00 -0.00000000000E+00 -0.17678499175E+04  0.17678499175E+04  0.00000000000E+00 0.  1.
         23    2    1    2    0    0  0.97517899259E+03  0.45367569488E+03 -0.61464692258E+03  0.12421004780E+04  0.90703110956E+02 0.  0.
         11    1    3    3    0    0  0.28921153831E+03  0.17388295114E+03 -0.16695441818E+03  0.37650016247E+03  0.00000000000E+00 0. -1.
        -11    1    3    3    0    0  0.68596745428E+03  0.27979274374E+03 -0.44769250440E+03  0.86560031554E+03  0.00000000000E+00 0.  1.
         22    1    1    2    0    0 -0.97517899259E+03 -0.45367569488E+03 -0.49497696870E+03  0.11839754656E+04  0.00000000000E+00 0. -1.
<mgrwt>
<rscale>  0 0.21574474E+04</rscale>
<asrwt>0</asrwt>
<pdfrwt beam="1">  1        1 0.10126554E+00 0.21574474E+04</pdfrwt>
<pdfrwt beam="2">  1       -1 0.27197691E+00 0.21574474E+04</pdfrwt>
<totfact> 0.13723946E+00</totfact>
</mgrwt>
</event>
<event>
 6    1  0.9562506E-007  0.1337649E+04  0.7818608E-02  0.9000231E-01
         -1   -1    0    0    0  501 -0.00000000000E+00  0.00000000000E+00  0.26339907415E+03  0.26339907415E+03  0.00000000000E+00 0.  1.
          1   -1    0    0  501    0  0.00000000000E+00 -0.00000000000E+00 -0.16982821220E+04  0.16982821220E+04  0.00000000000E+00 0. -1.
         23    2    1    2    0    0 -0.27224747963E+03  0.48760519319E+03 -0.12520079909E+04  0.13740411694E+04  0.92669365297E+02 0.  0.
         13    1    3    3    0    0 -0.11540258655E+03  0.27854161436E+03 -0.74332290083E+03  0.80214220860E+03  0.00000000000E+00 0. -1.
        -13    1    3    3    0    0 -0.15684489309E+03  0.20906357883E+03 -0.50868509008E+03  0.57189896079E+03  0.00000000000E+00 0.  1.
         22    1    1    2    0    0  0.27224747963E+03 -0.48760519319E+03 -0.18287505692E+03  0.58764002675E+03  0.00000000000E+00 0.  1.
<mgrwt>
<rscale>  0 0.13376486E+04</rscale>
<asrwt>0</asrwt>
<pdfrwt beam="1">  1        1 0.26127418E+00 0.13376486E+04</pdfrwt>
<pdfrwt beam="2">  1       -1 0.40522933E-01 0.13376486E+04</pdfrwt>
<totfact> 0.27851228E+01</totfact>
</mgrwt>
</event>
<event>
 6    1  0.9562506E-007  0.2461398E+04  0.7818608E-02  0.8416868E-01
         -1   -1    0    0    0  501 -0.00000000000E+00  0.00000000000E+00  0.97831232058E+03  0.97831232058E+03  0.00000000000E+00 0.  1.
          1   -1    0    0  501    0  0.00000000000E+00 -0.00000000000E+00 -0.15481973193E+04  0.15481973193E+04  0.00000000000E+00 0. -1.
         23    2    1    2    0    0 -0.86882338986E+03  0.38471804418E+03 -0.10855370030E+04  0.14454180407E+04  0.89334602824E+02 0.  0.
         13    1    3    3    0    0 -0.68258322770E+03  0.27788440007E+03 -0.88437435173E+03  0.11511983307E+04  0.00000000000E+00 0.  1.
        -13    1    3    3    0    0 -0.18624016216E+03  0.10683364411E+03 -0.20116265130E+03  0.29421971007E+03  0.00000000000E+00 0. -1.
         22    1    1    2    0    0  0.86882338986E+03 -0.38471804418E+03  0.51565200427E+03  0.10810915992E+04  0.00000000000E+00 0.  1.
<mgrwt>
<rscale>  0 0.24613984E+04</rscale>
<asrwt>0</asrwt>
<pdfrwt beam="1">  1        1 0.23818420E+00 0.24613984E+04</pdfrwt>
<pdfrwt beam="2">  1       -1 0.15050959E+00 0.24613984E+04</pdfrwt>
<totfact> 0.18669122E+00</totfact>
</mgrwt>
</event>
<event>
 6    1  0.9562506E-007  0.1672838E+04  0.7818608E-02  0.8777009E-01
          2   -1    0    0  501    0  0.00000000000E+00  0.00000000000E+00  0.92732357837E+03  0.92732357837E+03  0.00000000000E+00 0. -1.
         -2   -1    0    0    0  501 -0.00000000000E+00 -0.00000000000E+00 -0.75442583967E+03  0.75442583967E+03  0.00000000000E+00 0.  1.
         23    2    1    2    0    0  0.19593303603E+03  0.50891484918E+03  0.72124105828E+03  0.90840313439E+03  0.87312725795E+02 0.  0.
         11    1    3    3    0    0  0.15139356015E+03  0.40743184109E+03  0.51191414127E+03  0.67154806471E+03  0.00000000000E+00 0. -1.
        -11    1    3    3    0    0  0.44539475873E+02  0.10148300809E+03  0.20932691702E+03  0.23685506967E+03  0.00000000000E+00 0.  1.
         22    1    1    2    0    0 -0.19593303603E+03 -0.50891484918E+03 -0.54834331957E+03  0.77334628366E+03  0.00000000000E+00 0.  1.
<mgrwt>
<rscale>  0 0.16728382E+04</rscale>
<asrwt>0</asrwt>
<pdfrwt beam="1">  1        2 0.14266517E+00 0.16728382E+04</pdfrwt>
<pdfrwt beam="2">  1       -2 0.11606551E+00 0.16728382E+04</pdfrwt>
<totfact> 0.15451956E+01</totfact>
</mgrwt>
</event>
<event>
 6    1  0.9562506E-007  0.1122644E+04  0.7818608E-02  0.9183399E-01
          2   -1    0    0  501    0  0.00000000000E+00  0.00000000000E+00  0.15018763273E+04  0.15018763273E+04  0.00000000000E+00 0. -1.
         -2   -1    0    0    0  501 -0.00000000000E+00 -0.00000000000E+00 -0.20979237059E+03  0.20979237059E+03  0.00000000000E+00 0.  1.
         23    2    1    2    0    0 -0.29213415160E+03 -0.46188364423E+03  0.81923134786E+03  0.98898726527E+03  0.90977723788E+02 0.  0.
         11    1    3    3    0    0 -0.18407618699E+03 -0.30315468380E+03  0.60502268149E+03  0.70131251952E+03  0.00000000000E+00 0. -1.
        -11    1    3    3    0    0 -0.10805796461E+03 -0.15872896043E+03  0.21420866637E+03  0.28767474575E+03  0.00000000000E+00 0.  1.
         22    1    1    2    0    0  0.29213415160E+03  0.46188364423E+03  0.47285260882E+03  0.72268143258E+03  0.00000000000E+00 0. -1.
<mgrwt>
<rscale>  0 0.11226437E+04</rscale>
<asrwt>0</asrwt>
<pdfrwt beam="1">  1        2 0.23105789E+00 0.11226437E+04</pdfrwt>
<pdfrwt beam="2">  1       -2 0.32275750E-01 0.11226437E+04</pdfrwt>
<totfact> 0.11214078E+02</totfact>
</mgrwt>
</event>
<event>
 6    1  0.9562506E-007  0.2215028E+04  0.7818608E-02  0.8512199E-01
         -1   -1    0    0    0  501 -0.00000000000E+00  0.00000000000E+00  0.10997858540E+04  0.10997858540E+04  0.00000000000E+00 0.  1.
          1   -1    0    0  501    0  0.00000000000E+00 -0.00000000000E+00 -0.11152966099E+04  0.11152966099E+04  0.00000000000E+00 0. -1.
         23    2    1    2    0    0  0.87366278910E+02  0.69556867540E+03 -0.86272526035E+03  0.11154365821E+04  0.91952406088E+02 0.  0.
         13    1    3    3    0    0  0.83913447464E+02  0.35331550421E+03 -0.40629858715E+03  0.54493288954E+03  0.00000000000E+00 0. -1.
        -13    1    3    3    0    0  0.34528314459E+01  0.34225317119E+03 -0.45642667320E+03  0.57050369258E+03  0.00000000000E+00 0.  1.
         22    1    1    2    0    0 -0.87366278910E+02 -0.69556867540E+03  0.84721450440E+03  0.10996458818E+04  0.00000000000E+00 0.  1.
<mgrwt>
<rscale>  0 0.22150282E+04</rscale>
<asrwt>0</asrwt>
<pdfrwt beam="1">  1        1 0.17158409E+00 0.22150282E+04</pdfrwt>
<pdfrwt beam="2">  1       -1 0.16919782E+00 0.22150282E+04</pdfrwt>
<totfact> 0.28044341E+00</totfact>
</mgrwt>
</event>
<event>
 6    1  0.9562506E-007  0.2606842E+04  0.7818608E-02  0.8365881E-01
         -1   -1    0    0    0  501 -0.00000000000E+00  0.00000000000E+00  0.54566737789E+03  0.54566737789E+03  0.00000000000E+00 0.  1.
          1   -1    0    0  501    0  0.00000000000E+00 -0.00000000000E+00 -0.31134464453E+04  0.31134464453E+04  0.00000000000E+00 0. -1.
         23    2    1    2    0    0  0.50251294997E+03 -0.10162748564E+04 -0.21835285497E+04  0.24620414323E+04  0.92288885415E+02 0.  0.
         13    1    3    3    0    0  0.12782965124E+03 -0.30767634436E+03 -0.72111262182E+03  0.79436047609E+03  0.00000000000E+00 0. -1.
        -13    1    3    3    0    0  0.37468329873E+03 -0.70859851204E+03 -0.14624159278E+04  0.16676809562E+04  0.00000000000E+00 0.  1.
         22    1    1    2    0    0 -0.50251294997E+03  0.10162748564E+04 -0.38425051770E+03  0.11970723909E+04  0.00000000000E+00 0. -1.
<mgrwt>
<rscale>  0 0.26068419E+04</rscale>
<asrwt>0</asrwt>
<pdfrwt beam="1">  1        1 0.47899176E+00 0.26068419E+04</pdfrwt>
<pdfrwt beam="2">  1       -1 0.83948828E-01 0.26068419E+04</pdfrwt>
<totfact> 0.61051910E-01</totfact>
</mgrwt>
</event>
<event>
 6    1  0.9562506E-007  0.1047324E+04  0.7818608E-02  0.9258111E-01
          2   -1    0    0  501    0  0.00000000000E+00  0.00000000000E+00  0.10137877101E+04  0.10137877101E+04  0.00000000000E+00 0. -1.
         -2   -1    0    0    0  501 -0.00000000000E+00 -0.00000000000E+00 -0.27049249452E+03  0.27049249452E+03  0.00000000000E+00 0.  1.
         23    2    1    2    0    0  0.17953124785E+03 -0.48519642565E+01  0.97249872122E+03  0.99309425456E+03  0.90705155105E+02 0.  0.
         11    1    3    3    0    0 -0.22739422557E+01 -0.17372705128E+02  0.56916776487E+02  0.59552507441E+02  0.00000000000E+00 0. -1.
        -11    1    3    3    0    0  0.18180519011E+03  0.12520740871E+02  0.91558194473E+03  0.93354174712E+03  0.00000000000E+00 0.  1.
         22    1    1    2    0    0 -0.17953124785E+03  0.48519642565E+01 -0.22920350564E+03  0.29118595006E+03  0.00000000000E+00 0.  1.
<mgrwt>
<rscale>  0 0.10473241E+04</rscale>
<asrwt>0</asrwt>
<pdfrwt beam="1">  1        2 0.15596734E+00 0.10473241E+04</pdfrwt>
<pdfrwt beam="2">  1       -2 0.41614230E-01 0.10473241E+04</pdfrwt>
<totfact> 0.13438038E+02</totfact>
</mgrwt>
</event>
<event>
 6    1  0.9562506E-007  0.1320976E+04  0.7818608E-02  0.9013094E-01
          1   -1    0    0  501    0  0.00000000000E+00  0.00000000000E+00  0.91504429684E+03  0.91504429684E+03  0.00000000000E+00 0. -1.
         -1   -1    0    0    0  501 -0.00000000000E+00 -0.00000000000E+00 -0.47674688629E+03  0.47674688629E+03  0.00000000000E+00 0.  1.
         23    2    1    2    0    0 -0.22631800345E+02 -0.52767844458E+03 -0.19210934113E+03  0.56937437165E+03  0.91238352031E+02 0.  0.
         11    1    3    3    0    0  0.34969548210E+02 -0.16021662374E+03 -0.62322030212E+02  0.17543167124E+03  0.00000000000E+00 0.  1.
        -11    1    3    3    0    0 -0.57601348555E+02 -0.36746182084E+03 -0.12978731092E+03  0.39394270040E+03  0.00000000000E+00 0. -1.
         22    1    1    2    0    0  0.22631800345E+02  0.52767844458E+03  0.63040675168E+03  0.82241681149E+03  0.00000000000E+00 0. -1.
<mgrwt>
<rscale>  0 0.13209762E+04</rscale>
<asrwt>0</asrwt>
<pdfrwt beam="1">  1        1 0.14077605E+00 0.13209762E+04</pdfrwt>
<pdfrwt beam="2">  1       -1 0.73345675E-01 0.13209762E+04</pdfrwt>
<totfact> 0.32511396E+01</totfact>
</mgrwt>
</event>
<event>
 6    1  0.9562506E-007  0.1295021E+04  0.7818608E-02  0.9033523E-01
         -2   -1    0    0    0  501 -0.00000000000E+00  0.00000000000E+00  0.92403584969E+03  0.92403584969E+03  0.00000000000E+00 0.  1.
          2   -1    0    0  501    0  0.00000000000E+00 -0.00000000000E+00 -0.45373732438E+03  0.45373732438E+03  0.00000000000E+00 0. -1.
         23    2    1    2    0    0  0.45489642912E+03 -0.42461839293E+03  0.41591664657E+03  0.75312212782E+03  0.83514918904E+02 0.  0.
         11    1    3    3    0    0  0.12938024816E+03 -0.84259246378E+02  0.13250422057E+03  0.20346065389E+03  0.00000000000E+00 0. -1.
        -11    1    3    3    0    0  0.32551618096E+03 -0.34035914656E+03  0.28341242600E+03  0.54966147393E+03  0.00000000000E+00 0.  1.
         22    1    1    2    0    0 -0.45489642912E+03  0.42461839293E+03  0.54381878728E+02  0.62465104625E+03  0.00000000000E+00 0. -1.
<mgrwt>
<rscale>  0 0.12950205E+04</rscale>
<asrwt>0</asrwt>
<pdfrwt beam="1">  1        2 0.69805743E-01 0.12950205E+04</pdfrwt>
<pdfrwt beam="2">  1       -2 0.14215936E+00 0.12950205E+04</pdfrwt>
<totfact> 0.23292372E+01</totfact>
</mgrwt>
</event>
<event>
 6    1  0.9562506E-007  0.9245095E+03  0.7818608E-02  0.9395451E-01
          1   -1    0    0  501    0  0.00000000000E+00  0.00000000000E+00  0.53701944142E+03  0.53701944142E+03  0.00000000000E+00 0. -1.
         -1   -1    0    0    0  501 -0.00000000000E+00 -0.00000000000E+00 -0.39789894149E+03  0.39789894149E+03  0.00000000000E+00 0.  1.
         23    2    1    2    0    0  0.35925932224E+03 -0.34860070675E+02  0.35478221596E+03  0.51445142713E+03  0.92235378079E+02 0.  0.
         13    1    3    3    0    0  0.24342494159E+03 -0.66644635896E+02  0.23658486605E+03  0.34593295380E+03  0.00000000000E+00 0.  1.
        -13    1    3    3    0    0  0.11583438065E+03  0.31784565221E+02  0.11819734991E+03  0.16851847333E+03  0.00000000000E+00 0. -1.
         22    1    1    2    0    0 -0.35925932224E+03  0.34860070675E+02 -0.21566171603E+03  0.42046695578E+03  0.00000000000E+00 0.  1.
<mgrwt>
<rscale>  0 0.92450953E+03</rscale>
<asrwt>0</asrwt>
<pdfrwt beam="1">  1        1 0.82618375E-01 0.92450953E+03</pdfrwt>
<pdfrwt beam="2">  1       -1 0.61215222E-01 0.92450953E+03</pdfrwt>
<totfact> 0.10933738E+02</totfact>
</mgrwt>
</event>
<event>
 6    1  0.9562506E-007  0.7866527E+03  0.7818608E-02  0.9579540E-01
          2   -1    0    0  501    0  0.00000000000E+00  0.00000000000E+00  0.95669242154E+03  0.95669242154E+03  0.00000000000E+00 0. -1.
         -2   -1    0    0    0  501 -0.00000000000E+00 -0.00000000000E+00 -0.16170883052E+03  0.16170883052E+03  0.00000000000E+00 0.  1.
         23    2    1    2    0    0 -0.23512162508E+03 -0.12852059253E+02 -0.35513945525E+02  0.25516691990E+03  0.91660038584E+02 0.  0.
         11    1    3    3    0    0 -0.14892221910E+03 -0.29529354277E+02 -0.61194302537E+02  0.16369041746E+03  0.00000000000E+00 0. -1.
        -11    1    3    3    0    0 -0.86199405983E+02  0.16677295025E+02  0.25680357012E+02  0.91476502433E+02  0.00000000000E+00 0.  1.
         22    1    1    2    0    0  0.23512162508E+03  0.12852059253E+02  0.83049753655E+03  0.86323433216E+03  0.00000000000E+00 0. -1.
<mgrwt>
<rscale>  0 0.78665269E+03</rscale>
<asrwt>0</asrwt>
<pdfrwt beam="1">  1        2 0.14718345E+00 0.78665269E+03</pdfrwt>
<pdfrwt beam="2">  1       -2 0.24878282E-01 0.78665269E+03</pdfrwt>
<totfact> 0.39056070E+02</totfact>
</mgrwt>
</event>
<event>
 6    1  0.9562506E-007  0.1658617E+04  0.7818608E-02  0.8785325E-01
         -1   -1    0    0    0  501 -0.00000000000E+00  0.00000000000E+00  0.37872947878E+03  0.37872947878E+03  0.00000000000E+00 0.  1.
          1   -1    0    0  501    0  0.00000000000E+00 -0.00000000000E+00 -0.18159458360E+04  0.18159458360E+04  0.00000000000E+00 0. -1.
         23    2    1    2    0    0 -0.31159439017E+03  0.21624025799E+03 -0.16930125682E+04  0.17372011464E+04  0.87893993107E+02 0.  0.
         13    1    3    3    0    0 -0.14671657260E+03  0.49553581692E+02 -0.68065344074E+03  0.69804757469E+03  0.00000000000E+00 0.  1.
        -13    1    3    3    0    0 -0.16487781756E+03  0.16668667630E+03 -0.10123591274E+04  0.10391535717E+04  0.00000000000E+00 0. -1.
         22    1    1    2    0    0  0.31159439017E+03 -0.21624025799E+03  0.25579621096E+03  0.45747416834E+03  0.00000000000E+00 0.  1.
<mgrwt>
<rscale>  0 0.16586166E+04</rscale>
<asrwt>0</asrwt>
<pdfrwt beam="1">  1        1 0.27937628E+00 0.16586166E+04</pdfrwt>
<pdfrwt beam="2">  1       -1 0.58266075E-01 0.16586166E+04</pdfrwt>
<totfact> 0.11325498E+01</totfact>
</mgrwt>
</event>
<event>
 6    1  0.9562506E-007  0.2957037E+04  0.7818608E-02  0.8256107E-01
         -1   -1    0    0    0  501 -0.00000000000E+00  0.00000000000E+00  0.12511671292E+04  0.12511671292E+04  0.00000000000E+00 0.  1.
          1   -1    0    0  501    0  0.00000000000E+00 -0.00000000000E+00 -0.17471817290E+04  0.17471817290E+04  0.00000000000E+00 0. -1.
         23    2    1    2    0    0  0.47518782069E+03  0.13932012432E+04 -0.12398363635E+03  0.14800536937E+04  0.91508606917E+02 0.  0.
         11    1    3    3    0    0  0.69389233028E+02  0.26844034500E+03 -0.52524298058E+02  0.28219476673E+03  0.00000000000E+00 0. -1.
        -11    1    3    3    0    0  0.40579858766E+03  0.11247608982E+04 -0.71459338290E+02  0.11978589269E+04  0.00000000000E+00 0.  1.
         22    1    1    2    0    0 -0.47518782069E+03 -0.13932012432E+04 -0.37203096338E+03  0.15182951645E+04  0.00000000000E+00 0. -1.
<mgrwt>
<rscale>  0 0.29570366E+04</rscale>
<asrwt>0</asrwt>
<pdfrwt beam="1">  1        1 0.26879719E+00 0.29570366E+04</pdfrwt>
<pdfrwt beam="2">  1       -1 0.19248725E+00 0.29570366E+04</pdfrwt>
<totfact> 0.64171749E-01</totfact>
</mgrwt>
</event>
<event>
 6    1  0.9562506E-007  0.1044482E+04  0.7818608E-02  0.9261059E-01
          2   -1    0    0  501    0  0.00000000000E+00  0.00000000000E+00  0.50836364683E+03  0.50836364683E+03  0.00000000000E+00 0. -1.
         -2   -1    0    0    0  501 -0.00000000000E+00 -0.00000000000E+00 -0.53649750334E+03  0.53649750334E+03  0.00000000000E+00 0.  1.
         23    2    1    2    0    0  0.31863499070E+03 -0.19062601518E+02  0.39448998476E+03  0.51523623452E+03  0.89187382551E+02 0.  0.
         11    1    3    3    0    0  0.29387046846E+03 -0.36714854499E+02  0.32680074116E+03  0.44102897546E+03  0.00000000000E+00 0.  1.
        -11    1    3    3    0    0  0.24764522243E+02  0.17652252981E+02  0.67689243608E+02  0.74207259061E+02  0.00000000000E+00 0. -1.
         22    1    1    2    0    0 -0.31863499070E+03  0.19062601518E+02 -0.42262384127E+03  0.52962491566E+03  0.00000000000E+00 0.  1.
<mgrwt>
<rscale>  0 0.10444823E+04</rscale>
<asrwt>0</asrwt>
<pdfrwt beam="1">  1        2 0.78209792E-01 0.10444823E+04</pdfrwt>
<pdfrwt beam="2">  1       -2 0.82538077E-01 0.10444823E+04</pdfrwt>
<totfact> 0.77543647E+01</totfact>
</mgrwt>
</event>
<event>
 6    1  0.9562506E-007  0.8333809E+03  0.7818608E-02  0.9512918E-01
         -1   -1    0    0    0  501 -0.00000000000E+00  0.00000000000E+00  0.16872522415E+03  0.16872522415E+03  0.00000000000E+00 0.  1.
          1   -1    0    0  501    0  0.00000000000E+00 -0.00000000000E+00 -0.10290751504E+04  0.10290751504E+04  0.00000000000E+00 0. -1.
         23    2    1    2    0    0 -0.56091887693E+02 -0.30118438047E+03 -0.39717795292E+02  0.32184636591E+03  0.90273191383E+02 0.  0.
         13    1    3    3    0    0 -0.72362810014E+02 -0.25075366926E+03 -0.10191683249E+02  0.26118508634E+03  0.00000000000E+00 0. -1.
        -13    1    3    3    0    0  0.16270922321E+02 -0.50430711213E+02 -0.29526112044E+02  0.60661279570E+02  0.00000000000E+00 0.  1.
         22    1    1    2    0    0  0.56091887693E+02  0.30118438047E+03 -0.82063213092E+03  0.87595400861E+03  0.00000000000E+00 0. -1.
<mgrwt>
<rscale>  0 0.83338091E+03</rscale>
<asrwt>0</asrwt>
<pdfrwt beam="1">  1        1 0.15831925E+00 0.83338091E+03</pdfrwt>
<pdfrwt beam="2">  1       -1 0.25957727E-01 0.83338091E+03</pdfrwt>
<totfact> 0.19022885E+02</totfact>
</mgrwt>
</event>
<event>
 6    1  0.9562506E-007  0.5153049E+04  0.7818608E-02  0.7805322E-01
          2   -1    0    0  501    0  0.00000000000E+00  0.00000000000E+00  0.45339470856E+04  0.45339470856E+04  0.00000000000E+00 0. -1.
         -2   -1    0    0    0  501 -0.00000000000E+00 -0.00000000000E+00 -0.14641717552E+04  0.14641717552E+04  0.00000000000E+00 0.  1.
         23    2    1    2    0    0 -0.16034940078E+04 -0.20050756834E+04  0.12942944266E+04  0.28766041493E+04  0.90176712196E+02 0.  0.
         11    1    3    3    0    0 -0.95811113261E+02 -0.14233053924E+03  0.67195602981E+02  0.18426340083E+03  0.00000000000E+00 0. -1.
        -11    1    3    3    0    0 -0.15076828946E+04 -0.18627451442E+04  0.12270988236E+04  0.26923407484E+04  0.00000000000E+00 0.  1.
         22    1    1    2    0    0  0.16034940078E+04  0.20050756834E+04  0.17754809038E+04  0.31215146915E+04  0.00000000000E+00 0. -1.
<mgrwt>
<rscale>  0 0.51530485E+04</rscale>
<asrwt>0</asrwt>
<pdfrwt beam="1">  1        2 0.69753032E+00 0.51530485E+04</pdfrwt>
<pdfrwt beam="2">  1       -2 0.22525719E+00 0.51530485E+04</pdfrwt>
<totfact> 0.74249643E-03</totfact>
</mgrwt>
</event>
<event>
 6    1  0.9562506E-007  0.1966030E+04  0.7818608E-02  0.8622669E-01
         -2   -1    0    0    0  501 -0.00000000000E+00  0.00000000000E+00  0.74775096841E+03  0.74775096841E+03  0.00000000000E+00 0.  1.
          2   -1    0    0  501    0  0.00000000000E+00 -0.00000000000E+00 -0.12923003233E+04  0.12923003233E+04  0.00000000000E+00 0. -1.
         23    2    1    2    0    0 -0.22118607476E+03  0.80163623110E+03  0.26640864690E+03  0.87850197837E+03  0.96167729369E+02 0.  0.
         11    1    3    3    0    0 -0.18853382414E+03  0.61681101896E+03  0.16763244210E+03  0.66640938738E+03  0.00000000000E+00 0.  1.
        -11    1    3    3    0    0 -0.32652250623E+02  0.18482521215E+03  0.98776204806E+02  0.21209259099E+03  0.00000000000E+00 0. -1.
         22    1    1    2    0    0  0.22118607476E+03 -0.80163623110E+03 -0.81095800184E+03  0.11615493134E+04  0.00000000000E+00 0. -1.
<mgrwt>
<rscale>  0 0.19660303E+04</rscale>
<asrwt>0</asrwt>
<pdfrwt beam="1">  1        2 0.19881543E+00 0.19660303E+04</pdfrwt>
<pdfrwt beam="2">  1       -2 0.11503861E+00 0.19660303E+04</pdfrwt>
<totfact> 0.91697889E+00</totfact>
</mgrwt>
</event>
<event>
 6    1  0.9562506E-007  0.4941827E+04  0.7818608E-02  0.7837544E-01
          2   -1    0    0  501    0  0.00000000000E+00  0.00000000000E+00  0.17861067019E+04  0.17861067019E+04  0.00000000000E+00 0. -1.
         -2   -1    0    0    0  501 -0.00000000000E+00 -0.00000000000E+00 -0.34182797202E+04  0.34182797202E+04  0.00000000000E+00 0.  1.
         23    2    1    2    0    0 -0.12138657318E+04 -0.25306094193E+03  0.14331174763E+04  0.18977997120E+04  0.10152926190E+03 0.  0.
         11    1    3    3    0    0 -0.38388856449E+03 -0.59201889733E+02  0.51486429897E+03  0.64495002911E+03  0.00000000000E+00 0.  1.
        -11    1    3    3    0    0 -0.82997716729E+03 -0.19385905220E+03  0.91825317730E+03  0.12528496829E+04  0.00000000000E+00 0. -1.
         22    1    1    2    0    0  0.12138657318E+04  0.25306094193E+03 -0.30652904946E+04  0.33065867101E+04  0.00000000000E+00 0.  1.
<mgrwt>
<rscale>  0 0.49418265E+04</rscale>
<asrwt>0</asrwt>
<pdfrwt beam="1">  1        2 0.27478565E+00 0.49418265E+04</pdfrwt>
<pdfrwt beam="2">  1       -2 0.52588918E+00 0.49418265E+04</pdfrwt>
<totfact> 0.74821450E-03</totfact>
</mgrwt>
</event>
<event>
 6    1  0.9562506E-007  0.2126794E+04  0.7818608E-02  0.8549531E-01
          2   -1    0    0  501    0  0.00000000000E+00  0.00000000000E+00  0.16163645647E+04  0.16163645647E+04  0.00000000000E+00 0. -1.
         -2   -1    0    0    0  501 -0.00000000000E+00 -0.00000000000E+00 -0.69960290843E+03  0.69960290843E+03  0.00000000000E+00 0.  1.
         23    2    1    2    0    0 -0.48265231184E+03 -0.94536325012E+03  0.46269373502E+03  0.11614794455E+04  0.91016927295E+02 0.  0.
         13    1    3    3    0    0 -0.28852456836E+03 -0.63125935767E+03  0.33576827873E+03  0.77102213988E+03  0.00000000000E+00 0. -1.
        -13    1    3    3    0    0 -0.19412774348E+03 -0.31410389245E+03  0.12692545630E+03  0.39045730560E+03  0.00000000000E+00 0.  1.
         22    1    1    2    0    0  0.48265231184E+03  0.94536325012E+03  0.45406792121E+03  0.11544880276E+04  0.00000000000E+00 0.  1.
<mgrwt>
<rscale>  0 0.21267942E+04</rscale>
<asrwt>0</asrwt>
<pdfrwt beam="1">  1        2 0.24867147E+00 0.21267942E+04</pdfrwt>
<pdfrwt beam="2">  1       -2 0.10763122E+00 0.21267942E+04</pdfrwt>
<totfact> 0.69542825E+00</totfact>
</mgrwt>
</event>
<event>
 6    1  0.1027016E-006  0.2823068E+04  0.7818608E-02  0.8296142E-01
          2   -1    0    0  501    0  0.00000000000E+00  0.00000000000E+00  0.19871987743E+04  0.19871987743E+04  0.00000000000E+00 0. -1.
         -2   -1    0    0    0  501 -0.00000000000E+00 -0.00000000000E+00 -0.10026315853E+04  0.10026315853E+04  0.00000000000E+00 0.  1.
         23    2    1    2    0    0  0.20976407814E+03  0.92824671960E+03  0.15948420266E+04  0.18593090999E+04  0.88692154458E+02 0.  0.
         13    1    3    3    0    0  0.22414346056E+02  0.16618340795E+03  0.34362994900E+03  0.38236222334E+03  0.00000000000E+00 0. -1.
        -13    1    3    3    0    0  0.18734973208E+03  0.76206331165E+03  0.12512120776E+04  0.14769468766E+04  0.00000000000E+00 0.  1.
         22    1    1    2    0    0 -0.20976407814E+03 -0.92824671960E+03 -0.61027483764E+03  0.11305212596E+04  0.00000000000E+00 0.  1.
<mgrwt>
<rscale>  0 0.28230680E+04</rscale>
<asrwt>0</asrwt>
<pdfrwt beam="1">  1        2 0.30572289E+00 0.28230680E+04</pdfrwt>
<pdfrwt beam="2">  1       -2 0.15425101E+00 0.28230680E+04</pdfrwt>
<totfact> 0.16406293E+00</totfact>
</mgrwt>
</event>
<event>
 6    1  0.9562506E-007  0.2472105E+04  0.7818608E-02  0.8412991E-01
         -2   -1    0    0    0  501 -0.00000000000E+00  0.00000000000E+00  0.46894237880E+03  0.46894237880E+03  0.00000000000E+00 0.  1.
          2   -1    0    0  501    0  0.00000000000E+00 -0.00000000000E+00 -0.32580237464E+04  0.32580237464E+04  0.00000000000E+00 0. -1.
         23    2    1    2    0    0  0.40527015536E+03 -0.10275128191E+04 -0.56674813968E+03  0.12452748736E+04  0.97363057369E+02 0.  0.
         11    1    3    3    0    0  0.26397370162E+03 -0.53982308032E+03 -0.31824656406E+03  0.67997937375E+03  0.00000000000E+00 0. -1.
        -11    1    3    3    0    0  0.14129645374E+03 -0.48768973874E+03 -0.24850157562E+03  0.56529549989E+03  0.00000000000E+00 0.  1.
         22    1    1    2    0    0 -0.40527015536E+03  0.10275128191E+04 -0.22223332279E+04  0.24816912516E+04  0.00000000000E+00 0.  1.
<mgrwt>
<rscale>  0 0.24721047E+04</rscale>
<asrwt>0</asrwt>
<pdfrwt beam="1">  1        2 0.50123442E+00 0.24721047E+04</pdfrwt>
<pdfrwt beam="2">  1       -2 0.72144982E-01 0.24721047E+04</pdfrwt>
<totfact> 0.18486867E+00</totfact>
</mgrwt>
</event>
<event>
 6    1  0.9562506E-007  0.5198110E+04  0.7818608E-02  0.7798653E-01
          3   -1    0    0  501    0  0.00000000000E+00  0.00000000000E+00  0.37980702930E+04  0.37980702930E+04  0.00000000000E+00 0. -1.
         -3   -1    0    0    0  501 -0.00000000000E+00 -0.00000000000E+00 -0.17785575061E+04  0.17785575061E+04  0.00000000000E+00 0.  1.
         23    2    1    2    0    0  0.15378662064E+04  0.28157527201E+03  0.32364524193E+04  0.35954011156E+04  0.89262627787E+02 0.  0.
         13    1    3    3    0    0  0.57867814833E+03  0.63352252375E+02  0.11798196794E+04  0.13156201516E+04  0.00000000000E+00 0.  1.
        -13    1    3    3    0    0  0.95918805802E+03  0.21822301964E+03  0.20566327399E+04  0.22797809640E+04  0.00000000000E+00 0. -1.
         22    1    1    2    0    0 -0.15378662064E+04 -0.28157527201E+03 -0.12169396324E+04  0.19812266835E+04  0.00000000000E+00 0.  1.
<mgrwt>
<rscale>  0 0.51981098E+04</rscale>
<asrwt>0</asrwt>
<pdfrwt beam="1">  1        3 0.58431851E+00 0.51981098E+04</pdfrwt>
<pdfrwt beam="2">  1       -3 0.27362423E+00 0.51981098E+04</pdfrwt>
<totfact> 0.13236920E-04</totfact>
</mgrwt>
</event>
<event>
 6    1  0.9562506E-007  0.3610203E+04  0.7818608E-02  0.8088159E-01
         -1   -1    0    0    0  501 -0.00000000000E+00  0.00000000000E+00  0.24905096239E+04  0.24905096239E+04  0.00000000000E+00 0.  1.
          1   -1    0    0  501    0  0.00000000000E+00 -0.00000000000E+00 -0.13083231785E+04  0.13083231785E+04  0.00000000000E+00 0. -1.
         23    2    1    2    0    0  0.11597408710E+04 -0.97451136486E+03  0.16222760217E+04  0.22213822887E+04  0.89936052632E+02 0.  0.
         11    1    3    3    0    0  0.88120422009E+03 -0.78432851265E+03  0.12853069466E+04  0.17446220336E+04  0.00000000000E+00 0.  1.
        -11    1    3    3    0    0  0.27853665093E+03 -0.19018285221E+03  0.33696907517E+03  0.47676025506E+03  0.00000000000E+00 0. -1.
         22    1    1    2    0    0 -0.11597408710E+04  0.97451136486E+03 -0.44008957635E+03  0.15774505138E+04  0.00000000000E+00 0. -1.
<mgrwt>
<rscale>  0 0.36102030E+04</rscale>
<asrwt>0</asrwt>
<pdfrwt beam="1">  1        1 0.20128049E+00 0.36102030E+04</pdfrwt>
<pdfrwt beam="2">  1       -1 0.38315533E+00 0.36102030E+04</pdfrwt>
<totfact> 0.67134027E-02</totfact>
</mgrwt>
</event>
<event>
 6    1  0.9562506E-007  0.1695682E+04  0.7818608E-02  0.8763831E-01
          1   -1    0    0  501    0  0.00000000000E+00  0.00000000000E+00  0.10723881353E+04  0.10723881353E+04  0.00000000000E+00 0. -1.
         -1   -1    0    0    0  501 -0.00000000000E+00 -0.00000000000E+00 -0.67031161799E+03  0.67031161799E+03  0.00000000000E+00 0.  1.
         23    2    1    2    0    0 -0.15548798803E+03  0.54141428171E+03  0.84940914400E+03  0.10233859013E+04  0.92286890284E+02 0.  0.
         11    1    3    3    0    0 -0.74623868487E+02  0.19401907878E+03  0.24228939327E+03  0.31924328461E+03  0.00000000000E+00 0.  1.
        -11    1    3    3    0    0 -0.80864119541E+02  0.34739520293E+03  0.60711975074E+03  0.70414261665E+03  0.00000000000E+00 0. -1.
         22    1    1    2    0    0  0.15548798803E+03 -0.54141428171E+03 -0.44733262668E+03  0.71931385205E+03  0.00000000000E+00 0.  1.
<mgrwt>
<rscale>  0 0.16956818E+04</rscale>
<asrwt>0</asrwt>
<pdfrwt beam="1">  1        1 0.16498279E+00 0.16956818E+04</pdfrwt>
<pdfrwt beam="2">  1       -1 0.10312486E+00 0.16956818E+04</pdfrwt>
<totfact> 0.11246303E+01</totfact>
</mgrwt>
</event>
<event>
 6    1  0.9562506E-007  0.9552643E+03  0.7818608E-02  0.9359018E-01
         -1   -1    0    0    0  501 -0.00000000000E+00  0.00000000000E+00  0.28176425262E+03  0.28176425262E+03  0.00000000000E+00 0.  1.
          1   -1    0    0  501    0  0.00000000000E+00 -0.00000000000E+00 -0.80965727128E+03  0.80965727128E+03  0.00000000000E+00 0. -1.
         23    2    1    2    0    0 -0.59269509054E+02 -0.23764316697E+02 -0.80217292264E+03  0.80980639082E+03  0.90704880525E+02 0.  0.
         13    1    3    3    0    0  0.16063512016E+02  0.17707665532E+02 -0.22419824877E+03  0.22546940499E+03  0.00000000000E+00 0.  1.
        -13    1    3    3    0    0 -0.75333021070E+02 -0.41471982229E+02 -0.57797467387E+03  0.58433698583E+03  0.00000000000E+00 0. -1.
         22    1    1    2    0    0  0.59269509054E+02  0.23764316697E+02  0.27427990398E+03  0.28161513308E+03  0.00000000000E+00 0.  1.
<mgrwt>
<rscale>  0 0.95526431E+03</rscale>
<asrwt>0</asrwt>
<pdfrwt beam="1">  1        1 0.12456266E+00 0.95526431E+03</pdfrwt>
<pdfrwt beam="2">  1       -1 0.43348347E-01 0.95526431E+03</pdfrwt>
<totfact> 0.11436053E+02</totfact>
</mgrwt>
</event>
<event>
 6    1  0.9562506E-007  0.1217408E+04  0.7818608E-02  0.9097754E-01
         -2   -1    0    0    0  501 -0.00000000000E+00  0.00000000000E+00  0.24436099883E+03  0.24436099883E+03  0.00000000000E+00 0.  1.
          2   -1    0    0  501    0  0.00000000000E+00 -0.00000000000E+00 -0.15162831314E+04  0.15162831314E+04  0.00000000000E+00 0. -1.
         23    2    1    2    0    0  0.33941812760E+03  0.50105786033E+03 -0.67136333354E+03  0.90803958190E+03  0.86853393301E+02 0.  0.
         11    1    3    3    0    0  0.50239044072E+02  0.13972171176E+03 -0.17063903466E+03  0.22619416092E+03  0.00000000000E+00 0.  1.
        -11    1    3    3    0    0  0.28917908353E+03  0.36133614857E+03 -0.50072429888E+03  0.68184542097E+03  0.00000000000E+00 0. -1.
         22    1    1    2    0    0 -0.33941812760E+03 -0.50105786033E+03 -0.60055879902E+03  0.85260454832E+03  0.00000000000E+00 0. -1.
<mgrwt>
<rscale>  0 0.12174078E+04</rscale>
<asrwt>0</asrwt>
<pdfrwt beam="1">  1        2 0.23327433E+00 0.12174078E+04</pdfrwt>
<pdfrwt beam="2">  1       -2 0.37594000E-01 0.12174078E+04</pdfrwt>
<totfact> 0.81717069E+01</totfact>
</mgrwt>
</event>
<event>
 6    1  0.9562506E-007  0.6622929E+03  0.7818608E-02  0.9783982E-01
         -1   -1    0    0    0  501 -0.00000000000E+00  0.00000000000E+00  0.91514567776E+02  0.91514567776E+02  0.00000000000E+00 0.  1.
          1   -1    0    0  501    0  0.00000000000E+00 -0.00000000000E+00 -0.11982570004E+04  0.11982570004E+04  0.00000000000E+00 0. -1.
         23    2    1    2    0    0  0.42576230658E+02 -0.27887881536E+03 -0.25436027516E+03  0.39191775411E+03  0.96510348291E+02 0.  0.
         13    1    3    3    0    0  0.54915157750E+02 -0.95961535489E+02 -0.12861236595E+03  0.16960374854E+03  0.00000000000E+00 0. -1.
        -13    1    3    3    0    0 -0.12338927093E+02 -0.18291727988E+03 -0.12574790921E+03  0.22231400556E+03  0.00000000000E+00 0.  1.
         22    1    1    2    0    0 -0.42576230658E+02  0.27887881536E+03 -0.85238215742E+03  0.89785381403E+03  0.00000000000E+00 0. -1.
<mgrwt>
<rscale>  0 0.66229290E+03</rscale>
<asrwt>0</asrwt>
<pdfrwt beam="1">  1        1 0.18434721E+00 0.66229290E+03</pdfrwt>
<pdfrwt beam="2">  1       -1 0.14079166E-01 0.66229290E+03</pdfrwt>
<totfact> 0.39743044E+02</totfact>
</mgrwt>
</event>
<event>
 6    1  0.1014682E-006  0.2029596E+04  0.7818608E-02  0.8592907E-01
         -1   -1    0    0    0  501 -0.00000000000E+00  0.00000000000E+00  0.90084064162E+03  0.90084064162E+03  0.00000000000E+00 0.  1.
          1   -1    0    0  501    0  0.00000000000E+00 -0.00000000000E+00 -0.11431708920E+04  0.11431708920E+04  0.00000000000E+00 0. -1.
         23    2    1    2    0    0 -0.44227085248E+03 -0.46198164083E+03 -0.91240059203E+03  0.11177152494E+04  0.88215615822E+02 0.  0.
         11    1    3    3    0    0 -0.27389933648E+03 -0.27393048439E+03 -0.47746954354E+03  0.61484625868E+03  0.00000000000E+00 0.  1.
        -11    1    3    3    0    0 -0.16837151600E+03 -0.18805115644E+03 -0.43493104849E+03  0.50286899067E+03  0.00000000000E+00 0. -1.
         22    1    1    2    0    0  0.44227085248E+03  0.46198164083E+03  0.67007034167E+03  0.92629628424E+03  0.00000000000E+00 0.  1.
<mgrwt>
<rscale>  0 0.20295958E+04</rscale>
<asrwt>0</asrwt>
<pdfrwt beam="1">  1        1 0.17587244E+00 0.20295958E+04</pdfrwt>
<pdfrwt beam="2">  1       -1 0.13859087E+00 0.20295958E+04</pdfrwt>
<totfact> 0.46873161E+00</totfact>
</mgrwt>
</event>
<event>
 6    1  0.9562506E-007  0.2067130E+04  0.7818608E-02  0.8575863E-01
         -2   -1    0    0    0  501 -0.00000000000E+00  0.00000000000E+00  0.49802981406E+03  0.49802981406E+03  0.00000000000E+00 0.  1.
          2   -1    0    0  501    0  0.00000000000E+00 -0.00000000000E+00 -0.21449657790E+04  0.21449657790E+04  0.00000000000E+00 0. -1.
         23    2    1    2    0    0 -0.10382275357E+03 -0.30457758123E+03 -0.20780992268E+04  0.21049914802E+04  0.94583657267E+02 0.  0.
         13    1    3    3    0    0 -0.64597985008E+02 -0.21476900175E+03 -0.11448293548E+04  0.11665902775E+04  0.00000000000E+00 0. -1.
        -13    1    3    3    0    0 -0.39224768565E+02 -0.89808579486E+02 -0.93326987196E+03  0.93840120276E+03  0.00000000000E+00 0.  1.
         22    1    1    2    0    0  0.10382275357E+03  0.30457758123E+03  0.43116326181E+03  0.53800411289E+03  0.00000000000E+00 0.  1.
<mgrwt>
<rscale>  0 0.20671303E+04</rscale>
<asrwt>0</asrwt>
<pdfrwt beam="1">  1        2 0.32999474E+00 0.20671303E+04</pdfrwt>
<pdfrwt beam="2">  1       -2 0.76619971E-01 0.20671303E+04</pdfrwt>
<totfact> 0.78010188E+00</totfact>
</mgrwt>
</event>
<event>
 6    1  0.9562506E-007  0.9938104E+03  0.7818608E-02  0.9315360E-01
          2   -1    0    0  501    0  0.00000000000E+00  0.00000000000E+00  0.13615225336E+04  0.13615225336E+04  0.00000000000E+00 0. -1.
         -2   -1    0    0    0  501 -0.00000000000E+00 -0.00000000000E+00 -0.18135196320E+03  0.18135196320E+03  0.00000000000E+00 0.  1.
         23    2    1    2    0    0 -0.35557641691E+03 -0.28695499196E+03  0.88159587042E+03  0.99704979311E+03  0.90106911681E+02 0.  0.
         11    1    3    3    0    0 -0.18567626458E+03 -0.20617567169E+03  0.51350065746E+03  0.58366686392E+03  0.00000000000E+00 0. -1.
        -11    1    3    3    0    0 -0.16990015233E+03 -0.80779320263E+02  0.36809521296E+03  0.41338292919E+03  0.00000000000E+00 0.  1.
         22    1    1    2    0    0  0.35557641691E+03  0.28695499196E+03  0.29857469996E+03  0.54582470366E+03  0.00000000000E+00 0.  1.
<mgrwt>
<rscale>  0 0.99381041E+03</rscale>
<asrwt>0</asrwt>
<pdfrwt beam="1">  1        2 0.20946500E+00 0.99381041E+03</pdfrwt>
<pdfrwt beam="2">  1       -2 0.27900303E-01 0.99381041E+03</pdfrwt>
<totfact> 0.17820655E+02</totfact>
</mgrwt>
</event>
<event>
 6    1  0.9562506E-007  0.2508004E+04  0.7818608E-02  0.8400140E-01
         -2   -1    0    0    0  501 -0.00000000000E+00  0.00000000000E+00  0.37669663338E+03  0.37669663338E+03  0.00000000000E+00 0.  1.
          2   -1    0    0  501    0  0.00000000000E+00 -0.00000000000E+00 -0.41745031115E+04  0.41745031115E+04  0.00000000000E+00 0. -1.
         23    2    1    2    0    0  0.65142144152E+03  0.83283510705E+03 -0.31192265538E+04  0.32948419441E+04  0.91896313058E+02 0.  0.
         11    1    3    3    0    0  0.32213925430E+03  0.46391826351E+03 -0.15610314758E+04  0.16600641924E+04  0.00000000000E+00 0.  1.
        -11    1    3    3    0    0  0.32928218722E+03  0.36891684354E+03 -0.15581950780E+04  0.16347777517E+04  0.00000000000E+00 0. -1.
         22    1    1    2    0    0 -0.65142144152E+03 -0.83283510705E+03 -0.67857992433E+03  0.12563578008E+04  0.00000000000E+00 0.  1.
<mgrwt>
<rscale>  0 0.25080042E+04</rscale>
<asrwt>0</asrwt>
<pdfrwt beam="1">  1        2 0.64223124E+00 0.25080042E+04</pdfrwt>
<pdfrwt beam="2">  1       -2 0.57953329E-01 0.25080042E+04</pdfrwt>
<totfact> 0.61017213E-01</totfact>
</mgrwt>
</event>
<event>
 6    1  0.9562506E-007  0.8855060E+03  0.7818608E-02  0.9443883E-01
          1   -1    0    0  501    0  0.00000000000E+00  0.00000000000E+00  0.27352805358E+03  0.27352805358E+03  0.00000000000E+00 0. -1.
         -1   -1    0    0    0  501 -0.00000000000E+00 -0.00000000000E+00 -0.71667318976E+03  0.71667318976E+03  0.00000000000E+00 0.  1.
         23    2    1    2    0    0 -0.27616855958E+03 -0.29042116638E+02  0.15430649744E+03  0.33136820505E+03  0.94243696485E+02 0.  0.
         11    1    3    3    0    0 -0.68460975420E+02  0.25247441175E+02  0.68777283413E+02  0.10027289342E+03  0.00000000000E+00 0.  1.
        -11    1    3    3    0    0 -0.20770758416E+03 -0.54289557813E+02  0.85529214025E+02  0.23109531163E+03  0.00000000000E+00 0. -1.
         22    1    1    2    0    0  0.27616855958E+03  0.29042116638E+02 -0.59745163361E+03  0.65883303829E+03  0.00000000000E+00 0.  1.
<mgrwt>
<rscale>  0 0.88550601E+03</rscale>
<asrwt>0</asrwt>
<pdfrwt beam="1">  1        1 0.42081239E-01 0.88550601E+03</pdfrwt>
<pdfrwt beam="2">  1       -1 0.11025741E+00 0.88550601E+03</pdfrwt>
<totfact> 0.75756505E+01</totfact>
</mgrwt>
</event>
<event>
 6    1  0.9562506E-007  0.6356629E+03  0.7818608E-02  0.9834060E-01
          2   -1    0    0  501    0  0.00000000000E+00  0.00000000000E+00  0.42834093777E+03  0.42834093777E+03  0.00000000000E+00 0. -1.
         -2   -1    0    0    0  501 -0.00000000000E+00 -0.00000000000E+00 -0.23583274897E+03  0.23583274897E+03  0.00000000000E+00 0.  1.
         23    2    1    2    0    0  0.12604128316E+03  0.16381441003E+03  0.34142926900E+03  0.40942075914E+03  0.91267991580E+02 0.  0.
         11    1    3    3    0    0  0.58415390949E+02  0.22503824323E+02  0.14669805784E+03  0.15949639552E+03  0.00000000000E+00 0.  1.
        -11    1    3    3    0    0  0.67625892214E+02  0.14131058571E+03  0.19473121116E+03  0.24992436362E+03  0.00000000000E+00 0. -1.
         22    1    1    2    0    0 -0.12604128316E+03 -0.16381441003E+03 -0.14892108021E+03  0.25475292761E+03  0.00000000000E+00 0.  1.
<mgrwt>
<rscale>  0 0.63566287E+03</rscale>
<asrwt>0</asrwt>
<pdfrwt beam="1">  1        2 0.65898606E-01 0.63566287E+03</pdfrwt>
<pdfrwt beam="2">  1       -2 0.36281961E-01 0.63566287E+03</pdfrwt>
<totfact> 0.52988696E+02</totfact>
</mgrwt>
</event>
<event>
 6    1  0.9562506E-007  0.1332476E+04  0.7818608E-02  0.9004201E-01
          1   -1    0    0  501    0  0.00000000000E+00  0.00000000000E+00  0.20494935528E+04  0.20494935528E+04  0.00000000000E+00 0. -1.
         -1   -1    0    0    0  501 -0.00000000000E+00 -0.00000000000E+00 -0.21657692467E+03  0.21657692467E+03  0.00000000000E+00 0.  1.
         23    2    1    2    0    0  0.29532519493E+03 -0.47826013503E+03  0.32203111042E+03  0.65401440674E+03  0.89894830882E+02 0.  0.
         13    1    3    3    0    0  0.66363038849E+02 -0.12228061085E+03  0.12545298349E+03  0.18733673367E+03  0.00000000000E+00 0.  1.
        -13    1    3    3    0    0  0.22896215608E+03 -0.35597952418E+03  0.19657812693E+03  0.46667767307E+03  0.00000000000E+00 0. -1.
         22    1    1    2    0    0 -0.29532519493E+03  0.47826013503E+03  0.15108855177E+04  0.16120560707E+04  0.00000000000E+00 0. -1.
<mgrwt>
<rscale>  0 0.13324759E+04</rscale>
<asrwt>0</asrwt>
<pdfrwt beam="1">  1        1 0.31530669E+00 0.13324759E+04</pdfrwt>
<pdfrwt beam="2">  1       -1 0.33319528E-01 0.13324759E+04</pdfrwt>
<totfact> 0.22938833E+01</totfact>
</mgrwt>
</event>
<event>
 6    1  0.9562506E-007  0.3862651E+04  0.7818608E-02  0.8032842E-01
          2   -1    0    0  501    0  0.00000000000E+00  0.00000000000E+00  0.17053098752E+04  0.17053098752E+04  0.00000000000E+00 0. -1.
         -2   -1    0    0    0  501 -0.00000000000E+00 -0.00000000000E+00 -0.21872960774E+04  0.21872960774E+04  0.00000000000E+00 0.  1.
         23    2    1    2    0    0 -0.16550177784E+04 -0.69764007739E+03  0.47151946134E+03  0.18591461976E+04  0.91150739435E+02 0.  0.
         13    1    3    3    0    0 -0.46237971294E+03 -0.19565238184E+03  0.89780478622E+02  0.51003469274E+03  0.00000000000E+00 0.  1.
        -13    1    3    3    0    0 -0.11926380655E+04 -0.50198769555E+03  0.38173898272E+03  0.13491115049E+04  0.00000000000E+00 0. -1.
         22    1    1    2    0    0  0.16550177784E+04  0.69764007739E+03 -0.95350566356E+03  0.20334597549E+04  0.00000000000E+00 0.  1.
<mgrwt>
<rscale>  0 0.38626507E+04</rscale>
<asrwt>0</asrwt>
<pdfrwt beam="1">  1        2 0.26235537E+00 0.38626507E+04</pdfrwt>
<pdfrwt beam="2">  1       -2 0.33650709E+00 0.38626507E+04</pdfrwt>
<totfact> 0.14688526E-01</totfact>
</mgrwt>
</event>
<event>
 6    1  0.9562506E-007  0.1142414E+04  0.7818608E-02  0.9164811E-01
          2   -1    0    0  501    0  0.00000000000E+00  0.00000000000E+00  0.39280693307E+04  0.39280693307E+04  0.00000000000E+00 0. -1.
         -2   -1    0    0    0  501 -0.00000000000E+00 -0.00000000000E+00 -0.83063021474E+02  0.83063021474E+02  0.00000000000E+00 0.  1.
         23    2    1    2    0    0 -0.43186001377E+03 -0.33042223236E+03  0.25055382418E+04  0.25654987102E+04  0.91541399584E+02 0.  0.
         13    1    3    3    0    0 -0.15673893190E+03 -0.14729918183E+03  0.11753380740E+04  0.11948572007E+04  0.00000000000E+00 0.  1.
        -13    1    3    3    0    0 -0.27512108187E+03 -0.18312305053E+03  0.13302001677E+04  0.13706415095E+04  0.00000000000E+00 0. -1.
         22    1    1    2    0    0  0.43186001377E+03  0.33042223236E+03  0.13394680674E+04  0.14456336420E+04  0.00000000000E+00 0.  1.
<mgrwt>
<rscale>  0 0.11424138E+04</rscale>
<asrwt>0</asrwt>
<pdfrwt beam="1">  1        2 0.60431822E+00 0.11424138E+04</pdfrwt>
<pdfrwt beam="2">  1       -2 0.12778929E-01 0.11424138E+04</pdfrwt>
<totfact> 0.18547334E+01</totfact>
</mgrwt>
</event>
<event>
 6    1  0.9562506E-007  0.7397754E+03  0.7818608E-02  0.9651529E-01
          4   -1    0    0  501    0  0.00000000000E+00  0.00000000000E+00  0.18249549830E+04  0.18249549830E+04  0.00000000000E+00 0. -1.
         -4   -1    0    0    0  501 -0.00000000000E+00 -0.00000000000E+00 -0.74970016851E+02  0.74970016851E+02  0.00000000000E+00 0.  1.
         23    2    1    2    0    0 -0.77286559827E+02  0.35186407408E+03  0.10294225098E+04  0.10943247314E+04  0.89746170950E+02 0.  0.
         13    1    3    3    0    0 -0.23093848343E+02  0.11437054727E+03  0.46811916095E+03  0.48244118477E+03  0.00000000000E+00 0. -1.
        -13    1    3    3    0    0 -0.54192711484E+02  0.23749352681E+03  0.56130334884E+03  0.61188354666E+03  0.00000000000E+00 0.  1.
         22    1    1    2    0    0  0.77286559827E+02 -0.35186407408E+03  0.72056245632E+03  0.80560026838E+03  0.00000000000E+00 0.  1.
<mgrwt>
<rscale>  0 0.73977539E+03</rscale>
<asrwt>0</asrwt>
<pdfrwt beam="1">  1        4 0.28076227E+00 0.73977539E+03</pdfrwt>
<pdfrwt beam="2">  1       -4 0.11533850E-01 0.73977539E+03</pdfrwt>
<totfact> 0.51632622E+00</totfact>
</mgrwt>
</event>
<event>
 6    1  0.9562506E-007  0.2580461E+04  0.7818608E-02  0.8374869E-01
         -1   -1    0    0    0  501 -0.00000000000E+00  0.00000000000E+00  0.92225079149E+03  0.92225079149E+03  0.00000000000E+00 0.  1.
          1   -1    0    0  501    0  0.00000000000E+00 -0.00000000000E+00 -0.18050343802E+04  0.18050343802E+04  0.00000000000E+00 0. -1.
         23    2    1    2    0    0 -0.15434575109E+03 -0.12631448331E+04 -0.65681566555E+03  0.14348382743E+04  0.89423568399E+02 0.  0.
         11    1    3    3    0    0 -0.11055426830E+03 -0.53962923578E+03 -0.28285411418E+03  0.61921596253E+03  0.00000000000E+00 0.  1.
        -11    1    3    3    0    0 -0.43791482792E+02 -0.72351559733E+03 -0.37396155136E+03  0.81562231176E+03  0.00000000000E+00 0. -1.
         22    1    1    2    0    0  0.15434575109E+03  0.12631448331E+04 -0.22596792317E+03  0.12924468974E+04  0.00000000000E+00 0. -1.
<mgrwt>
<rscale>  0 0.25804607E+04</rscale>
<asrwt>0</asrwt>
<pdfrwt beam="1">  1        1 0.27769760E+00 0.25804607E+04</pdfrwt>
<pdfrwt beam="2">  1       -1 0.14188474E+00 0.25804607E+04</pdfrwt>
<totfact> 0.14430582E+00</totfact>
</mgrwt>
</event>
<event>
 6    1  0.9562506E-007  0.1859423E+04  0.7818608E-02  0.8675322E-01
         -2   -1    0    0    0  501 -0.00000000000E+00  0.00000000000E+00  0.37196791884E+03  0.37196791884E+03  0.00000000000E+00 0.  1.
          2   -1    0    0  501    0  0.00000000000E+00 -0.00000000000E+00 -0.23237584366E+04  0.23237584366E+04  0.00000000000E+00 0. -1.
         23    2    1    2    0    0  0.57572810218E+03  0.38139983349E+03 -0.18755620918E+04  0.20009318149E+04  0.95217051696E+02 0.  0.
         13    1    3    3    0    0  0.54967581825E+02  0.69710179395E+02 -0.28533330681E+03  0.29882443029E+03  0.00000000000E+00 0. -1.
        -13    1    3    3    0    0  0.52076052036E+03  0.31168965410E+03 -0.15902287850E+04  0.17021073846E+04  0.00000000000E+00 0.  1.
         22    1    1    2    0    0 -0.57572810218E+03 -0.38139983349E+03 -0.76228425916E+02  0.69479454053E+03  0.00000000000E+00 0.  1.
<mgrwt>
<rscale>  0 0.18594231E+04</rscale>
<asrwt>0</asrwt>
<pdfrwt beam="1">  1        2 0.35750130E+00 0.18594231E+04</pdfrwt>
<pdfrwt beam="2">  1       -2 0.57225833E-01 0.18594231E+04</pdfrwt>
<totfact> 0.11821827E+01</totfact>
</mgrwt>
</event>
<event>
 6    1  0.9562506E-007  0.3294304E+04  0.7818608E-02  0.8164346E-01
          1   -1    0    0  501    0  0.00000000000E+00  0.00000000000E+00  0.33841678307E+04  0.33841678307E+04  0.00000000000E+00 0. -1.
         -1   -1    0    0    0  501 -0.00000000000E+00 -0.00000000000E+00 -0.80170682043E+03  0.80170682043E+03  0.00000000000E+00 0.  1.
         23    2    1    2    0    0  0.51750203856E+03 -0.19289045888E+03 -0.67786529119E+03  0.87910240602E+03  0.91129568344E+02 0.  0.
         11    1    3    3    0    0  0.98653254622E+02 -0.76024054890E+02 -0.16418686022E+03  0.20608116517E+03  0.00000000000E+00 0. -1.
        -11    1    3    3    0    0  0.41884878394E+03 -0.11686640399E+03 -0.51367843098E+03  0.67302124085E+03  0.00000000000E+00 0.  1.
         22    1    1    2    0    0 -0.51750203856E+03  0.19289045888E+03  0.32603263015E+04  0.33067722451E+04  0.00000000000E+00 0. -1.
<mgrwt>
<rscale>  0 0.32943044E+04</rscale>
<asrwt>0</asrwt>
<pdfrwt beam="1">  1        1 0.52064120E+00 0.32943044E+04</pdfrwt>
<pdfrwt beam="2">  1       -1 0.12333951E+00 0.32943044E+04</pdfrwt>
<totfact> 0.14760101E-01</totfact>
</mgrwt>
</event>
<event>
 6    1  0.9562506E-007  0.2086916E+04  0.7818608E-02  0.8567029E-01
         -2   -1    0    0    0  501 -0.00000000000E+00  0.00000000000E+00  0.25990588708E+03  0.25990588708E+03  0.00000000000E+00 0.  1.
          2   -1    0    0  501    0  0.00000000000E+00 -0.00000000000E+00 -0.41892269130E+04  0.41892269130E+04  0.00000000000E+00 0. -1.
         23    2    1    2    0    0 -0.74537198514E+02  0.71679191833E+03 -0.36572534185E+03  0.81339894739E+03  0.92284201238E+02 0.  0.
         13    1    3    3    0    0 -0.61773420451E+02  0.39646498311E+03 -0.24899203669E+03  0.47222608213E+03  0.00000000000E+00 0. -1.
        -13    1    3    3    0    0 -0.12763778063E+02  0.32032693522E+03 -0.11673330516E+03  0.34117286526E+03  0.00000000000E+00 0.  1.
         22    1    1    2    0    0  0.74537198514E+02 -0.71679191833E+03 -0.35635956841E+04  0.36357338527E+04  0.00000000000E+00 0. -1.
<mgrwt>
<rscale>  0 0.20869161E+04</rscale>
<asrwt>0</asrwt>
<pdfrwt beam="1">  1        2 0.64449646E+00 0.20869161E+04</pdfrwt>
<pdfrwt beam="2">  1       -2 0.39985521E-01 0.20869161E+04</pdfrwt>
<totfact> 0.13114705E+00</totfact>
</mgrwt>
</event>
<event>
 6    1  0.9562506E-007  0.1708827E+04  0.7818608E-02  0.8756346E-01
         -1   -1    0    0    0  501 -0.00000000000E+00  0.00000000000E+00  0.12795260412E+04  0.12795260412E+04  0.00000000000E+00 0.  1.
          1   -1    0    0  501    0  0.00000000000E+00 -0.00000000000E+00 -0.57054152094E+03  0.57054152094E+03  0.00000000000E+00 0. -1.
         23    2    1    2    0    0 -0.96451360511E+02 -0.32009393278E+02  0.12712257278E+04  0.12787159703E+04  0.93660106128E+02 0.  0.
         13    1    3    3    0    0 -0.51092891734E+02  0.31667454336E+01  0.10082530321E+04  0.10095517266E+04  0.00000000000E+00 0. -1.
        -13    1    3    3    0    0 -0.45358468777E+02 -0.35176138712E+02  0.26297269567E+03  0.26916424371E+03  0.00000000000E+00 0.  1.
         22    1    1    2    0    0  0.96451360511E+02  0.32009393278E+02 -0.56224120747E+03  0.57135159191E+03  0.00000000000E+00 0. -1.
<mgrwt>
<rscale>  0 0.17088274E+04</rscale>
<asrwt>0</asrwt>
<pdfrwt beam="1">  1        1 0.87775619E-01 0.17088274E+04</pdfrwt>
<pdfrwt beam="2">  1       -1 0.19685016E+00 0.17088274E+04</pdfrwt>
<totfact> 0.55399980E+00</totfact>
</mgrwt>
</event>
<event>
 6    1  0.9562506E-007  0.1878961E+04  0.7818608E-02  0.8665400E-01
          1   -1    0    0  501    0  0.00000000000E+00  0.00000000000E+00  0.38415878686E+04  0.38415878686E+04  0.00000000000E+00 0. -1.
         -1   -1    0    0    0  501 -0.00000000000E+00 -0.00000000000E+00 -0.22975486445E+03  0.22975486445E+03  0.00000000000E+00 0.  1.
         23    2    1    2    0    0 -0.74621456814E+03 -0.12824776725E+03  0.61338561886E+03  0.97877577438E+03  0.92067516383E+02 0.  0.
         11    1    3    3    0    0 -0.30002346750E+03 -0.53985448526E+02  0.18994414540E+03  0.35917584562E+03  0.00000000000E+00 0. -1.
        -11    1    3    3    0    0 -0.44619110064E+03 -0.74262318728E+02  0.42344147346E+03  0.61959992876E+03  0.00000000000E+00 0.  1.
         22    1    1    2    0    0  0.74621456814E+03  0.12824776725E+03  0.29984473853E+04  0.30925669587E+04  0.00000000000E+00 0. -1.
<mgrwt>
<rscale>  0 0.18789609E+04</rscale>
<asrwt>0</asrwt>
<pdfrwt beam="1">  1        1 0.59101347E+00 0.18789609E+04</pdfrwt>
<pdfrwt beam="2">  1       -1 0.35346905E-01 0.18789609E+04</pdfrwt>
<totfact> 0.94748429E-01</totfact>
</mgrwt>
</event>
<event>
 6    1  0.9562506E-007  0.4007169E+04  0.7818608E-02  0.8003102E-01
         -1   -1    0    0    0  501 -0.00000000000E+00  0.00000000000E+00  0.28922275631E+04  0.28922275631E+04  0.00000000000E+00 0.  1.
          1   -1    0    0  501    0  0.00000000000E+00 -0.00000000000E+00 -0.13879792206E+04  0.13879792206E+04  0.00000000000E+00 0. -1.
         23    2    1    2    0    0 -0.21660194701E+03  0.15522614029E+04 -0.57891198918E+03  0.16732950410E+04  0.91352814094E+02 0.  0.
         11    1    3    3    0    0 -0.20291126359E+03  0.12358768428E+04 -0.43969469210E+03  0.13273642958E+04  0.00000000000E+00 0.  1.
        -11    1    3    3    0    0 -0.13690683427E+02  0.31638456017E+03 -0.13921729707E+03  0.34593074528E+03  0.00000000000E+00 0. -1.
         22    1    1    2    0    0  0.21660194701E+03 -0.15522614029E+04  0.20831603316E+04  0.26069117426E+04  0.00000000000E+00 0.  1.
<mgrwt>
<rscale>  0 0.40071695E+04</rscale>
<asrwt>0</asrwt>
<pdfrwt beam="1">  1        1 0.21353527E+00 0.40071695E+04</pdfrwt>
<pdfrwt beam="2">  1       -1 0.44495809E+00 0.40071695E+04</pdfrwt>
<totfact> 0.21477054E-02</totfact>
</mgrwt>
</event>
<event>
 6    1  0.9562506E-007  0.1923284E+04  0.7818608E-02  0.8643352E-01
          2   -1    0    0  501    0  0.00000000000E+00  0.00000000000E+00  0.14810601495E+04  0.14810601495E+04  0.00000000000E+00 0. -1.
         -2   -1    0    0    0  501 -0.00000000000E+00 -0.00000000000E+00 -0.62438760941E+03  0.62438760941E+03  0.00000000000E+00 0.  1.
         23    2    1    2    0    0 -0.25784906477E+03 -0.54147636246E+03 -0.39006190064E+03  0.72196318835E+03  0.96952399137E+02 0.  0.
         11    1    3    3    0    0 -0.13626903511E+03 -0.20102519709E+03 -0.12111089576E+03  0.27138207174E+03  0.00000000000E+00 0. -1.
        -11    1    3    3    0    0 -0.12158002967E+03 -0.34045116537E+03 -0.26895100488E+03  0.45058111661E+03  0.00000000000E+00 0.  1.
         22    1    1    2    0    0  0.25784906477E+03  0.54147636246E+03  0.12467344407E+04  0.13834845706E+04  0.00000000000E+00 0. -1.
<mgrwt>
<rscale>  0 0.19232843E+04</rscale>
<asrwt>0</asrwt>
<pdfrwt beam="1">  1        2 0.22785541E+00 0.19232843E+04</pdfrwt>
<pdfrwt beam="2">  1       -2 0.96059633E-01 0.19232843E+04</pdfrwt>
<totfact> 0.11046233E+01</totfact>
</mgrwt>
</event>
<event>
 6    1  0.9562506E-007  0.6014805E+04  0.7818608E-02  0.7688569E-01
         -1   -1    0    0    0  501 -0.00000000000E+00  0.00000000000E+00  0.24953043473E+04  0.24953043473E+04  0.00000000000E+00 0.  1.
          1   -1    0    0  501    0  0.00000000000E+00 -0.00000000000E+00 -0.36245957921E+04  0.36245957921E+04  0.00000000000E+00 0. -1.
         23    2    1    2    0    0 -0.48251338004E+02 -0.21836137176E+04  0.15378513859E+04  0.26725608844E+04  0.84248062888E+02 0.  0.
         11    1    3    3    0    0 -0.26547608658E+02 -0.17733163168E+04  0.12107945231E+04  0.21474121431E+04  0.00000000000E+00 0. -1.
        -11    1    3    3    0    0 -0.21703729346E+02 -0.41029740076E+03  0.32705686288E+03  0.52514874131E+03  0.00000000000E+00 0.  1.
         22    1    1    2    0    0  0.48251338004E+02  0.21836137176E+04 -0.26671428307E+04  0.34473392550E+04  0.00000000000E+00 0. -1.
<mgrwt>
<rscale>  0 0.60148049E+04</rscale>
<asrwt>0</asrwt>
<pdfrwt beam="1">  1        1 0.55763012E+00 0.60148049E+04</pdfrwt>
<pdfrwt beam="2">  1       -1 0.38389298E+00 0.60148049E+04</pdfrwt>
<totfact> 0.12197636E-03</totfact>
</mgrwt>
</event>
<event>
 6    1  0.1141288E-006  0.4003722E+04  0.7818608E-02  0.8003796E-01
          2   -1    0    0  501    0  0.00000000000E+00  0.00000000000E+00  0.14322719627E+04  0.14322719627E+04  0.00000000000E+00 0. -1.
         -2   -1    0    0    0  501 -0.00000000000E+00 -0.00000000000E+00 -0.27979658452E+04  0.27979658452E+04  0.00000000000E+00 0.  1.
         23    2    1    2    0    0 -0.46303043329E+03 -0.90545540629E+03  0.11374178643E+04  0.15284208097E+04  0.90022765872E+02 0.  0.
         11    1    3    3    0    0 -0.24782620924E+03 -0.43303973555E+03  0.50002928531E+03  0.70637845998E+03  0.00000000000E+00 0. -1.
        -11    1    3    3    0    0 -0.21520422406E+03 -0.47241567074E+03  0.63738857902E+03  0.82204234969E+03  0.00000000000E+00 0.  1.
         22    1    1    2    0    0  0.46303043329E+03  0.90545540629E+03 -0.25031117468E+04  0.27018169983E+04  0.00000000000E+00 0.  1.
<mgrwt>
<rscale>  0 0.40037223E+04</rscale>
<asrwt>0</asrwt>
<pdfrwt beam="1">  1        2 0.22034954E+00 0.40037223E+04</pdfrwt>
<pdfrwt beam="2">  1       -2 0.43045628E+00 0.40037223E+04</pdfrwt>
<totfact> 0.51126995E-02</totfact>
</mgrwt>
</event>
<event>
 6    1  0.9562506E-007  0.1501225E+04  0.7818608E-02  0.8883638E-01
          2   -1    0    0  501    0  0.00000000000E+00  0.00000000000E+00  0.70938208177E+03  0.70938208177E+03  0.00000000000E+00 0. -1.
         -2   -1    0    0    0  501 -0.00000000000E+00 -0.00000000000E+00 -0.79423972848E+03  0.79423972848E+03  0.00000000000E+00 0.  1.
         23    2    1    2    0    0 -0.16128915066E+03  0.68379425799E+03  0.21416932242E+03  0.74007357625E+03  0.90838440144E+02 0.  0.
         13    1    3    3    0    0 -0.73272151373E+02  0.34136893890E+03  0.15329584371E+03  0.38131506174E+03  0.00000000000E+00 0.  1.
        -13    1    3    3    0    0 -0.88016999286E+02  0.34242531910E+03  0.60873478713E+02  0.35875851451E+03  0.00000000000E+00 0. -1.
         22    1    1    2    0    0  0.16128915066E+03 -0.68379425799E+03 -0.29902696913E+03  0.76354823400E+03  0.00000000000E+00 0.  1.
<mgrwt>
<rscale>  0 0.15012254E+04</rscale>
<asrwt>0</asrwt>
<pdfrwt beam="1">  1        2 0.10913571E+00 0.15012254E+04</pdfrwt>
<pdfrwt beam="2">  1       -2 0.12219073E+00 0.15012254E+04</pdfrwt>
<totfact> 0.19751819E+01</totfact>
</mgrwt>
</event>
<event>
 6    1  0.9562506E-007  0.5152255E+03  0.7818608E-02  0.1009879E+00
          2   -1    0    0  501    0  0.00000000000E+00  0.00000000000E+00  0.15726945391E+03  0.15726945391E+03  0.00000000000E+00 0. -1.
         -2   -1    0    0    0  501 -0.00000000000E+00 -0.00000000000E+00 -0.42197857046E+03  0.42197857046E+03  0.00000000000E+00 0.  1.
         23    2    1    2    0    0 -0.70439976411E+02  0.22700326288E+03 -0.22454642851E+03  0.33819758744E+03  0.86395821452E+02 0.  0.
         13    1    3    3    0    0 -0.24189612181E+02  0.15945394410E+03 -0.10201546403E+03  0.19083462088E+03  0.00000000000E+00 0. -1.
        -13    1    3    3    0    0 -0.46250364230E+02  0.67549318780E+02 -0.12253096447E+03  0.14736296656E+03  0.00000000000E+00 0.  1.
         22    1    1    2    0    0  0.70439976411E+02 -0.22700326288E+03 -0.40162688036E+02  0.24105043693E+03  0.00000000000E+00 0.  1.
<mgrwt>
<rscale>  0 0.51522554E+03</rscale>
<asrwt>0</asrwt>
<pdfrwt beam="1">  1        2 0.24195300E-01 0.51522554E+03</pdfrwt>
<pdfrwt beam="2">  1       -2 0.64919781E-01 0.51522554E+03</pdfrwt>
<totfact> 0.50237790E+02</totfact>
</mgrwt>
</event>
<event>
 6    1  0.9562506E-007  0.2729839E+04  0.7818608E-02  0.8325388E-01
         -2   -1    0    0    0  501 -0.00000000000E+00  0.00000000000E+00  0.55874535049E+03  0.55874535049E+03  0.00000000000E+00 0.  1.
          2   -1    0    0  501    0  0.00000000000E+00 -0.00000000000E+00 -0.33342651574E+04  0.33342651574E+04  0.00000000000E+00 0. -1.
         23    2    1    2    0    0 -0.37104869149E+03 -0.67305704435E+03  0.21672088174E+03  0.80364370300E+03  0.90511570395E+02 0.  0.
         13    1    3    3    0    0 -0.11873396857E+03 -0.24871897558E+03  0.11987972587E+03  0.30054955129E+03  0.00000000000E+00 0. -1.
        -13    1    3    3    0    0 -0.25231472292E+03 -0.42433806878E+03  0.96841155871E+02  0.50309415171E+03  0.00000000000E+00 0.  1.
         22    1    1    2    0    0  0.37104869149E+03  0.67305704435E+03 -0.29922406887E+04  0.30893668049E+04  0.00000000000E+00 0. -1.
<mgrwt>
<rscale>  0 0.27298389E+04</rscale>
<asrwt>0</asrwt>
<pdfrwt beam="1">  1        2 0.51296387E+00 0.27298389E+04</pdfrwt>
<pdfrwt beam="2">  1       -2 0.85960823E-01 0.27298389E+04</pdfrwt>
<totfact> 0.10856967E+00</totfact>
</mgrwt>
</event>
<event>
 6    1  0.9562506E-007  0.3007120E+04  0.7818608E-02  0.8241701E-01
          1   -1    0    0  501    0  0.00000000000E+00  0.00000000000E+00  0.30334145603E+04  0.30334145603E+04  0.00000000000E+00 0. -1.
         -1   -1    0    0    0  501 -0.00000000000E+00 -0.00000000000E+00 -0.74526353124E+03  0.74526353124E+03  0.00000000000E+00 0.  1.
         23    2    1    2    0    0  0.77213983674E+03 -0.45876440047E+03 -0.36781778289E+03  0.97496001858E+03  0.92695273840E+02 0.  0.
         11    1    3    3    0    0  0.33079330804E+03 -0.16142585169E+03 -0.18745094201E+03  0.41306219132E+03  0.00000000000E+00 0. -1.
        -11    1    3    3    0    0  0.44134652870E+03 -0.29733854878E+03 -0.18036684088E+03  0.56189782726E+03  0.00000000000E+00 0.  1.
         22    1    1    2    0    0 -0.77213983674E+03  0.45876440047E+03  0.26559688119E+04  0.28037180729E+04  0.00000000000E+00 0. -1.
<mgrwt>
<rscale>  0 0.30071204E+04</rscale>
<asrwt>0</asrwt>
<pdfrwt beam="1">  1        1 0.46667916E+00 0.30071204E+04</pdfrwt>
<pdfrwt beam="2">  1       -1 0.11465593E+00 0.30071204E+04</pdfrwt>
<totfact> 0.33198611E-01</totfact>
</mgrwt>
</event>
<event>
 6    1  0.9562506E-007  0.2803401E+04  0.7818608E-02  0.8302213E-01
         -2   -1    0    0    0  501 -0.00000000000E+00  0.00000000000E+00  0.78072306439E+03  0.78072306439E+03  0.00000000000E+00 0.  1.
          2   -1    0    0  501    0  0.00000000000E+00 -0.00000000000E+00 -0.25165956857E+04  0.25165956857E+04  0.00000000000E+00 0. -1.
         23    2    1    2    0    0 -0.13743973486E+04  0.14420017751E+02 -0.55533775636E+03  0.14854582212E+04  0.94921517328E+02 0.  0.
         11    1    3    3    0    0 -0.73354116233E+03  0.48035941106E+02 -0.26973669271E+03  0.78303765673E+03  0.00000000000E+00 0.  1.
        -11    1    3    3    0    0 -0.64085618628E+03 -0.33615923355E+02 -0.28560106365E+03  0.70242056445E+03  0.00000000000E+00 0. -1.
         22    1    1    2    0    0  0.13743973486E+04 -0.14420017751E+02 -0.11805348649E+04  0.18118605289E+04  0.00000000000E+00 0.  1.
<mgrwt>
<rscale>  0 0.28034010E+04</rscale>
<asrwt>0</asrwt>
<pdfrwt beam="1">  1        2 0.38716857E+00 0.28034010E+04</pdfrwt>
<pdfrwt beam="2">  1       -2 0.12011124E+00 0.28034010E+04</pdfrwt>
<totfact> 0.15687378E+00</totfact>
</mgrwt>
</event>
<event>
 6    1  0.9562506E-007  0.6487503E+03  0.7818608E-02  0.9809127E-01
         -1   -1    0    0    0  501 -0.00000000000E+00  0.00000000000E+00  0.73453176627E+02  0.73453176627E+02  0.00000000000E+00 0.  1.
          1   -1    0    0  501    0  0.00000000000E+00 -0.00000000000E+00 -0.14324667485E+04  0.14324667485E+04  0.00000000000E+00 0. -1.
         23    2    1    2    0    0 -0.92215353803E+02 -0.30328501335E+03 -0.64060949385E+03  0.72068754543E+03  0.92328455699E+02 0.  0.
         11    1    3    3    0    0 -0.10053378286E+03 -0.29539968117E+03 -0.57620516614E+03  0.65527124660E+03  0.00000000000E+00 0.  1.
        -11    1    3    3    0    0  0.83184290524E+01 -0.78853321771E+01 -0.64404327709E+02  0.65416298834E+02  0.00000000000E+00 0. -1.
         22    1    1    2    0    0  0.92215353803E+02  0.30328501335E+03 -0.71840407802E+03  0.78523237969E+03  0.00000000000E+00 0. -1.
<mgrwt>
<rscale>  0 0.64875029E+03</rscale>
<asrwt>0</asrwt>
<pdfrwt beam="1">  1        1 0.22037949E+00 0.64875029E+03</pdfrwt>
<pdfrwt beam="2">  1       -1 0.11300489E-01 0.64875029E+03</pdfrwt>
<totfact> 0.38726385E+02</totfact>
</mgrwt>
</event>
<event>
 6    1  0.9562506E-007  0.2037410E+04  0.7818608E-02  0.8589327E-01
         -2   -1    0    0    0  501 -0.00000000000E+00  0.00000000000E+00  0.27119067831E+03  0.27119067831E+03  0.00000000000E+00 0.  1.
          2   -1    0    0  501    0  0.00000000000E+00 -0.00000000000E+00 -0.38266807703E+04  0.38266807703E+04  0.00000000000E+00 0. -1.
         23    2    1    2    0    0 -0.29559402974E+03 -0.65537808935E+03 -0.33393217251E+03  0.79706371428E+03  0.83087895459E+02 0.  0.
         11    1    3    3    0    0 -0.80526253641E+02 -0.16081003018E+03 -0.12345157162E+03  0.21813902418E+03  0.00000000000E+00 0.  1.
        -11    1    3    3    0    0 -0.21506777610E+03 -0.49456805916E+03 -0.21048060089E+03  0.57892469010E+03  0.00000000000E+00 0. -1.
         22    1    1    2    0    0  0.29559402974E+03  0.65537808935E+03 -0.32215579195E+04  0.33008077343E+04  0.00000000000E+00 0. -1.
<mgrwt>
<rscale>  0 0.20374103E+04</rscale>
<asrwt>0</asrwt>
<pdfrwt beam="1">  1        2 0.58872003E+00 0.20374103E+04</pdfrwt>
<pdfrwt beam="2">  1       -2 0.41721649E-01 0.20374103E+04</pdfrwt>
<totfact> 0.23819036E+00</totfact>
</mgrwt>
</event>
<event>
 6    1  0.9562506E-007  0.2681398E+04  0.7818608E-02  0.8341066E-01
         -2   -1    0    0    0  501 -0.00000000000E+00  0.00000000000E+00  0.60244247757E+03  0.60244247757E+03  0.00000000000E+00 0.  1.
          2   -1    0    0  501    0  0.00000000000E+00 -0.00000000000E+00 -0.29836443150E+04  0.29836443150E+04  0.00000000000E+00 0. -1.
         23    2    1    2    0    0  0.95315235891E+03  0.54730763976E+03 -0.22151693492E+04  0.24745059998E+04  0.90330644345E+02 0.  0.
         11    1    3    3    0    0  0.46222997759E+03  0.21428029202E+03 -0.10410994577E+04  0.11590775110E+04  0.00000000000E+00 0.  1.
        -11    1    3    3    0    0  0.49092238133E+03  0.33302734774E+03 -0.11740698916E+04  0.13154284888E+04  0.00000000000E+00 0. -1.
         22    1    1    2    0    0 -0.95315235891E+03 -0.54730763976E+03 -0.16603248823E+03  0.11115807928E+04  0.00000000000E+00 0.  1.
<mgrwt>
<rscale>  0 0.26813982E+04</rscale>
<asrwt>0</asrwt>
<pdfrwt beam="1">  1        2 0.45902219E+00 0.26813982E+04</pdfrwt>
<pdfrwt beam="2">  1       -2 0.92683461E-01 0.26813982E+04</pdfrwt>
<totfact> 0.15459618E+00</totfact>
</mgrwt>
</event>
<event>
 6    1  0.9562506E-007  0.2784616E+04  0.7818608E-02  0.8308060E-01
          2   -1    0    0  501    0  0.00000000000E+00  0.00000000000E+00  0.12835456637E+04  0.12835456637E+04  0.00000000000E+00 0. -1.
         -2   -1    0    0    0  501 -0.00000000000E+00 -0.00000000000E+00 -0.15102868704E+04  0.15102868704E+04  0.00000000000E+00 0.  1.
         23    2    1    2    0    0  0.12017957349E+04 -0.27398741571E+03 -0.75976281000E+03  0.14508901965E+04  0.91982293898E+02 0.  0.
         13    1    3    3    0    0  0.92770258294E+03 -0.20212046428E+03 -0.62824929888E+03  0.11384998665E+04  0.00000000000E+00 0. -1.
        -13    1    3    3    0    0  0.27409315195E+03 -0.71866951427E+02 -0.13151351112E+03  0.31239032998E+03  0.00000000000E+00 0.  1.
         22    1    1    2    0    0 -0.12017957349E+04  0.27398741571E+03  0.53302160331E+03  0.13429423375E+04  0.00000000000E+00 0.  1.
<mgrwt>
<rscale>  0 0.27846164E+04</rscale>
<asrwt>0</asrwt>
<pdfrwt beam="1">  1        2 0.19746856E+00 0.27846164E+04</pdfrwt>
<pdfrwt beam="2">  1       -2 0.23235183E+00 0.27846164E+04</pdfrwt>
<totfact> 0.12171174E+00</totfact>
</mgrwt>
</event>
<event>
 6    1  0.9562506E-007  0.1209360E+04  0.7818608E-02  0.9104703E-01
         -2   -1    0    0    0  501 -0.00000000000E+00  0.00000000000E+00  0.58214887645E+03  0.58214887645E+03  0.00000000000E+00 0.  1.
          2   -1    0    0  501    0  0.00000000000E+00 -0.00000000000E+00 -0.62808344817E+03  0.62808344817E+03  0.00000000000E+00 0. -1.
         23    2    1    2    0    0  0.10006445216E+03 -0.93310094107E+01 -0.61631289027E+03  0.63106793638E+03  0.91132866144E+02 0.  0.
         13    1    3    3    0    0  0.98309719172E+02 -0.22399464688E+01 -0.32237419897E+03  0.33703848802E+03  0.00000000000E+00 0. -1.
        -13    1    3    3    0    0  0.17547329912E+01 -0.70910629418E+01 -0.29393869130E+03  0.29402944836E+03  0.00000000000E+00 0.  1.
         22    1    1    2    0    0 -0.10006445216E+03  0.93310094107E+01  0.57037831856E+03  0.57916438824E+03  0.00000000000E+00 0.  1.
<mgrwt>
<rscale>  0 0.12093603E+04</rscale>
<asrwt>0</asrwt>
<pdfrwt beam="1">  1        2 0.96628223E-01 0.12093603E+04</pdfrwt>
<pdfrwt beam="2">  1       -2 0.89561366E-01 0.12093603E+04</pdfrwt>
<totfact> 0.49458931E+01</totfact>
</mgrwt>
</event>
<event>
 6    1  0.9562506E-007  0.4007304E+04  0.7818608E-02  0.8003075E-01
          2   -1    0    0  501    0  0.00000000000E+00  0.00000000000E+00  0.22635720705E+04  0.22635720705E+04  0.00000000000E+00 0. -1.
         -2   -1    0    0    0  501 -0.00000000000E+00 -0.00000000000E+00 -0.17735781503E+04  0.17735781503E+04  0.00000000000E+00 0.  1.
         23    2    1    2    0    0  0.89009910011E+03 -0.41293244450E+03 -0.15136028232E+04  0.18061886519E+04  0.92381427557E+02 0.  0.
         11    1    3    3    0    0  0.67191820781E+03 -0.30565826533E+03 -0.12078020191E+04  0.14155164324E+04  0.00000000000E+00 0. -1.
        -11    1    3    3    0    0  0.21818089229E+03 -0.10727417916E+03 -0.30580080406E+03  0.39067221944E+03  0.00000000000E+00 0.  1.
         22    1    1    2    0    0 -0.89009910011E+03  0.41293244450E+03  0.20035967434E+04  0.22309615689E+04  0.00000000000E+00 0. -1.
<mgrwt>
<rscale>  0 0.40073043E+04</rscale>
<asrwt>0</asrwt>
<pdfrwt beam="1">  1        2 0.34824186E+00 0.40073043E+04</pdfrwt>
<pdfrwt beam="2">  1       -2 0.27285818E+00 0.40073043E+04</pdfrwt>
<totfact> 0.17452914E-01</totfact>
</mgrwt>
</event>
<event>
 6    1  0.1340835E-006  0.3618015E+04  0.7818608E-02  0.8086378E-01
          2   -1    0    0  501    0  0.00000000000E+00  0.00000000000E+00  0.20933438176E+04  0.20933438176E+04  0.00000000000E+00 0. -1.
         -2   -1    0    0    0  501 -0.00000000000E+00 -0.00000000000E+00 -0.15632921656E+04  0.15632921656E+04  0.00000000000E+00 0.  1.
         23    2    1    2    0    0 -0.17881472131E+04 -0.12678183087E+03  0.50056612740E+03  0.18637574362E+04  0.97371682893E+02 0.  0.
         13    1    3    3    0    0 -0.55240576747E+03 -0.56776514302E+02  0.11222246874E+03  0.56654177869E+03  0.00000000000E+00 0. -1.
        -13    1    3    3    0    0 -0.12357414456E+04 -0.70005316573E+02  0.38834365866E+03  0.12972156575E+04  0.00000000000E+00 0.  1.
         22    1    1    2    0    0  0.17881472131E+04  0.12678183087E+03  0.29485524621E+02  0.17928785471E+04  0.00000000000E+00 0.  1.
<mgrwt>
<rscale>  0 0.36180149E+04</rscale>
<asrwt>0</asrwt>
<pdfrwt beam="1">  1        2 0.32205290E+00 0.36180149E+04</pdfrwt>
<pdfrwt beam="2">  1       -2 0.24050649E+00 0.36180149E+04</pdfrwt>
<totfact> 0.35472704E-01</totfact>
</mgrwt>
</event>
<event>
 6    1  0.9562506E-007  0.1290494E+04  0.7818608E-02  0.9037138E-01
          1   -1    0    0  501    0  0.00000000000E+00  0.00000000000E+00  0.50776429126E+03  0.50776429126E+03  0.00000000000E+00 0. -1.
         -1   -1    0    0    0  501 -0.00000000000E+00 -0.00000000000E+00 -0.81995433397E+03  0.81995433397E+03  0.00000000000E+00 0.  1.
         23    2    1    2    0    0  0.21026510567E+03 -0.54303990663E+03 -0.43488751282E+03  0.73260651475E+03  0.92094526371E+02 0.  0.
         13    1    3    3    0    0  0.10877471261E+03 -0.36995400380E+03 -0.24851449411E+03  0.45875631529E+03  0.00000000000E+00 0. -1.
        -13    1    3    3    0    0  0.10149039306E+03 -0.17308590283E+03 -0.18637301871E+03  0.27385019946E+03  0.00000000000E+00 0.  1.
         22    1    1    2    0    0 -0.21026510567E+03  0.54303990663E+03  0.12269747012E+03  0.59511211048E+03  0.00000000000E+00 0. -1.
<mgrwt>
<rscale>  0 0.12904938E+04</rscale>
<asrwt>0</asrwt>
<pdfrwt beam="1">  1        1 0.78117584E-01 0.12904938E+04</pdfrwt>
<pdfrwt beam="2">  1       -1 0.12614682E+00 0.12904938E+04</pdfrwt>
<totfact> 0.23342057E+01</totfact>
</mgrwt>
</event>
<event>
 6    1  0.9626280E-007  0.1448258E+04  0.7818608E-02  0.8919609E-01
          2   -1    0    0  501    0  0.00000000000E+00  0.00000000000E+00  0.53044672030E+03  0.53044672030E+03  0.00000000000E+00 0. -1.
         -2   -1    0    0    0  501 -0.00000000000E+00 -0.00000000000E+00 -0.98853092897E+03  0.98853092897E+03  0.00000000000E+00 0.  1.
         23    2    1    2    0    0 -0.69087440070E+02 -0.18094069180E+03 -0.95878368620E+03  0.98212331602E+03  0.88246487856E+02 0.  0.
         11    1    3    3    0    0 -0.15421602958E+02 -0.10784374289E+02 -0.26835320986E+03  0.26901221870E+03  0.00000000000E+00 0. -1.
        -11    1    3    3    0    0 -0.53665837113E+02 -0.17015631752E+03 -0.69043047634E+03  0.71311109732E+03  0.00000000000E+00 0.  1.
         22    1    1    2    0    0  0.69087440070E+02  0.18094069180E+03  0.50069947753E+03  0.53685433325E+03  0.00000000000E+00 0. -1.
<mgrwt>
<rscale>  0 0.14482582E+04</rscale>
<asrwt>0</asrwt>
<pdfrwt beam="1">  1        2 0.81607188E-01 0.14482582E+04</pdfrwt>
<pdfrwt beam="2">  1       -2 0.15208168E+00 0.14482582E+04</pdfrwt>
<totfact> 0.16082813E+01</totfact>
</mgrwt>
</event>
<event>
 6    1  0.1033439E-006  0.3898260E+04  0.7818608E-02  0.8025391E-01
         -2   -1    0    0    0  501 -0.00000000000E+00  0.00000000000E+00  0.15650800767E+04  0.15650800767E+04  0.00000000000E+00 0.  1.
          2   -1    0    0  501    0  0.00000000000E+00 -0.00000000000E+00 -0.24274210897E+04  0.24274210897E+04  0.00000000000E+00 0. -1.
         23    2    1    2    0    0  0.11658745866E+04 -0.10836648447E+04 -0.15817059083E+04  0.22457673859E+04  0.89913979768E+02 0.  0.
         11    1    3    3    0    0  0.65797750858E+03 -0.64877707572E+03 -0.86807566120E+03  0.12678333681E+04  0.00000000000E+00 0.  1.
        -11    1    3    3    0    0  0.50789707803E+03 -0.43488776896E+03 -0.71363024712E+03  0.97793401775E+03  0.00000000000E+00 0. -1.
         22    1    1    2    0    0 -0.11658745866E+04  0.10836648447E+04  0.71936489533E+03  0.17467337805E+04  0.00000000000E+00 0.  1.
<mgrwt>
<rscale>  0 0.38982603E+04</rscale>
<asrwt>0</asrwt>
<pdfrwt beam="1">  1        2 0.37344940E+00 0.38982603E+04</pdfrwt>
<pdfrwt beam="2">  1       -2 0.24078155E+00 0.38982603E+04</pdfrwt>
<totfact> 0.22339129E-01</totfact>
</mgrwt>
</event>
<event>
 6    1  0.9562506E-007  0.1744655E+04  0.7818608E-02  0.8736298E-01
          2   -1    0    0  501    0  0.00000000000E+00  0.00000000000E+00  0.40145092226E+04  0.40145092226E+04  0.00000000000E+00 0. -1.
         -2   -1    0    0    0  501 -0.00000000000E+00 -0.00000000000E+00 -0.18955132779E+03  0.18955132779E+03  0.00000000000E+00 0.  1.
         23    2    1    2    0    0  0.77843560154E+03 -0.33819906202E+03  0.23767607847E+04  0.25254851243E+04  0.93502374978E+02 0.  0.
         11    1    3    3    0    0  0.48516543112E+03 -0.21571757343E+03  0.16164866705E+04  0.17014548842E+04  0.00000000000E+00 0. -1.
        -11    1    3    3    0    0  0.29327017041E+03 -0.12248148859E+03  0.76027411421E+03  0.82403024013E+03  0.00000000000E+00 0.  1.
         22    1    1    2    0    0 -0.77843560154E+03  0.33819906202E+03  0.14481971101E+04  0.16785754261E+04  0.00000000000E+00 0. -1.
<mgrwt>
<rscale>  0 0.17446553E+04</rscale>
<asrwt>0</asrwt>
<pdfrwt beam="1">  1        2 0.61761674E+00 0.17446553E+04</pdfrwt>
<pdfrwt beam="2">  1       -2 0.29161746E-01 0.17446553E+04</pdfrwt>
<totfact> 0.34692550E+00</totfact>
</mgrwt>
</event>
<event>
 6    1  0.9562506E-007  0.2961735E+04  0.7818608E-02  0.8254743E-01
          2   -1    0    0  501    0  0.00000000000E+00  0.00000000000E+00  0.21846607222E+04  0.21846607222E+04  0.00000000000E+00 0. -1.
         -2   -1    0    0    0  501 -0.00000000000E+00 -0.00000000000E+00 -0.10038029097E+04  0.10038029097E+04  0.00000000000E+00 0.  1.
         23    2    1    2    0    0  0.38352951614E+03  0.13410995613E+02 -0.94726389861E+03  0.10260166933E+04  0.90147749739E+02 0.  0.
         11    1    3    3    0    0  0.92655349275E+02  0.28377699222E+02 -0.16582464308E+03  0.19206280175E+03  0.00000000000E+00 0. -1.
        -11    1    3    3    0    0  0.29087416687E+03 -0.14966703609E+02 -0.78143925553E+03  0.83395389156E+03  0.00000000000E+00 0.  1.
         22    1    1    2    0    0 -0.38352951614E+03 -0.13410995613E+02  0.21281217112E+04  0.21624469386E+04  0.00000000000E+00 0. -1.
<mgrwt>
<rscale>  0 0.29617352E+04</rscale>
<asrwt>0</asrwt>
<pdfrwt beam="1">  1        2 0.33610165E+00 0.29617352E+04</pdfrwt>
<pdfrwt beam="2">  1       -2 0.15443122E+00 0.29617352E+04</pdfrwt>
<totfact> 0.12540118E+00</totfact>
</mgrwt>
</event>
<event>
 6    1  0.9562506E-007  0.4036435E+04  0.7818608E-02  0.7997237E-01
          2   -1    0    0  501    0  0.00000000000E+00  0.00000000000E+00  0.27674159573E+04  0.27674159573E+04  0.00000000000E+00 0. -1.
         -2   -1    0    0    0  501 -0.00000000000E+00 -0.00000000000E+00 -0.14718429053E+04  0.14718429053E+04  0.00000000000E+00 0.  1.
         23    2    1    2    0    0 -0.10807014928E+03 -0.84721464883E+03 -0.12711374825E+04  0.15341794208E+04  0.92000964172E+02 0.  0.
         13    1    3    3    0    0 -0.73380101867E+02 -0.38025309553E+03 -0.50699830299E+03  0.63798458856E+03  0.00000000000E+00 0.  1.
        -13    1    3    3    0    0 -0.34690047414E+02 -0.46696155330E+03 -0.76413917953E+03  0.89619483225E+03  0.00000000000E+00 0. -1.
         22    1    1    2    0    0  0.10807014928E+03  0.84721464883E+03  0.25667105345E+04  0.27050794418E+04  0.00000000000E+00 0. -1.
<mgrwt>
<rscale>  0 0.40364348E+04</rscale>
<asrwt>0</asrwt>
<pdfrwt beam="1">  1        2 0.42575630E+00 0.40364348E+04</pdfrwt>
<pdfrwt beam="2">  1       -2 0.22643737E+00 0.40364348E+04</pdfrwt>
<totfact> 0.17126984E-01</totfact>
</mgrwt>
</event>
<event>
 6    1  0.9562506E-007  0.3335174E+04  0.7818608E-02  0.8154003E-01
         -2   -1    0    0    0  501 -0.00000000000E+00  0.00000000000E+00  0.18009573168E+04  0.18009573168E+04  0.00000000000E+00 0.  1.
          2   -1    0    0  501    0  0.00000000000E+00 -0.00000000000E+00 -0.15440933750E+04  0.15440933750E+04  0.00000000000E+00 0. -1.
         23    2    1    2    0    0 -0.49175187326E+03  0.17135828140E+03  0.17161247117E+04  0.17956554678E+04  0.90060910555E+02 0.  0.
         13    1    3    3    0    0 -0.37728740365E+03  0.14037889224E+03  0.14385174548E+04  0.14937819406E+04  0.00000000000E+00 0. -1.
        -13    1    3    3    0    0 -0.11446446961E+03  0.30979389164E+02  0.27760725693E+03  0.30187352725E+03  0.00000000000E+00 0.  1.
         22    1    1    2    0    0  0.49175187326E+03 -0.17135828140E+03 -0.14592607699E+04  0.15493952240E+04  0.00000000000E+00 0. -1.
<mgrwt>
<rscale>  0 0.33351739E+04</rscale>
<asrwt>0</asrwt>
<pdfrwt beam="1">  1        2 0.23755283E+00 0.33351739E+04</pdfrwt>
<pdfrwt beam="2">  1       -2 0.27707036E+00 0.33351739E+04</pdfrwt>
<totfact> 0.43807713E-01</totfact>
</mgrwt>
</event>
<event>
 6    1  0.9562506E-007  0.3324256E+04  0.7818608E-02  0.8156751E-01
          2   -1    0    0  501    0  0.00000000000E+00  0.00000000000E+00  0.17515618477E+04  0.17515618477E+04  0.00000000000E+00 0. -1.
         -2   -1    0    0    0  501 -0.00000000000E+00 -0.00000000000E+00 -0.15772610173E+04  0.15772610173E+04  0.00000000000E+00 0.  1.
         23    2    1    2    0    0 -0.15457101994E+04 -0.43290296522E+03 -0.33942665790E+03  0.16434324265E+04  0.95050968632E+02 0.  0.
         11    1    3    3    0    0 -0.12488651783E+04 -0.35874786725E+03 -0.31154254970E+03  0.13361972258E+04  0.00000000000E+00 0.  1.
        -11    1    3    3    0    0 -0.29684502109E+03 -0.74155097971E+02 -0.27884108206E+02  0.30723520077E+03  0.00000000000E+00 0. -1.
         22    1    1    2    0    0  0.15457101994E+04  0.43290296522E+03  0.51372748834E+03  0.16853904385E+04  0.00000000000E+00 0.  1.
<mgrwt>
<rscale>  0 0.33242564E+04</rscale>
<asrwt>0</asrwt>
<pdfrwt beam="1">  1        2 0.26947105E+00 0.33242564E+04</pdfrwt>
<pdfrwt beam="2">  1       -2 0.24265554E+00 0.33242564E+04</pdfrwt>
<totfact> 0.54583080E-01</totfact>
</mgrwt>
</event>
<event>
 6    1  0.9562506E-007  0.1877549E+04  0.7818608E-02  0.8666113E-01
         -1   -1    0    0    0  501 -0.00000000000E+00  0.00000000000E+00  0.82695466919E+03  0.82695466919E+03  0.00000000000E+00 0.  1.
          1   -1    0    0  501    0  0.00000000000E+00 -0.00000000000E+00 -0.10657139892E+04  0.10657139892E+04  0.00000000000E+00 0. -1.
         23    2    1    2    0    0 -0.85580493861E+03  0.15096914351E+03 -0.47168284272E+03  0.99297585376E+03  0.91228103097E+02 0.  0.
         11    1    3    3    0    0 -0.33511243802E+03  0.10442156864E+03 -0.19283455932E+03  0.40048642596E+03  0.00000000000E+00 0. -1.
        -11    1    3    3    0    0 -0.52069250059E+03  0.46547574873E+02 -0.27884828341E+03  0.59248942780E+03  0.00000000000E+00 0.  1.
         22    1    1    2    0    0  0.85580493861E+03 -0.15096914351E+03  0.23292352273E+03  0.89969280462E+03  0.00000000000E+00 0.  1.
<mgrwt>
<rscale>  0 0.18775486E+04</rscale>
<asrwt>0</asrwt>
<pdfrwt beam="1">  1        1 0.16395600E+00 0.18775486E+04</pdfrwt>
<pdfrwt beam="2">  1       -1 0.12722380E+00 0.18775486E+04</pdfrwt>
<totfact> 0.67580162E+00</totfact>
</mgrwt>
</event>
<event>
 6    1  0.9562506E-007  0.3402916E+04  0.7818608E-02  0.8137191E-01
          1   -1    0    0  501    0  0.00000000000E+00  0.00000000000E+00  0.13270094033E+04  0.13270094033E+04  0.00000000000E+00 0. -1.
         -1   -1    0    0    0  501 -0.00000000000E+00 -0.00000000000E+00 -0.21815660848E+04  0.21815660848E+04  0.00000000000E+00 0.  1.
         23    2    1    2    0    0  0.13114868035E+04  0.65538988050E+03 -0.13152521043E+04  0.19717691230E+04  0.91933918738E+02 0.  0.
         11    1    3    3    0    0  0.92694465918E+03  0.49426688323E+03 -0.89961241830E+03  0.13830504894E+04  0.00000000000E+00 0. -1.
        -11    1    3    3    0    0  0.38454214430E+03  0.16112299726E+03 -0.41563968596E+03  0.58871863359E+03  0.00000000000E+00 0.  1.
         22    1    1    2    0    0 -0.13114868035E+04 -0.65538988050E+03  0.46069542274E+03  0.15368063651E+04  0.00000000000E+00 0. -1.
<mgrwt>
<rscale>  0 0.34029156E+04</rscale>
<asrwt>0</asrwt>
<pdfrwt beam="1">  1        1 0.20415529E+00 0.34029156E+04</pdfrwt>
<pdfrwt beam="2">  1       -1 0.33562555E+00 0.34029156E+04</pdfrwt>
<totfact> 0.13755577E-01</totfact>
</mgrwt>
</event>
<event>
 6    1  0.9562506E-007  0.1787637E+04  0.7818608E-02  0.8712902E-01
         -2   -1    0    0    0  501 -0.00000000000E+00  0.00000000000E+00  0.80412752591E+03  0.80412752591E+03  0.00000000000E+00 0.  1.
          2   -1    0    0  501    0  0.00000000000E+00 -0.00000000000E+00 -0.99351380805E+03  0.99351380805E+03  0.00000000000E+00 0. -1.
         23    2    1    2    0    0  0.26345747305E+03 -0.40110503610E+03 -0.85041541778E+03  0.98078479315E+03  0.91854981264E+02 0.  0.
         11    1    3    3    0    0  0.12519540536E+03 -0.23629513085E+03 -0.54673395581E+03  0.60862738751E+03  0.00000000000E+00 0.  1.
        -11    1    3    3    0    0  0.13826206769E+03 -0.16480990525E+03 -0.30368146197E+03  0.37215740565E+03  0.00000000000E+00 0. -1.
         22    1    1    2    0    0 -0.26345747305E+03  0.40110503610E+03  0.66102913564E+03  0.81685654081E+03  0.00000000000E+00 0.  1.
<mgrwt>
<rscale>  0 0.17876373E+04</rscale>
<asrwt>0</asrwt>
<pdfrwt beam="1">  1        2 0.15284828E+00 0.17876373E+04</pdfrwt>
<pdfrwt beam="2">  1       -2 0.12371193E+00 0.17876373E+04</pdfrwt>
<totfact> 0.11827386E+01</totfact>
</mgrwt>
</event>
<event>
 6    1  0.9562506E-007  0.4383324E+04  0.7818608E-02  0.7931388E-01
         -2   -1    0    0    0  501 -0.00000000000E+00  0.00000000000E+00  0.16505028916E+04  0.16505028916E+04  0.00000000000E+00 0.  1.
          2   -1    0    0  501    0  0.00000000000E+00 -0.00000000000E+00 -0.29102541745E+04  0.29102541745E+04  0.00000000000E+00 0. -1.
         23    2    1    2    0    0 -0.17576512385E+04 -0.96665080818E+03  0.28593919409E+03  0.20283845201E+04  0.93972749072E+02 0.  0.
         13    1    3    3    0    0 -0.98898412091E+03 -0.54947232648E+03  0.20804494233E+03  0.11503443515E+04  0.00000000000E+00 0. -1.
        -13    1    3    3    0    0 -0.76866711761E+03 -0.41717848169E+03  0.77894251757E+02  0.87804016863E+03  0.00000000000E+00 0.  1.
         22    1    1    2    0    0  0.17576512385E+04  0.96665080818E+03 -0.15456904770E+04  0.25323725460E+04  0.00000000000E+00 0. -1.
<mgrwt>
<rscale>  0 0.43833243E+04</rscale>
<asrwt>0</asrwt>
<pdfrwt beam="1">  1        2 0.44773140E+00 0.43833243E+04</pdfrwt>
<pdfrwt beam="2">  1       -2 0.25392353E+00 0.43833243E+04</pdfrwt>
<totfact> 0.92028512E-02</totfact>
</mgrwt>
</event>
<event>
 6    1  0.9562506E-007  0.1128506E+04  0.7818608E-02  0.9177845E-01
         -2   -1    0    0    0  501 -0.00000000000E+00  0.00000000000E+00  0.18591726092E+04  0.18591726092E+04  0.00000000000E+00 0.  1.
          2   -1    0    0  501    0  0.00000000000E+00 -0.00000000000E+00 -0.17124891956E+03  0.17124891956E+03  0.00000000000E+00 0. -1.
         23    2    1    2    0    0  0.41290455285E+02 -0.42720398488E+03  0.20347510476E+03  0.48517211602E+03  0.98902565725E+02 0.  0.
         13    1    3    3    0    0  0.73885613607E+02 -0.31137727717E+03  0.15231902909E+03  0.35442344626E+03  0.00000000000E+00 0. -1.
        -13    1    3    3    0    0 -0.32595158322E+02 -0.11582670771E+03  0.51156075674E+02  0.13074866976E+03  0.00000000000E+00 0.  1.
         22    1    1    2    0    0 -0.41290455285E+02  0.42720398488E+03  0.14844485849E+04  0.15452494127E+04  0.00000000000E+00 0.  1.
<mgrwt>
<rscale>  0 0.11285057E+04</rscale>
<asrwt>0</asrwt>
<pdfrwt beam="1">  1        2 0.26345989E-01 0.11285057E+04</pdfrwt>
<pdfrwt beam="2">  1       -2 0.28602654E+00 0.11285057E+04</pdfrwt>
<totfact> 0.79877120E+00</totfact>
</mgrwt>
</event>
<event>
 6    1  0.9562506E-007  0.2136811E+04  0.7818608E-02  0.8545199E-01
          2   -1    0    0  501    0  0.00000000000E+00  0.00000000000E+00  0.24857885199E+04  0.24857885199E+04  0.00000000000E+00 0. -1.
         -2   -1    0    0    0  501 -0.00000000000E+00 -0.00000000000E+00 -0.45920633065E+03  0.45920633065E+03  0.00000000000E+00 0.  1.
         23    2    1    2    0    0 -0.75889033007E+02 -0.95400107620E+03  0.36673510477E+03  0.10290174126E+04  0.92222555394E+02 0.  0.
         13    1    3    3    0    0 -0.55903671633E+02 -0.24461340771E+03  0.11505850341E+03  0.27604238613E+03  0.00000000000E+00 0. -1.
        -13    1    3    3    0    0 -0.19985361374E+02 -0.70938766850E+03  0.25167660137E+03  0.75297502652E+03  0.00000000000E+00 0.  1.
         22    1    1    2    0    0  0.75889033007E+02  0.95400107620E+03  0.16598470845E+04  0.19159774379E+04  0.00000000000E+00 0.  1.
<mgrwt>
<rscale>  0 0.21368105E+04</rscale>
<asrwt>0</asrwt>
<pdfrwt beam="1">  1        2 0.38242900E+00 0.21368105E+04</pdfrwt>
<pdfrwt beam="2">  1       -2 0.70647129E-01 0.21368105E+04</pdfrwt>
<totfact> 0.59397915E+00</totfact>
</mgrwt>
</event>
<event>
 6    1  0.9562506E-007  0.2854060E+04  0.7818608E-02  0.8286679E-01
         -1   -1    0    0    0  501 -0.00000000000E+00  0.00000000000E+00  0.13826209307E+04  0.13826209307E+04  0.00000000000E+00 0.  1.
          1   -1    0    0  501    0  0.00000000000E+00 -0.00000000000E+00 -0.14728659662E+04  0.14728659662E+04  0.00000000000E+00 0. -1.
         23    2    1    2    0    0  0.72980060502E+03  0.11387498700E+04 -0.49359180798E+03  0.14440873048E+04  0.11133319934E+03 0.  0.
         13    1    3    3    0    0  0.61359034614E+03  0.90375971429E+03 -0.36223695208E+03  0.11508650414E+04  0.00000000000E+00 0.  1.
        -13    1    3    3    0    0  0.11621025888E+03  0.23499015576E+03 -0.13135485590E+03  0.29322226337E+03  0.00000000000E+00 0. -1.
         22    1    1    2    0    0 -0.72980060502E+03 -0.11387498700E+04  0.40334677246E+03  0.14113995921E+04  0.00000000000E+00 0.  1.
<mgrwt>
<rscale>  0 0.28540605E+04</rscale>
<asrwt>0</asrwt>
<pdfrwt beam="1">  1        1 0.22659476E+00 0.28540605E+04</pdfrwt>
<pdfrwt beam="2">  1       -1 0.21271091E+00 0.28540605E+04</pdfrwt>
<totfact> 0.72552065E-01</totfact>
</mgrwt>
</event>
<event>
 6    1  0.9996449E-007  0.1632981E+04  0.7818608E-02  0.8800539E-01
          2   -1    0    0  501    0  0.00000000000E+00  0.00000000000E+00  0.13286661906E+04  0.13286661906E+04  0.00000000000E+00 0. -1.
         -2   -1    0    0    0  501 -0.00000000000E+00 -0.00000000000E+00 -0.50174872618E+03  0.50174872618E+03  0.00000000000E+00 0.  1.
         23    2    1    2    0    0 -0.47283898265E+03 -0.17094590719E+03  0.11322580583E+04  0.12421699976E+04  0.90436638690E+02 0.  0.
         11    1    3    3    0    0 -0.30380460747E+03 -0.14216711659E+03  0.67321913132E+03  0.75215206397E+03  0.00000000000E+00 0.  1.
        -11    1    3    3    0    0 -0.16903437517E+03 -0.28778790598E+02  0.45903892699E+03  0.49001793362E+03  0.00000000000E+00 0. -1.
         22    1    1    2    0    0  0.47283898265E+03  0.17094590719E+03 -0.30534059388E+03  0.58824491920E+03  0.00000000000E+00 0.  1.
<mgrwt>
<rscale>  0 0.16329808E+04</rscale>
<asrwt>0</asrwt>
<pdfrwt beam="1">  1        2 0.20441018E+00 0.16329808E+04</pdfrwt>
<pdfrwt beam="2">  1       -2 0.77192112E-01 0.16329808E+04</pdfrwt>
<totfact> 0.22789154E+01</totfact>
</mgrwt>
</event>
<event>
 6    1  0.9562506E-007  0.6501505E+03  0.7818608E-02  0.9806497E-01
         -1   -1    0    0    0  501 -0.00000000000E+00  0.00000000000E+00  0.13700158649E+03  0.13700158649E+03  0.00000000000E+00 0.  1.
          1   -1    0    0  501    0  0.00000000000E+00 -0.00000000000E+00 -0.77133357374E+03  0.77133357374E+03  0.00000000000E+00 0. -1.
         23    2    1    2    0    0 -0.12254875996E+03  0.12817436353E+03 -0.69344761827E+03  0.72140864026E+03  0.90077527240E+02 0.  0.
         11    1    3    3    0    0 -0.13212528549E+02  0.17019859814E+02 -0.25783501519E+03  0.25873372722E+03  0.00000000000E+00 0. -1.
        -11    1    3    3    0    0 -0.10933623141E+03  0.11115450372E+03 -0.43561260308E+03  0.46267491304E+03  0.00000000000E+00 0.  1.
         22    1    1    2    0    0  0.12254875996E+03 -0.12817436353E+03  0.59115631021E+02  0.18692651997E+03  0.00000000000E+00 0.  1.
<mgrwt>
<rscale>  0 0.65015052E+03</rscale>
<asrwt>0</asrwt>
<pdfrwt beam="1">  1        1 0.11866670E+00 0.65015052E+03</pdfrwt>
<pdfrwt beam="2">  1       -1 0.21077167E-01 0.65015052E+03</pdfrwt>
<totfact> 0.44373736E+02</totfact>
</mgrwt>
</event>
<event>
 6    1  0.9562506E-007  0.1613098E+04  0.7818608E-02  0.8812542E-01
         -2   -1    0    0    0  501 -0.00000000000E+00  0.00000000000E+00  0.44689571230E+03  0.44689571230E+03  0.00000000000E+00 0.  1.
          2   -1    0    0  501    0  0.00000000000E+00 -0.00000000000E+00 -0.14556447218E+04  0.14556447218E+04  0.00000000000E+00 0. -1.
         23    2    1    2    0    0  0.43279427328E+03  0.62082783511E+03 -0.82592320286E+03  0.11239754982E+04  0.91835177041E+02 0.  0.
         13    1    3    3    0    0  0.36538128432E+02  0.10909558772E+03 -0.11894862504E+03  0.16548612476E+03  0.00000000000E+00 0.  1.
        -13    1    3    3    0    0  0.39625614485E+03  0.51173224739E+03 -0.70697457783E+03  0.95848937346E+03  0.00000000000E+00 0. -1.
         22    1    1    2    0    0 -0.43279427328E+03 -0.62082783511E+03 -0.18282580666E+03  0.77856493590E+03  0.00000000000E+00 0.  1.
<mgrwt>
<rscale>  0 0.16130981E+04</rscale>
<asrwt>0</asrwt>
<pdfrwt beam="1">  1        2 0.22394535E+00 0.16130981E+04</pdfrwt>
<pdfrwt beam="2">  1       -2 0.68753185E-01 0.16130981E+04</pdfrwt>
<totfact> 0.24908926E+01</totfact>
</mgrwt>
</event>
<event>
 6    1  0.9562506E-007  0.1898493E+04  0.7818608E-02  0.8655607E-01
         -2   -1    0    0    0  501 -0.00000000000E+00  0.00000000000E+00  0.51223785262E+03  0.51223785262E+03  0.00000000000E+00 0.  1.
          2   -1    0    0  501    0  0.00000000000E+00 -0.00000000000E+00 -0.17590832646E+04  0.17590832646E+04  0.00000000000E+00 0. -1.
         23    2    1    2    0    0 -0.74462735049E+03  0.50404508610E+03 -0.98108002416E+03  0.13336844172E+04  0.87548677633E+02 0.  0.
         11    1    3    3    0    0 -0.62743458976E+03  0.38614204123E+03 -0.81666534124E+03  0.10998736837E+04  0.00000000000E+00 0. -1.
        -11    1    3    3    0    0 -0.11719276073E+03  0.11790304487E+03 -0.16441468292E+03  0.23381073353E+03  0.00000000000E+00 0.  1.
         22    1    1    2    0    0  0.74462735049E+03 -0.50404508610E+03 -0.26576538787E+03  0.93763670006E+03  0.00000000000E+00 0. -1.
<mgrwt>
<rscale>  0 0.18984931E+04</rscale>
<asrwt>0</asrwt>
<pdfrwt beam="1">  1        2 0.27062819E+00 0.18984931E+04</pdfrwt>
<pdfrwt beam="2">  1       -2 0.78805824E-01 0.18984931E+04</pdfrwt>
<totfact> 0.12176173E+01</totfact>
</mgrwt>
</event>
<event>
 6    1  0.9562506E-007  0.1458580E+04  0.7818608E-02  0.8912474E-01
          2   -1    0    0  501    0  0.00000000000E+00  0.00000000000E+00  0.44635136144E+03  0.44635136144E+03  0.00000000000E+00 0. -1.
         -2   -1    0    0    0  501 -0.00000000000E+00 -0.00000000000E+00 -0.11915813609E+04  0.11915813609E+04  0.00000000000E+00 0.  1.
         23    2    1    2    0    0 -0.49467349600E+03  0.21396286475E+03 -0.92096933085E+03  0.10710409446E+04  0.91990333510E+02 0.  0.
         13    1    3    3    0    0 -0.21830897484E+03  0.63526672831E+02 -0.45704708633E+03  0.51047672403E+03  0.00000000000E+00 0. -1.
        -13    1    3    3    0    0 -0.27636452116E+03  0.15043619192E+03 -0.46392224452E+03  0.56056422055E+03  0.00000000000E+00 0.  1.
         22    1    1    2    0    0  0.49467349600E+03 -0.21396286475E+03  0.17573933136E+03  0.56689177779E+03  0.00000000000E+00 0. -1.
<mgrwt>
<rscale>  0 0.14585801E+04</rscale>
<asrwt>0</asrwt>
<pdfrwt beam="1">  1        2 0.68669441E-01 0.14585801E+04</pdfrwt>
<pdfrwt beam="2">  1       -2 0.18332021E+00 0.14585801E+04</pdfrwt>
<totfact> 0.11691154E+01</totfact>
</mgrwt>
</event>
<event>
 6    1  0.9562506E-007  0.4682552E+04  0.7818608E-02  0.7879434E-01
          1   -1    0    0  501    0  0.00000000000E+00  0.00000000000E+00  0.22973583667E+04  0.22973583667E+04  0.00000000000E+00 0. -1.
         -1   -1    0    0    0  501 -0.00000000000E+00 -0.00000000000E+00 -0.23860330857E+04  0.23860330857E+04  0.00000000000E+00 0.  1.
         23    2    1    2    0    0  0.46612987559E+03  0.15666214532E+04  0.16309177064E+04  0.23109290294E+04  0.94448796959E+02 0.  0.
         13    1    3    3    0    0  0.30257745856E+03  0.10173674844E+04  0.11218970280E+04  0.15444230827E+04  0.00000000000E+00 0.  1.
        -13    1    3    3    0    0  0.16355241704E+03  0.54925396880E+03  0.50902067840E+03  0.76650594675E+03  0.00000000000E+00 0. -1.
         22    1    1    2    0    0 -0.46612987559E+03 -0.15666214532E+04 -0.17195924255E+04  0.23724624230E+04  0.00000000000E+00 0.  1.
<mgrwt>
<rscale>  0 0.46825519E+04</rscale>
<asrwt>0</asrwt>
<pdfrwt beam="1">  1        1 0.35343975E+00 0.46825519E+04</pdfrwt>
<pdfrwt beam="2">  1       -1 0.36708201E+00 0.46825519E+04</pdfrwt>
<totfact> 0.16539878E-02</totfact>
</mgrwt>
</event>
<event>
 6    1  0.9562506E-007  0.2579156E+04  0.7818608E-02  0.8375316E-01
         -2   -1    0    0    0  501 -0.00000000000E+00  0.00000000000E+00  0.83583568345E+03  0.83583568345E+03  0.00000000000E+00 0.  1.
          2   -1    0    0  501    0  0.00000000000E+00 -0.00000000000E+00 -0.19896391170E+04  0.19896391170E+04  0.00000000000E+00 0. -1.
         23    2    1    2    0    0 -0.88771985726E+03 -0.89382662413E+03 -0.87079877225E+03  0.15343263902E+04  0.94310078465E+02 0.  0.
         11    1    3    3    0    0 -0.26959279895E+03 -0.25773740037E+03 -0.20773649818E+03  0.42692305802E+03  0.00000000000E+00 0. -1.
        -11    1    3    3    0    0 -0.61812705831E+03 -0.63608922376E+03 -0.66306227406E+03  0.11074033322E+04  0.00000000000E+00 0.  1.
         22    1    1    2    0    0  0.88771985726E+03  0.89382662413E+03 -0.28300466128E+03  0.12911484102E+04  0.00000000000E+00 0.  1.
<mgrwt>
<rscale>  0 0.25791560E+04</rscale>
<asrwt>0</asrwt>
<pdfrwt beam="1">  1        2 0.30609832E+00 0.25791560E+04</pdfrwt>
<pdfrwt beam="2">  1       -2 0.12859011E+00 0.25791560E+04</pdfrwt>
<totfact> 0.26784841E+00</totfact>
</mgrwt>
</event>
<event>
 6    1  0.9562506E-007  0.2577823E+04  0.7818608E-02  0.8375774E-01
          1   -1    0    0  501    0  0.00000000000E+00  0.00000000000E+00  0.12599495944E+04  0.12599495944E+04  0.00000000000E+00 0. -1.
         -1   -1    0    0    0  501 -0.00000000000E+00 -0.00000000000E+00 -0.13185389052E+04  0.13185389052E+04  0.00000000000E+00 0.  1.
         23    2    1    2    0    0  0.30572106324E+03 -0.65547140162E+03  0.10358841148E+04  0.12666271480E+04  0.90445043790E+02 0.  0.
         13    1    3    3    0    0  0.17977966559E+03 -0.47346234914E+03  0.75246993911E+03  0.90702719556E+03  0.00000000000E+00 0.  1.
        -13    1    3    3    0    0  0.12594139765E+03 -0.18200905248E+03  0.28341417564E+03  0.35959995242E+03  0.00000000000E+00 0. -1.
         22    1    1    2    0    0 -0.30572106324E+03  0.65547140162E+03 -0.10944734255E+04  0.13118613517E+04  0.00000000000E+00 0.  1.
<mgrwt>
<rscale>  0 0.25778228E+04</rscale>
<asrwt>0</asrwt>
<pdfrwt beam="1">  1        1 0.19383840E+00 0.25778228E+04</pdfrwt>
<pdfrwt beam="2">  1       -1 0.20285214E+00 0.25778228E+04</pdfrwt>
<totfact> 0.12269466E+00</totfact>
</mgrwt>
</event>
<event>
 6    1  0.9562506E-007  0.2805125E+04  0.7818608E-02  0.8301679E-01
         -1   -1    0    0    0  501 -0.00000000000E+00  0.00000000000E+00  0.68861587788E+03  0.68861587788E+03  0.00000000000E+00 0.  1.
          1   -1    0    0  501    0  0.00000000000E+00 -0.00000000000E+00 -0.28567184280E+04  0.28567184280E+04  0.00000000000E+00 0. -1.
         23    2    1    2    0    0 -0.91333148312E+03  0.10571516599E+04 -0.12191049547E+04  0.18564469603E+04  0.91838966488E+02 0.  0.
         13    1    3    3    0    0 -0.29273410679E+03  0.40546835233E+03 -0.44366636927E+03  0.66853398511E+03  0.00000000000E+00 0. -1.
        -13    1    3    3    0    0 -0.62059737633E+03  0.65168330752E+03 -0.77543858542E+03  0.11879129752E+04  0.00000000000E+00 0.  1.
         22    1    1    2    0    0  0.91333148312E+03 -0.10571516599E+04 -0.94899759539E+03  0.16888873456E+04  0.00000000000E+00 0.  1.
<mgrwt>
<rscale>  0 0.28051251E+04</rscale>
<asrwt>0</asrwt>
<pdfrwt beam="1">  1        1 0.43949514E+00 0.28051251E+04</pdfrwt>
<pdfrwt beam="2">  1       -1 0.10594091E+00 0.28051251E+04</pdfrwt>
<totfact> 0.54733164E-01</totfact>
</mgrwt>
</event>
<event>
 6    1  0.9562506E-007  0.3159286E+04  0.7818608E-02  0.8199653E-01
          2   -1    0    0  501    0  0.00000000000E+00  0.00000000000E+00  0.24412759122E+04  0.24412759122E+04  0.00000000000E+00 0. -1.
         -2   -1    0    0    0  501 -0.00000000000E+00 -0.00000000000E+00 -0.10221178600E+04  0.10221178600E+04  0.00000000000E+00 0.  1.
         23    2    1    2    0    0  0.95505195625E+03 -0.70215784180E+03  0.18525012449E+04  0.22012780102E+04  0.93349568649E+02 0.  0.
         11    1    3    3    0    0  0.33230216211E+03 -0.19132733373E+03  0.61414272846E+03  0.72401807056E+03  0.00000000000E+00 0. -1.
        -11    1    3    3    0    0  0.62274979414E+03 -0.51083050807E+03  0.12383585164E+04  0.14772599396E+04  0.00000000000E+00 0.  1.
         22    1    1    2    0    0 -0.95505195625E+03  0.70215784180E+03 -0.43334319269E+03  0.12621157620E+04  0.00000000000E+00 0.  1.
<mgrwt>
<rscale>  0 0.31592858E+04</rscale>
<asrwt>0</asrwt>
<pdfrwt beam="1">  1        2 0.37558091E+00 0.31592858E+04</pdfrwt>
<pdfrwt beam="2">  1       -2 0.15724890E+00 0.31592858E+04</pdfrwt>
<totfact> 0.83961788E-01</totfact>
</mgrwt>
</event>
<event>
 6    1  0.9562506E-007  0.2287012E+04  0.7818608E-02  0.8483060E-01
          2   -1    0    0  501    0  0.00000000000E+00  0.00000000000E+00  0.15932410520E+04  0.15932410520E+04  0.00000000000E+00 0. -1.
         -2   -1    0    0    0  501 -0.00000000000E+00 -0.00000000000E+00 -0.82072094958E+03  0.82072094958E+03  0.00000000000E+00 0.  1.
         23    2    1    2    0    0  0.75250157410E+03 -0.84035938776E+03  0.20098884426E+03  0.11494025926E+04  0.90924610800E+02 0.  0.
         13    1    3    3    0    0  0.51154843406E+03 -0.60259762483E+03  0.17714964143E+03  0.81005412986E+03  0.00000000000E+00 0. -1.
        -13    1    3    3    0    0  0.24095314004E+03 -0.23776176292E+03  0.23839202829E+02  0.33934846278E+03  0.00000000000E+00 0.  1.
         22    1    1    2    0    0 -0.75250157410E+03  0.84035938776E+03  0.57153125811E+03  0.12645594089E+04  0.00000000000E+00 0. -1.
<mgrwt>
<rscale>  0 0.22870123E+04</rscale>
<asrwt>0</asrwt>
<pdfrwt beam="1">  1        2 0.24511401E+00 0.22870123E+04</pdfrwt>
<pdfrwt beam="2">  1       -2 0.12626476E+00 0.22870123E+04</pdfrwt>
<totfact> 0.47737608E+00</totfact>
</mgrwt>
</event>
<event>
 6    1  0.9562506E-007  0.1329122E+04  0.7818608E-02  0.9006784E-01
          2   -1    0    0  501    0  0.00000000000E+00  0.00000000000E+00  0.12778102118E+04  0.12778102118E+04  0.00000000000E+00 0. -1.
         -2   -1    0    0    0  501 -0.00000000000E+00 -0.00000000000E+00 -0.34562380018E+03  0.34562380018E+03  0.00000000000E+00 0.  1.
         23    2    1    2    0    0 -0.47485768057E+03 -0.13393183131E+03 -0.69891379913E+02  0.50647946836E+03  0.90604054275E+02 0.  0.
         13    1    3    3    0    0 -0.77419037118E+02  0.91284378629E+01  0.21132430127E+01  0.77983982215E+02  0.00000000000E+00 0. -1.
        -13    1    3    3    0    0 -0.39743864345E+03 -0.14306026918E+03 -0.72004622926E+02  0.42849548615E+03  0.00000000000E+00 0.  1.
         22    1    1    2    0    0  0.47485768057E+03  0.13393183131E+03  0.10020777915E+04  0.11169545436E+04  0.00000000000E+00 0. -1.
<mgrwt>
<rscale>  0 0.13291224E+04</rscale>
<asrwt>0</asrwt>
<pdfrwt beam="1">  1        2 0.19658618E+00 0.13291224E+04</pdfrwt>
<pdfrwt beam="2">  1       -2 0.53172893E-01 0.13291224E+04</pdfrwt>
<totfact> 0.55553127E+01</totfact>
</mgrwt>
</event>
<event>
 6    1  0.9562506E-007  0.7719971E+03  0.7818608E-02  0.9601459E-01
          2   -1    0    0  501    0  0.00000000000E+00  0.00000000000E+00  0.93440174604E+03  0.93440174604E+03  0.00000000000E+00 0. -1.
         -2   -1    0    0    0  501 -0.00000000000E+00 -0.00000000000E+00 -0.15945482648E+03  0.15945482648E+03  0.00000000000E+00 0.  1.
         23    2    1    2    0    0 -0.37923719130E+03  0.91373312173E+01  0.43681844412E+03  0.58568809259E+03  0.91191285663E+02 0.  0.
         11    1    3    3    0    0 -0.21468091570E+03  0.35007381754E+02  0.29745630476E+03  0.36850192074E+03  0.00000000000E+00 0. -1.
        -11    1    3    3    0    0 -0.16455627561E+03 -0.25870050536E+02  0.13936213936E+03  0.21718617185E+03  0.00000000000E+00 0.  1.
         22    1    1    2    0    0  0.37923719130E+03 -0.91373312173E+01  0.33812847544E+03  0.50816847993E+03  0.00000000000E+00 0.  1.
<mgrwt>
<rscale>  0 0.77199707E+03</rscale>
<asrwt>0</asrwt>
<pdfrwt beam="1">  1        2 0.14375411E+00 0.77199707E+03</pdfrwt>
<pdfrwt beam="2">  1       -2 0.24531512E-01 0.77199707E+03</pdfrwt>
<totfact> 0.41454631E+02</totfact>
</mgrwt>
</event>
<event>
 6    1  0.9562506E-007  0.1588587E+04  0.7818608E-02  0.8827590E-01
          1   -1    0    0  501    0  0.00000000000E+00  0.00000000000E+00  0.14208877629E+04  0.14208877629E+04  0.00000000000E+00 0. -1.
         -1   -1    0    0    0  501 -0.00000000000E+00 -0.00000000000E+00 -0.44401960300E+03  0.44401960300E+03  0.00000000000E+00 0.  1.
         23    2    1    2    0    0  0.70132792682E+01 -0.72303200400E+03  0.11160617963E+03  0.73729805439E+03  0.91257968304E+02 0.  0.
         13    1    3    3    0    0 -0.14100081219E+02 -0.44314922096E+03  0.10914183223E+03  0.45660922447E+03  0.00000000000E+00 0.  1.
        -13    1    3    3    0    0  0.21113360487E+02 -0.27988278305E+03  0.24643474015E+01  0.28068882993E+03  0.00000000000E+00 0. -1.
         22    1    1    2    0    0 -0.70132792682E+01  0.72303200400E+03  0.86526198028E+03  0.11276093115E+04  0.00000000000E+00 0. -1.
<mgrwt>
<rscale>  0 0.15885868E+04</rscale>
<asrwt>0</asrwt>
<pdfrwt beam="1">  1        1 0.21859812E+00 0.15885868E+04</pdfrwt>
<pdfrwt beam="2">  1       -1 0.68310709E-01 0.15885868E+04</pdfrwt>
<totfact> 0.15474459E+01</totfact>
</mgrwt>
</event>
<event>
 6    1  0.9562506E-007  0.2943754E+04  0.7818608E-02  0.8259977E-01
          2   -1    0    0  501    0  0.00000000000E+00  0.00000000000E+00  0.10887646232E+04  0.10887646232E+04  0.00000000000E+00 0. -1.
         -2   -1    0    0    0  501 -0.00000000000E+00 -0.00000000000E+00 -0.19897978698E+04  0.19897978698E+04  0.00000000000E+00 0.  1.
         23    2    1    2    0    0 -0.27737239849E+01  0.43754464804E+03 -0.19191270439E+04  0.19704253207E+04  0.89857227770E+02 0.  0.
         13    1    3    3    0    0 -0.27279253183E+02  0.14582809960E+03 -0.80021761830E+03  0.81385393586E+03  0.00000000000E+00 0. -1.
        -13    1    3    3    0    0  0.24505529198E+02  0.29171654844E+03 -0.11189094256E+04  0.11565713848E+04  0.00000000000E+00 0.  1.
         22    1    1    2    0    0  0.27737239849E+01 -0.43754464804E+03  0.10180937973E+04  0.11081371723E+04  0.00000000000E+00 0. -1.
<mgrwt>
<rscale>  0 0.29437537E+04</rscale>
<asrwt>0</asrwt>
<pdfrwt beam="1">  1        2 0.16750225E+00 0.29437537E+04</pdfrwt>
<pdfrwt beam="2">  1       -2 0.30612275E+00 0.29437537E+04</pdfrwt>
<totfact> 0.55494962E-01</totfact>
</mgrwt>
</event>
<event>
 6    1  0.9562506E-007  0.3158139E+04  0.7818608E-02  0.8199961E-01
         -2   -1    0    0    0  501 -0.00000000000E+00  0.00000000000E+00  0.12747266098E+04  0.12747266098E+04  0.00000000000E+00 0.  1.
          2   -1    0    0  501    0  0.00000000000E+00 -0.00000000000E+00 -0.19560752574E+04  0.19560752574E+04  0.00000000000E+00 0. -1.
         23    2    1    2    0    0 -0.14984604079E+04  0.40265707786E+02 -0.84348249374E+03  0.17230577559E+04  0.10227605583E+03 0.  0.
         11    1    3    3    0    0 -0.75315386655E+03  0.63706595347E+02 -0.39367565319E+03  0.85222050955E+03  0.00000000000E+00 0. -1.
        -11    1    3    3    0    0 -0.74530654134E+03 -0.23440887560E+02 -0.44980684055E+03  0.87083724632E+03  0.00000000000E+00 0.  1.
         22    1    1    2    0    0  0.14984604079E+04 -0.40265707786E+02  0.16213384621E+03  0.15077441114E+04  0.00000000000E+00 0.  1.
<mgrwt>
<rscale>  0 0.31581394E+04</rscale>
<asrwt>0</asrwt>
<pdfrwt beam="1">  1        2 0.30093466E+00 0.31581394E+04</pdfrwt>
<pdfrwt beam="2">  1       -2 0.19611179E+00 0.31581394E+04</pdfrwt>
<totfact> 0.84272947E-01</totfact>
</mgrwt>
</event>
<event>
 6    1  0.9562506E-007  0.3224452E+04  0.7818608E-02  0.8182389E-01
         -2   -1    0    0    0  501 -0.00000000000E+00  0.00000000000E+00  0.75754073833E+03  0.75754073833E+03  0.00000000000E+00 0.  1.
          2   -1    0    0  501    0  0.00000000000E+00 -0.00000000000E+00 -0.34311990240E+04  0.34311990240E+04  0.00000000000E+00 0. -1.
         23    2    1    2    0    0 -0.32367754305E+03  0.12740241832E+04 -0.25476044581E+04  0.28682117093E+04  0.91897570125E+02 0.  0.
         11    1    3    3    0    0 -0.24321479627E+03  0.97839481014E+03 -0.18666932387E+04  0.21215450712E+04  0.00000000000E+00 0. -1.
        -11    1    3    3    0    0 -0.80462746779E+02  0.29562937306E+03 -0.68091121938E+03  0.74666663815E+03  0.00000000000E+00 0.  1.
         22    1    1    2    0    0  0.32367754305E+03 -0.12740241832E+04 -0.12605382755E+03  0.13205280530E+04  0.00000000000E+00 0.  1.
<mgrwt>
<rscale>  0 0.32244522E+04</rscale>
<asrwt>0</asrwt>
<pdfrwt beam="1">  1        2 0.52787678E+00 0.32244522E+04</pdfrwt>
<pdfrwt beam="2">  1       -2 0.11654473E+00 0.32244522E+04</pdfrwt>
<totfact> 0.43472334E-01</totfact>
</mgrwt>
</event>
<event>
 6    1  0.9562506E-007  0.1153948E+04  0.7818608E-02  0.9154149E-01
          2   -1    0    0  501    0  0.00000000000E+00  0.00000000000E+00  0.20098066238E+04  0.20098066238E+04  0.00000000000E+00 0. -1.
         -2   -1    0    0    0  501 -0.00000000000E+00 -0.00000000000E+00 -0.16563739609E+03  0.16563739609E+03  0.00000000000E+00 0.  1.
         23    2    1    2    0    0  0.14797709066E+03 -0.52132583956E+02  0.19674423139E+04  0.19759163791E+04  0.93814993799E+02 0.  0.
         13    1    3    3    0    0  0.80689363115E+02  0.20647384890E+02  0.83420646526E+03  0.83835405081E+03  0.00000000000E+00 0. -1.
        -13    1    3    3    0    0  0.67287727543E+02 -0.72779968846E+02  0.11332358486E+04  0.11375623283E+04  0.00000000000E+00 0.  1.
         22    1    1    2    0    0 -0.14797709066E+03  0.52132583956E+02 -0.12327308617E+03  0.19952764080E+03  0.00000000000E+00 0.  1.
<mgrwt>
<rscale>  0 0.11539482E+04</rscale>
<asrwt>0</asrwt>
<pdfrwt beam="1">  1        2 0.30920100E+00 0.11539482E+04</pdfrwt>
<pdfrwt beam="2">  1       -2 0.25482678E-01 0.11539482E+04</pdfrwt>
<totfact> 0.90628881E+01</totfact>
</mgrwt>
</event>
<event>
 6    1  0.9562506E-007  0.3345749E+04  0.7818608E-02  0.8151351E-01
         -1   -1    0    0    0  501 -0.00000000000E+00  0.00000000000E+00  0.21467821726E+04  0.21467821726E+04  0.00000000000E+00 0.  1.
          1   -1    0    0  501    0  0.00000000000E+00 -0.00000000000E+00 -0.13035832816E+04  0.13035832816E+04  0.00000000000E+00 0. -1.
         23    2    1    2    0    0  0.92546228642E+03 -0.70609131684E+03  0.16591222065E+04  0.20288253569E+04  0.91653922940E+02 0.  0.
         13    1    3    3    0    0  0.80137168048E+03 -0.57231008912E+03  0.13790005268E+04  0.16945140487E+04  0.00000000000E+00 0. -1.
        -13    1    3    3    0    0  0.12409060594E+03 -0.13378122772E+03  0.28012167971E+03  0.33431130824E+03  0.00000000000E+00 0.  1.
         22    1    1    2    0    0 -0.92546228642E+03  0.70609131684E+03 -0.81592331547E+03  0.14215400972E+04  0.00000000000E+00 0. -1.
<mgrwt>
<rscale>  0 0.33457492E+04</rscale>
<asrwt>0</asrwt>
<pdfrwt beam="1">  1        1 0.20055127E+00 0.33457492E+04</pdfrwt>
<pdfrwt beam="2">  1       -1 0.33027418E+00 0.33457492E+04</pdfrwt>
<totfact> 0.15575325E-01</totfact>
</mgrwt>
</event>
<event>
 6    1  0.9562506E-007  0.2055152E+04  0.7818608E-02  0.8581261E-01
         -2   -1    0    0    0  501 -0.00000000000E+00  0.00000000000E+00  0.54290671997E+03  0.54290671997E+03  0.00000000000E+00 0.  1.
          2   -1    0    0  501    0  0.00000000000E+00 -0.00000000000E+00 -0.19449236981E+04  0.19449236981E+04  0.00000000000E+00 0. -1.
         23    2    1    2    0    0  0.12502511894E+03 -0.54694547678E+03 -0.17415789364E+04  0.18320233134E+04  0.91823713796E+02 0.  0.
         11    1    3    3    0    0  0.88196263227E+02 -0.19218597781E+03 -0.61553798719E+03  0.65084640629E+03  0.00000000000E+00 0.  1.
        -11    1    3    3    0    0  0.36828855714E+02 -0.35475949897E+03 -0.11260409492E+04  0.11811769071E+04  0.00000000000E+00 0. -1.
         22    1    1    2    0    0 -0.12502511894E+03  0.54694547678E+03  0.33956195827E+03  0.65580710460E+03  0.00000000000E+00 0.  1.
<mgrwt>
<rscale>  0 0.20551517E+04</rscale>
<asrwt>0</asrwt>
<pdfrwt beam="1">  1        2 0.29921902E+00 0.20551517E+04</pdfrwt>
<pdfrwt beam="2">  1       -2 0.83524113E-01 0.20551517E+04</pdfrwt>
<totfact> 0.83140620E+00</totfact>
</mgrwt>
</event>
<event>
 6    1  0.9562506E-007  0.2003231E+04  0.7818608E-02  0.8605112E-01
         -1   -1    0    0    0  501 -0.00000000000E+00  0.00000000000E+00  0.75522551315E+03  0.75522551315E+03  0.00000000000E+00 0.  1.
          1   -1    0    0  501    0  0.00000000000E+00 -0.00000000000E+00 -0.13283891271E+04  0.13283891271E+04  0.00000000000E+00 0. -1.
         23    2    1    2    0    0  0.82296129099E+03 -0.26244485640E+03 -0.81030893542E+03  0.11878577019E+04  0.90899725460E+02 0.  0.
         13    1    3    3    0    0  0.33880905706E+03 -0.14155836986E+03 -0.30061501868E+03  0.47455214537E+03  0.00000000000E+00 0.  1.
        -13    1    3    3    0    0  0.48415223393E+03 -0.12088648654E+03 -0.50969391674E+03  0.71330555656E+03  0.00000000000E+00 0. -1.
         22    1    1    2    0    0 -0.82296129099E+03  0.26244485640E+03  0.23714532144E+03  0.89575693835E+03  0.00000000000E+00 0.  1.
<mgrwt>
<rscale>  0 0.20032308E+04</rscale>
<asrwt>0</asrwt>
<pdfrwt beam="1">  1        1 0.20436755E+00 0.20032308E+04</pdfrwt>
<pdfrwt beam="2">  1       -1 0.11618854E+00 0.20032308E+04</pdfrwt>
<totfact> 0.53615716E+00</totfact>
</mgrwt>
</event>
<event>
 6    1  0.9562506E-007  0.1670350E+04  0.7818608E-02  0.8778458E-01
         -2   -1    0    0    0  501 -0.00000000000E+00  0.00000000000E+00  0.61400508965E+03  0.61400508965E+03  0.00000000000E+00 0.  1.
          2   -1    0    0  501    0  0.00000000000E+00 -0.00000000000E+00 -0.11360120766E+04  0.11360120766E+04  0.00000000000E+00 0. -1.
         23    2    1    2    0    0  0.18651894416E+03 -0.44368011896E+02 -0.11100526481E+04  0.11315064253E+04  0.10645220538E+03 0.  0.
         11    1    3    3    0    0  0.10794135530E+03 -0.58640770680E+00 -0.83906110323E+03  0.84597589506E+03  0.00000000000E+00 0. -1.
        -11    1    3    3    0    0  0.78577588862E+02 -0.43781604189E+02 -0.27099154485E+03  0.28553053027E+03  0.00000000000E+00 0.  1.
         22    1    1    2    0    0 -0.18651894416E+03  0.44368011896E+02  0.58804566115E+03  0.61851074090E+03  0.00000000000E+00 0.  1.
<mgrwt>
<rscale>  0 0.16703499E+04</rscale>
<asrwt>0</asrwt>
<pdfrwt beam="1">  1        2 0.17477109E+00 0.16703499E+04</pdfrwt>
<pdfrwt beam="2">  1       -2 0.94462322E-01 0.16703499E+04</pdfrwt>
<totfact> 0.18653545E+01</totfact>
</mgrwt>
</event>
<event>
 6    1  0.9562506E-007  0.4764483E+04  0.7818608E-02  0.7865902E-01
         -2   -1    0    0    0  501 -0.00000000000E+00  0.00000000000E+00  0.17764372280E+04  0.17764372280E+04  0.00000000000E+00 0.  1.
          2   -1    0    0  501    0  0.00000000000E+00 -0.00000000000E+00 -0.31946388814E+04  0.31946388814E+04  0.00000000000E+00 0. -1.
         23    2    1    2    0    0 -0.69779514247E+03 -0.21553518861E+04 -0.14744872338E+04  0.27048837345E+04  0.99114078465E+02 0.  0.
         13    1    3    3    0    0 -0.51735393463E+03 -0.15330005902E+04 -0.10045546492E+04  0.19044358604E+04  0.00000000000E+00 0.  1.
        -13    1    3    3    0    0 -0.18044120784E+03 -0.62235129592E+03 -0.46993258452E+03  0.80044787402E+03  0.00000000000E+00 0. -1.
         22    1    1    2    0    0  0.69779514247E+03  0.21553518861E+04  0.56285580409E+02  0.22661923750E+04  0.00000000000E+00 0.  1.
<mgrwt>
<rscale>  0 0.47644834E+04</rscale>
<asrwt>0</asrwt>
<pdfrwt beam="1">  1        2 0.49148290E+00 0.47644834E+04</pdfrwt>
<pdfrwt beam="2">  1       -2 0.27329804E+00 0.47644834E+04</pdfrwt>
<totfact> 0.44823926E-02</totfact>
</mgrwt>
</event>
<event>
 6    1  0.9562506E-007  0.3179184E+04  0.7818608E-02  0.8194336E-01
         -1   -1    0    0    0  501 -0.00000000000E+00  0.00000000000E+00  0.11688144131E+04  0.11688144131E+04  0.00000000000E+00 0.  1.
          1   -1    0    0  501    0  0.00000000000E+00 -0.00000000000E+00 -0.21618514671E+04  0.21618514671E+04  0.00000000000E+00 0. -1.
         23    2    1    2    0    0 -0.46113253114E+03  0.53902761358E+03  0.99168674667E+03  0.12229840862E+04  0.95149840467E+02 0.  0.
         13    1    3    3    0    0 -0.26135306906E+03  0.36196275153E+03  0.57231714455E+03  0.72585768174E+03  0.00000000000E+00 0. -1.
        -13    1    3    3    0    0 -0.19977946208E+03  0.17706486206E+03  0.41936960212E+03  0.49712640447E+03  0.00000000000E+00 0.  1.
         22    1    1    2    0    0  0.46113253114E+03 -0.53902761358E+03 -0.19847238007E+04  0.21076817940E+04  0.00000000000E+00 0. -1.
<mgrwt>
<rscale>  0 0.31791843E+04</rscale>
<asrwt>0</asrwt>
<pdfrwt beam="1">  1        1 0.33259254E+00 0.31791843E+04</pdfrwt>
<pdfrwt beam="2">  1       -1 0.17981760E+00 0.31791843E+04</pdfrwt>
<totfact> 0.40464639E-01</totfact>
</mgrwt>
</event>
<event>
 6    1  0.9562506E-007  0.7120194E+03  0.7818608E-02  0.9696895E-01
          1   -1    0    0  501    0  0.00000000000E+00  0.00000000000E+00  0.23332057384E+03  0.23332057384E+03  0.00000000000E+00 0. -1.
         -1   -1    0    0    0  501 -0.00000000000E+00 -0.00000000000E+00 -0.54321362184E+03  0.54321362184E+03  0.00000000000E+00 0.  1.
         23    2    1    2    0    0  0.18951161635E+03 -0.14028871132E+03  0.12528785072E+03  0.28158168294E+03  0.89418249654E+02 0.  0.
         13    1    3    3    0    0  0.67400887231E+01  0.61195645842E+01  0.25408982260E+02  0.26990632564E+02  0.00000000000E+00 0. -1.
        -13    1    3    3    0    0  0.18277152763E+03 -0.14640827591E+03  0.99878868462E+02  0.25459105037E+03  0.00000000000E+00 0.  1.
         22    1    1    2    0    0 -0.18951161635E+03  0.14028871132E+03 -0.43518089872E+03  0.49495251274E+03  0.00000000000E+00 0.  1.
<mgrwt>
<rscale>  0 0.71201942E+03</rscale>
<asrwt>0</asrwt>
<pdfrwt beam="1">  1        1 0.35895473E-01 0.71201942E+03</pdfrwt>
<pdfrwt beam="2">  1       -1 0.83571326E-01 0.71201942E+03</pdfrwt>
<totfact> 0.17539091E+02</totfact>
</mgrwt>
</event>
<event>
 6    1  0.9562506E-007  0.2946982E+04  0.7818608E-02  0.8259035E-01
          1   -1    0    0  501    0  0.00000000000E+00  0.00000000000E+00  0.95665876501E+03  0.95665876501E+03  0.00000000000E+00 0. -1.
         -1   -1    0    0    0  501 -0.00000000000E+00 -0.00000000000E+00 -0.22695399210E+04  0.22695399210E+04  0.00000000000E+00 0.  1.
         23    2    1    2    0    0  0.64371134276E+03 -0.10795181489E+04  0.18164440216E+03  0.12734236425E+04  0.94283391544E+02 0.  0.
         13    1    3    3    0    0  0.25270212116E+03 -0.34831580834E+03  0.39401656792E+02  0.43212816957E+03  0.00000000000E+00 0.  1.
        -13    1    3    3    0    0  0.39100922160E+03 -0.73120234052E+03  0.14224274537E+03  0.84129547293E+03  0.00000000000E+00 0. -1.
         22    1    1    2    0    0 -0.64371134276E+03  0.10795181489E+04 -0.14945255581E+04  0.19527750435E+04  0.00000000000E+00 0. -1.
<mgrwt>
<rscale>  0 0.29469817E+04</rscale>
<asrwt>0</asrwt>
<pdfrwt beam="1">  1        1 0.14717827E+00 0.29469817E+04</pdfrwt>
<pdfrwt beam="2">  1       -1 0.34915999E+00 0.29469817E+04</pdfrwt>
<totfact> 0.22024199E-01</totfact>
</mgrwt>
</event>
<event>
 6    1  0.1310475E-006  0.2368274E+04  0.7818608E-02  0.8451478E-01
          1   -1    0    0  501    0  0.00000000000E+00  0.00000000000E+00  0.18562980099E+04  0.18562980099E+04  0.00000000000E+00 0. -1.
         -1   -1    0    0    0  501 -0.00000000000E+00 -0.00000000000E+00 -0.75536371703E+03  0.75536371703E+03  0.00000000000E+00 0.  1.
         23    2    1    2    0    0 -0.19147866546E+03  0.21508389637E+03  0.18159426176E+04  0.18408426391E+04  0.90160246106E+02 0.  0.
         11    1    3    3    0    0 -0.10861534446E+03  0.16166727097E+03  0.98492776058E+03  0.10040001460E+04  0.00000000000E+00 0.  1.
        -11    1    3    3    0    0 -0.82863321003E+02  0.53416625402E+02  0.83101485698E+03  0.83684249316E+03  0.00000000000E+00 0. -1.
         22    1    1    2    0    0  0.19147866546E+03 -0.21508389637E+03 -0.71500832467E+03  0.77081908782E+03  0.00000000000E+00 0.  1.
<mgrwt>
<rscale>  0 0.23682738E+04</rscale>
<asrwt>0</asrwt>
<pdfrwt beam="1">  1        1 0.28558431E+00 0.23682738E+04</pdfrwt>
<pdfrwt beam="2">  1       -1 0.11620980E+00 0.23682738E+04</pdfrwt>
<totfact> 0.22433830E+00</totfact>
</mgrwt>
</event>
<event>
 6    1  0.9562506E-007  0.1524423E+04  0.7818608E-02  0.8868372E-01
          1   -1    0    0  501    0  0.00000000000E+00  0.00000000000E+00  0.18235909327E+04  0.18235909327E+04  0.00000000000E+00 0. -1.
         -1   -1    0    0    0  501 -0.00000000000E+00 -0.00000000000E+00 -0.31858373203E+03  0.31858373203E+03  0.00000000000E+00 0.  1.
         23    2    1    2    0    0 -0.50973188077E+03 -0.30378868846E+03  0.89515730828E+02  0.60733582671E+03  0.93432236574E+02 0.  0.
         11    1    3    3    0    0 -0.24579089252E+03 -0.93475976010E+02  0.47932251909E+02  0.26729837581E+03  0.00000000000E+00 0. -1.
        -11    1    3    3    0    0 -0.26394098824E+03 -0.21031271245E+03  0.41583478920E+02  0.34003745090E+03  0.00000000000E+00 0.  1.
         22    1    1    2    0    0  0.50973188077E+03  0.30378868846E+03  0.14154914698E+04  0.15348388380E+04  0.00000000000E+00 0. -1.
<mgrwt>
<rscale>  0 0.15244230E+04</rscale>
<asrwt>0</asrwt>
<pdfrwt beam="1">  1        1 0.28055245E+00 0.15244230E+04</pdfrwt>
<pdfrwt beam="2">  1       -1 0.49012883E-01 0.15244230E+04</pdfrwt>
<totfact> 0.15806863E+01</totfact>
</mgrwt>
</event>
<event>
 6    1  0.9562506E-007  0.2913272E+04  0.7818608E-02  0.8268940E-01
          2   -1    0    0  501    0  0.00000000000E+00  0.00000000000E+00  0.21523050619E+04  0.21523050619E+04  0.00000000000E+00 0. -1.
         -2   -1    0    0    0  501 -0.00000000000E+00 -0.00000000000E+00 -0.98582114886E+03  0.98582114886E+03  0.00000000000E+00 0.  1.
         23    2    1    2    0    0  0.13860280553E+04 -0.40625652949E+03  0.39259806949E+03  0.14995239293E+04  0.91217502493E+02 0.  0.
         11    1    3    3    0    0  0.10022473285E+04 -0.25089011227E+03  0.28257966882E+03  0.10711194262E+04  0.00000000000E+00 0.  1.
        -11    1    3    3    0    0  0.38378072672E+03 -0.15536641722E+03  0.11001840067E+03  0.42840450312E+03  0.00000000000E+00 0. -1.
         22    1    1    2    0    0 -0.13860280553E+04  0.40625652949E+03  0.77388584353E+03  0.16386022814E+04  0.00000000000E+00 0. -1.
<mgrwt>
<rscale>  0 0.29132716E+04</rscale>
<asrwt>0</asrwt>
<pdfrwt beam="1">  1        2 0.33112385E+00 0.29132716E+04</pdfrwt>
<pdfrwt beam="2">  1       -2 0.15166479E+00 0.29132716E+04</pdfrwt>
<totfact> 0.13777512E+00</totfact>
</mgrwt>
</event>
<event>
 6    1  0.9562506E-007  0.1522880E+04  0.7818608E-02  0.8869379E-01
          2   -1    0    0  501    0  0.00000000000E+00  0.00000000000E+00  0.49052459507E+03  0.49052459507E+03  0.00000000000E+00 0. -1.
         -2   -1    0    0    0  501 -0.00000000000E+00 -0.00000000000E+00 -0.11819815849E+04  0.11819815849E+04  0.00000000000E+00 0.  1.
         23    2    1    2    0    0  0.27751752896E+03  0.91344966527E+02  0.42208290011E+03  0.52127598219E+03  0.90635496648E+02 0.  0.
         13    1    3    3    0    0  0.15356979357E+03  0.90845127192E+02  0.20938122659E+03  0.27509455953E+03  0.00000000000E+00 0.  1.
        -13    1    3    3    0    0  0.12394773539E+03  0.49983933534E+00  0.21270167351E+03  0.24618142266E+03  0.00000000000E+00 0. -1.
         22    1    1    2    0    0 -0.27751752896E+03 -0.91344966527E+02 -0.11135398899E+04  0.11512301978E+04  0.00000000000E+00 0.  1.
<mgrwt>
<rscale>  0 0.15228802E+04</rscale>
<asrwt>0</asrwt>
<pdfrwt beam="1">  1        2 0.75465323E-01 0.15228802E+04</pdfrwt>
<pdfrwt beam="2">  1       -2 0.18184332E+00 0.15228802E+04</pdfrwt>
<totfact> 0.10683117E+01</totfact>
</mgrwt>
</event>
<event>
 6    1  0.9562506E-007  0.4907728E+03  0.7818608E-02  0.1016216E+00
         -2   -1    0    0    0  501 -0.00000000000E+00  0.00000000000E+00  0.13928815851E+03  0.13928815851E+03  0.00000000000E+00 0.  1.
          2   -1    0    0  501    0  0.00000000000E+00 -0.00000000000E+00 -0.43230148416E+03  0.43230148416E+03  0.00000000000E+00 0. -1.
         23    2    1    2    0    0  0.44072282074E+02  0.21009699548E+03 -0.37758424701E+02  0.23806576344E+03  0.95741817041E+02 0.  0.
         11    1    3    3    0    0  0.64318088726E+02  0.87151060805E+02 -0.33554008945E+02  0.11339310144E+03  0.00000000000E+00 0.  1.
        -11    1    3    3    0    0 -0.20245806651E+02  0.12294593467E+03 -0.42044157555E+01  0.12467266200E+03  0.00000000000E+00 0. -1.
         22    1    1    2    0    0 -0.44072282074E+02 -0.21009699548E+03 -0.25525490096E+03  0.33352387923E+03  0.00000000000E+00 0. -1.
<mgrwt>
<rscale>  0 0.49077277E+03</rscale>
<asrwt>0</asrwt>
<pdfrwt beam="1">  1        2 0.66507919E-01 0.49077277E+03</pdfrwt>
<pdfrwt beam="2">  1       -2 0.21428948E-01 0.49077277E+03</pdfrwt>
<totfact> 0.13740469E+03</totfact>
</mgrwt>
</event>
<event>
 6    1  0.1044242E-006  0.2007836E+04  0.7818608E-02  0.8602966E-01
         -1   -1    0    0    0  501 -0.00000000000E+00  0.00000000000E+00  0.10491545879E+04  0.10491545879E+04  0.00000000000E+00 0.  1.
          1   -1    0    0  501    0  0.00000000000E+00 -0.00000000000E+00 -0.96063160006E+03  0.96063160006E+03  0.00000000000E+00 0. -1.
         23    2    1    2    0    0 -0.85640086593E+03 -0.20388457430E+02  0.56421236150E+03  0.10299298145E+04  0.92637473927E+02 0.  0.
         11    1    3    3    0    0 -0.39605703220E+03  0.27329432072E+02  0.29403946045E+03  0.49403165375E+03  0.00000000000E+00 0. -1.
        -11    1    3    3    0    0 -0.46034383373E+03 -0.47717889503E+02  0.27017290106E+03  0.53589816075E+03  0.00000000000E+00 0.  1.
         22    1    1    2    0    0  0.85640086593E+03  0.20388457430E+02 -0.47568937367E+03  0.97985637345E+03  0.00000000000E+00 0. -1.
<mgrwt>
<rscale>  0 0.20078357E+04</rscale>
<asrwt>0</asrwt>
<pdfrwt beam="1">  1        1 0.14778948E+00 0.20078357E+04</pdfrwt>
<pdfrwt beam="2">  1       -1 0.16140840E+00 0.20078357E+04</pdfrwt>
<totfact> 0.42968276E+00</totfact>
</mgrwt>
</event>
<event>
 6    1  0.9562506E-007  0.2992482E+04  0.7818608E-02  0.8245881E-01
          1   -1    0    0  501    0  0.00000000000E+00  0.00000000000E+00  0.25869373717E+04  0.25869373717E+04  0.00000000000E+00 0. -1.
         -1   -1    0    0    0  501 -0.00000000000E+00 -0.00000000000E+00 -0.86540037144E+03  0.86540037144E+03  0.00000000000E+00 0.  1.
         23    2    1    2    0    0 -0.68058874752E+03  0.19035761103E+03 -0.65813124815E+03  0.96994816135E+03  0.90695273312E+02 0.  0.
         13    1    3    3    0    0 -0.20464491123E+03  0.92484928121E+02 -0.24273844989E+03  0.33068860984E+03  0.00000000000E+00 0. -1.
        -13    1    3    3    0    0 -0.47594383628E+03  0.97872682907E+02 -0.41539279826E+03  0.63925955151E+03  0.00000000000E+00 0.  1.
         22    1    1    2    0    0  0.68058874752E+03 -0.19035761103E+03  0.23796682484E+04  0.24823895818E+04  0.00000000000E+00 0. -1.
<mgrwt>
<rscale>  0 0.29924816E+04</rscale>
<asrwt>0</asrwt>
<pdfrwt beam="1">  1        1 0.39799036E+00 0.29924816E+04</pdfrwt>
<pdfrwt beam="2">  1       -1 0.13313852E+00 0.29924816E+04</pdfrwt>
<totfact> 0.47876530E-01</totfact>
</mgrwt>
</event>
<event>
 6    1  0.9562506E-007  0.3574108E+04  0.7818608E-02  0.8096449E-01
          4   -1    0    0  501    0  0.00000000000E+00  0.00000000000E+00  0.12495179208E+04  0.12495179208E+04  0.00000000000E+00 0. -1.
         -4   -1    0    0    0  501 -0.00000000000E+00 -0.00000000000E+00 -0.25558347178E+04  0.25558347178E+04  0.00000000000E+00 0.  1.
         23    2    1    2    0    0  0.50591439720E+03 -0.75042873795E+03 -0.22927709318E+04  0.24666277124E+04  0.91438817917E+02 0.  0.
         11    1    3    3    0    0  0.21742070661E+03 -0.38427125608E+03 -0.11965928023E+04  0.12754491351E+04  0.00000000000E+00 0.  1.
        -11    1    3    3    0    0  0.28849369059E+03 -0.36615748187E+03 -0.10961781296E+04  0.11911785772E+04  0.00000000000E+00 0. -1.
         22    1    1    2    0    0 -0.50591439720E+03  0.75042873795E+03  0.98645413488E+03  0.13387249263E+04  0.00000000000E+00 0. -1.
<mgrwt>
<rscale>  0 0.35741076E+04</rscale>
<asrwt>0</asrwt>
<pdfrwt beam="1">  1        4 0.19223353E+00 0.35741076E+04</pdfrwt>
<pdfrwt beam="2">  1       -4 0.39320534E+00 0.35741076E+04</pdfrwt>
<totfact> 0.18113518E-03</totfact>
</mgrwt>
</event>
<event>
 6    1  0.9562506E-007  0.6492292E+03  0.7818608E-02  0.9808227E-01
         -1   -1    0    0    0  501 -0.00000000000E+00  0.00000000000E+00  0.51634715464E+03  0.51634715464E+03  0.00000000000E+00 0.  1.
          1   -1    0    0  501    0  0.00000000000E+00 -0.00000000000E+00 -0.20407709697E+03  0.20407709697E+03  0.00000000000E+00 0. -1.
         23    2    1    2    0    0 -0.14180501332E+03  0.17516937466E+03  0.41078245254E+03  0.47446152361E+03  0.74689640850E+02 0.  0.
         11    1    3    3    0    0 -0.27569165142E+02  0.75870023082E+02  0.19343372699E+03  0.20960182730E+03  0.00000000000E+00 0. -1.
        -11    1    3    3    0    0 -0.11423584818E+03  0.99299351580E+02  0.21734872555E+03  0.26485969631E+03  0.00000000000E+00 0.  1.
         22    1    1    2    0    0  0.14180501332E+03 -0.17516937466E+03 -0.98512394868E+02  0.24596272800E+03  0.00000000000E+00 0. -1.
<mgrwt>
<rscale>  0 0.64922917E+03</rscale>
<asrwt>0</asrwt>
<pdfrwt beam="1">  1        1 0.31396477E-01 0.64922917E+03</pdfrwt>
<pdfrwt beam="2">  1       -1 0.79438023E-01 0.64922917E+03</pdfrwt>
<totfact> 0.23299959E+02</totfact>
</mgrwt>
</event>
<event>
 6    1  0.9562506E-007  0.1221109E+04  0.7818608E-02  0.9094578E-01
          1   -1    0    0  501    0  0.00000000000E+00  0.00000000000E+00  0.48843872935E+03  0.48843872935E+03  0.00000000000E+00 0. -1.
         -1   -1    0    0    0  501 -0.00000000000E+00 -0.00000000000E+00 -0.76320068144E+03  0.76320068144E+03  0.00000000000E+00 0.  1.
         23    2    1    2    0    0  0.11213318229E+03  0.12201874475E+03 -0.73667970232E+03  0.76089463740E+03  0.93814928314E+02 0.  0.
         13    1    3    3    0    0  0.34505704301E+02  0.81423857811E+02 -0.22472255681E+03  0.24149682356E+03  0.00000000000E+00 0. -1.
        -13    1    3    3    0    0  0.77627477990E+02  0.40594886935E+02 -0.51195714550E+03  0.51939781384E+03  0.00000000000E+00 0.  1.
         22    1    1    2    0    0 -0.11213318229E+03 -0.12201874475E+03  0.46191775022E+03  0.49074477339E+03  0.00000000000E+00 0. -1.
<mgrwt>
<rscale>  0 0.12211090E+04</rscale>
<asrwt>0</asrwt>
<pdfrwt beam="1">  1        1 0.75144419E-01 0.12211090E+04</pdfrwt>
<pdfrwt beam="2">  1       -1 0.11741549E+00 0.12211090E+04</pdfrwt>
<totfact> 0.29545852E+01</totfact>
</mgrwt>
</event>
<event>
 6    1  0.9562506E-007  0.2254069E+04  0.7818608E-02  0.8496254E-01
         -2   -1    0    0    0  501 -0.00000000000E+00  0.00000000000E+00  0.73791345106E+03  0.73791345106E+03  0.00000000000E+00 0.  1.
          2   -1    0    0  501    0  0.00000000000E+00 -0.00000000000E+00 -0.17213491373E+04  0.17213491373E+04  0.00000000000E+00 0. -1.
         23    2    1    2    0    0 -0.39148879352E+03 -0.87983394119E+03 -0.11275252515E+04  0.14855413539E+04  0.90270048902E+02 0.  0.
         11    1    3    3    0    0 -0.96788098496E+02 -0.16820752995E+03 -0.18260555465E+03  0.26647044439E+03  0.00000000000E+00 0. -1.
        -11    1    3    3    0    0 -0.29470069502E+03 -0.71162641124E+03 -0.94491969690E+03  0.12190709095E+04  0.00000000000E+00 0.  1.
         22    1    1    2    0    0  0.39148879352E+03  0.87983394119E+03  0.14408956535E+03  0.97372123442E+03  0.00000000000E+00 0.  1.
<mgrwt>
<rscale>  0 0.22540689E+04</rscale>
<asrwt>0</asrwt>
<pdfrwt beam="1">  1        2 0.26482294E+00 0.22540689E+04</pdfrwt>
<pdfrwt beam="2">  1       -2 0.11352515E+00 0.22540689E+04</pdfrwt>
<totfact> 0.52846055E+00</totfact>
</mgrwt>
</event>
<event>
 6    1  0.9562506E-007  0.1867514E+04  0.7818608E-02  0.8671198E-01
         -1   -1    0    0    0  501 -0.00000000000E+00  0.00000000000E+00  0.51560143523E+03  0.51560143523E+03  0.00000000000E+00 0.  1.
          1   -1    0    0  501    0  0.00000000000E+00 -0.00000000000E+00 -0.16910388938E+04  0.16910388938E+04  0.00000000000E+00 0. -1.
         23    2    1    2    0    0  0.53692042162E+03  0.64354060204E+03 -0.10700883969E+04  0.13619353684E+04  0.85736369418E+02 0.  0.
         13    1    3    3    0    0  0.22640362442E+03  0.24293034027E+03 -0.48556750760E+03  0.58825976899E+03  0.00000000000E+00 0. -1.
        -13    1    3    3    0    0  0.31051679719E+03  0.40061026177E+03 -0.58452088928E+03  0.77367559944E+03  0.00000000000E+00 0.  1.
         22    1    1    2    0    0 -0.53692042162E+03 -0.64354060204E+03 -0.10534906168E+03  0.84470496057E+03  0.00000000000E+00 0. -1.
<mgrwt>
<rscale>  0 0.18675139E+04</rscale>
<asrwt>0</asrwt>
<pdfrwt beam="1">  1        1 0.26015983E+00 0.18675139E+04</pdfrwt>
<pdfrwt beam="2">  1       -1 0.79323299E-01 0.18675139E+04</pdfrwt>
<totfact> 0.72025751E+00</totfact>
</mgrwt>
</event>
<event>
 6    1  0.9562506E-007  0.4371287E+04  0.7818608E-02  0.7933566E-01
          2   -1    0    0  501    0  0.00000000000E+00  0.00000000000E+00  0.39703159461E+04  0.39703159461E+04  0.00000000000E+00 0. -1.
         -2   -1    0    0    0  501 -0.00000000000E+00 -0.00000000000E+00 -0.12031880150E+04  0.12031880150E+04  0.00000000000E+00 0.  1.
         23    2    1    2    0    0 -0.61173260878E+03 -0.11008968780E+04 -0.72870197307E+03  0.14577244413E+04  0.88109367846E+02 0.  0.
         13    1    3    3    0    0 -0.22225525855E+03 -0.48694041229E+03 -0.29680197089E+03  0.61204556611E+03  0.00000000000E+00 0. -1.
        -13    1    3    3    0    0 -0.38947735023E+03 -0.61395646570E+03 -0.43190000218E+03  0.84567887523E+03  0.00000000000E+00 0.  1.
         22    1    1    2    0    0  0.61173260878E+03  0.11008968780E+04  0.34958299042E+04  0.37157795198E+04  0.00000000000E+00 0. -1.
<mgrwt>
<rscale>  0 0.43712866E+04</rscale>
<asrwt>0</asrwt>
<pdfrwt beam="1">  1        2 0.61081783E+00 0.43712866E+04</pdfrwt>
<pdfrwt beam="2">  1       -2 0.18510585E+00 0.43712866E+04</pdfrwt>
<totfact> 0.46116241E-02</totfact>
</mgrwt>
</event>
<event>
 6    1  0.9562506E-007  0.3971518E+04  0.7818608E-02  0.8010317E-01
          2   -1    0    0  501    0  0.00000000000E+00  0.00000000000E+00  0.26557627279E+04  0.26557627279E+04  0.00000000000E+00 0. -1.
         -2   -1    0    0    0  501 -0.00000000000E+00 -0.00000000000E+00 -0.14847858043E+04  0.14847858043E+04  0.00000000000E+00 0.  1.
         23    2    1    2    0    0 -0.13222294273E+04 -0.74627166708E+03  0.19184159774E+04  0.24482491501E+04  0.91607744768E+02 0.  0.
         13    1    3    3    0    0 -0.90490283291E+03 -0.54107975915E+03  0.13834124220E+04  0.17393810313E+04  0.00000000000E+00 0. -1.
        -13    1    3    3    0    0 -0.41732659443E+03 -0.20519190793E+03  0.53500355535E+03  0.70886811872E+03  0.00000000000E+00 0.  1.
         22    1    1    2    0    0  0.13222294273E+04  0.74627166708E+03 -0.74743905374E+03  0.16922993821E+04  0.00000000000E+00 0.  1.
<mgrwt>
<rscale>  0 0.39715180E+04</rscale>
<asrwt>0</asrwt>
<pdfrwt beam="1">  1        2 0.40857888E+00 0.39715180E+04</pdfrwt>
<pdfrwt beam="2">  1       -2 0.22842859E+00 0.39715180E+04</pdfrwt>
<totfact> 0.19507562E-01</totfact>
</mgrwt>
</event>
<event>
 6    1  0.9562506E-007  0.1341195E+04  0.7818608E-02  0.8997520E-01
         -2   -1    0    0    0  501 -0.00000000000E+00  0.00000000000E+00  0.19704238488E+03  0.19704238488E+03  0.00000000000E+00 0.  1.
          2   -1    0    0  501    0  0.00000000000E+00 -0.00000000000E+00 -0.22822558208E+04  0.22822558208E+04  0.00000000000E+00 0. -1.
         23    2    1    2    0    0  0.41840986892E+03 -0.26222029966E+02 -0.20075934695E+04  0.20529424007E+04  0.91578099131E+02 0.  0.
         11    1    3    3    0    0  0.65573122309E+02  0.17511751698E+02 -0.21601113413E+03  0.22642284753E+03  0.00000000000E+00 0. -1.
        -11    1    3    3    0    0  0.35283674661E+03 -0.43733781663E+02 -0.17915823354E+04  0.18265195531E+04  0.00000000000E+00 0.  1.
         22    1    1    2    0    0 -0.41840986892E+03  0.26222029966E+02 -0.77619966359E+02  0.42635580498E+03  0.00000000000E+00 0.  1.
<mgrwt>
<rscale>  0 0.13411952E+04</rscale>
<asrwt>0</asrwt>
<pdfrwt beam="1">  1        2 0.35111626E+00 0.13411952E+04</pdfrwt>
<pdfrwt beam="2">  1       -2 0.30314215E-01 0.13411952E+04</pdfrwt>
<totfact> 0.45717452E+01</totfact>
</mgrwt>
</event>
<event>
 6    1  0.9562506E-007  0.4274247E+04  0.7818608E-02  0.7951397E-01
         -1   -1    0    0    0  501 -0.00000000000E+00  0.00000000000E+00  0.95923428727E+03  0.95923428727E+03  0.00000000000E+00 0.  1.
          1   -1    0    0  501    0  0.00000000000E+00 -0.00000000000E+00 -0.47613983943E+04  0.47613983943E+04  0.00000000000E+00 0. -1.
         23    2    1    2    0    0  0.20555671841E+04 -0.37409718311E+03 -0.24972826440E+04  0.32572973850E+04  0.90887289061E+02 0.  0.
         13    1    3    3    0    0  0.16839886586E+04 -0.29408453832E+03 -0.19904731226E+04  0.26237924403E+04  0.00000000000E+00 0. -1.
        -13    1    3    3    0    0  0.37157852556E+03 -0.80012644783E+02 -0.50680952140E+03  0.63350494471E+03  0.00000000000E+00 0.  1.
         22    1    1    2    0    0 -0.20555671841E+04  0.37409718311E+03 -0.13048814630E+04  0.24633352966E+04  0.00000000000E+00 0.  1.
<mgrwt>
<rscale>  0 0.42742469E+04</rscale>
<asrwt>0</asrwt>
<pdfrwt beam="1">  1        1 0.73252282E+00 0.42742469E+04</pdfrwt>
<pdfrwt beam="2">  1       -1 0.14757451E+00 0.42742469E+04</pdfrwt>
<totfact> 0.46438512E-03</totfact>
</mgrwt>
</event>
<event>
 6    1  0.9562506E-007  0.2485926E+04  0.7818608E-02  0.8408017E-01
          1   -1    0    0  501    0  0.00000000000E+00  0.00000000000E+00  0.90813838980E+03  0.90813838980E+03  0.00000000000E+00 0. -1.
         -1   -1    0    0    0  501 -0.00000000000E+00 -0.00000000000E+00 -0.17012351546E+04  0.17012351546E+04  0.00000000000E+00 0.  1.
         23    2    1    2    0    0 -0.69886395130E+03 -0.94421601523E+03 -0.81795480793E+03  0.14343958305E+04  0.92122879932E+02 0.  0.
         11    1    3    3    0    0 -0.17333789759E+03 -0.20820036663E+03 -0.23303819695E+03  0.35735167642E+03  0.00000000000E+00 0. -1.
        -11    1    3    3    0    0 -0.52552605371E+03 -0.73601564860E+03 -0.58491661098E+03  0.10770441541E+04  0.00000000000E+00 0.  1.
         22    1    1    2    0    0  0.69886395130E+03  0.94421601523E+03  0.24858043094E+02  0.11749777139E+04  0.00000000000E+00 0. -1.
<mgrwt>
<rscale>  0 0.24859259E+04</rscale>
<asrwt>0</asrwt>
<pdfrwt beam="1">  1        1 0.13971360E+00 0.24859259E+04</pdfrwt>
<pdfrwt beam="2">  1       -1 0.26172848E+00 0.24859259E+04</pdfrwt>
<totfact> 0.93190737E-01</totfact>
</mgrwt>
</event>
<event>
 6    1  0.9562506E-007  0.8827285E+03  0.7818608E-02  0.9447433E-01
         -2   -1    0    0    0  501 -0.00000000000E+00  0.00000000000E+00  0.11772107970E+03  0.11772107970E+03  0.00000000000E+00 0.  1.
          2   -1    0    0  501    0  0.00000000000E+00 -0.00000000000E+00 -0.16547794169E+04  0.16547794169E+04  0.00000000000E+00 0. -1.
         23    2    1    2    0    0  0.33758350059E+03  0.10784591444E+03 -0.12895518113E+04  0.13402357149E+04  0.87718506208E+02 0.  0.
         13    1    3    3    0    0  0.18833146200E+03  0.55866838846E+02 -0.87003003500E+03  0.89193167062E+03  0.00000000000E+00 0. -1.
        -13    1    3    3    0    0  0.14925203858E+03  0.51979075598E+02 -0.41952177630E+03  0.44830404427E+03  0.00000000000E+00 0.  1.
         22    1    1    2    0    0 -0.33758350059E+03 -0.10784591444E+03 -0.24750652588E+03  0.43226478168E+03  0.00000000000E+00 0.  1.
<mgrwt>
<rscale>  0 0.88272854E+03</rscale>
<asrwt>0</asrwt>
<pdfrwt beam="1">  1        2 0.25458144E+00 0.88272854E+03</pdfrwt>
<pdfrwt beam="2">  1       -2 0.18110936E-01 0.88272854E+03</pdfrwt>
<totfact> 0.26556384E+02</totfact>
</mgrwt>
</event>
<event>
 6    1  0.9562506E-007  0.4181701E+04  0.7818608E-02  0.7968862E-01
         -2   -1    0    0    0  501 -0.00000000000E+00  0.00000000000E+00  0.10648829817E+04  0.10648829817E+04  0.00000000000E+00 0.  1.
          2   -1    0    0  501    0  0.00000000000E+00 -0.00000000000E+00 -0.41052927854E+04  0.41052927854E+04  0.00000000000E+00 0. -1.
         23    2    1    2    0    0 -0.12487140031E+04  0.10128888145E+04 -0.31714917546E+04  0.35569761855E+04  0.92136978575E+02 0.  0.
         11    1    3    3    0    0 -0.61985634879E+03  0.49019428819E+03 -0.16581585026E+04  0.18368456530E+04  0.00000000000E+00 0.  1.
        -11    1    3    3    0    0 -0.62885765431E+03  0.52269452628E+03 -0.15133332520E+04  0.17201305325E+04  0.00000000000E+00 0. -1.
         22    1    1    2    0    0  0.12487140031E+04 -0.10128888145E+04  0.13108195090E+03  0.16131995815E+04  0.00000000000E+00 0.  1.
<mgrwt>
<rscale>  0 0.41817013E+04</rscale>
<asrwt>0</asrwt>
<pdfrwt beam="1">  1        2 0.63158352E+00 0.41817013E+04</pdfrwt>
<pdfrwt beam="2">  1       -2 0.16382815E+00 0.41817013E+04</pdfrwt>
<totfact> 0.51184777E-02</totfact>
</mgrwt>
</event>
<event>
 6    1  0.9562506E-007  0.1574539E+04  0.7818608E-02  0.8836344E-01
         -1   -1    0    0    0  501 -0.00000000000E+00  0.00000000000E+00  0.70509960396E+03  0.70509960396E+03  0.00000000000E+00 0.  1.
          1   -1    0    0  501    0  0.00000000000E+00 -0.00000000000E+00 -0.87901525962E+03  0.87901525962E+03  0.00000000000E+00 0. -1.
         23    2    1    2    0    0 -0.39140574442E+03  0.60217791679E+02  0.59419007198E+03  0.71993256334E+03  0.91741020991E+02 0.  0.
         11    1    3    3    0    0 -0.18105149080E+03  0.66491245310E+02  0.32921837104E+03  0.38155663257E+03  0.00000000000E+00 0. -1.
        -11    1    3    3    0    0 -0.21035425361E+03 -0.62734536307E+01  0.26497170094E+03  0.33837593078E+03  0.00000000000E+00 0.  1.
         22    1    1    2    0    0  0.39140574442E+03 -0.60217791679E+02 -0.76810572764E+03  0.86418230023E+03  0.00000000000E+00 0. -1.
<mgrwt>
<rscale>  0 0.15745391E+04</rscale>
<asrwt>0</asrwt>
<pdfrwt beam="1">  1        1 0.13523312E+00 0.15745391E+04</pdfrwt>
<pdfrwt beam="2">  1       -1 0.10847686E+00 0.15745391E+04</pdfrwt>
<totfact> 0.14366461E+01</totfact>
</mgrwt>
</event>
<event>
 6    1  0.9562506E-007  0.1602488E+04  0.7818608E-02  0.8819021E-01
         -1   -1    0    0    0  501 -0.00000000000E+00  0.00000000000E+00  0.32542798075E+03  0.32542798075E+03  0.00000000000E+00 0.  1.
          1   -1    0    0  501    0  0.00000000000E+00 -0.00000000000E+00 -0.19727631693E+04  0.19727631693E+04  0.00000000000E+00 0. -1.
         23    2    1    2    0    0  0.57056760725E+03  0.51490052788E+03 -0.11374919781E+04  0.13759059191E+04  0.92515673261E+02 0.  0.
         11    1    3    3    0    0  0.35658340359E+02  0.49731967250E+02 -0.13372546579E+03  0.14706218414E+03  0.00000000000E+00 0.  1.
        -11    1    3    3    0    0  0.53490926690E+03  0.46516856063E+03 -0.10037665123E+04  0.12288437349E+04  0.00000000000E+00 0. -1.
         22    1    1    2    0    0 -0.57056760725E+03 -0.51490052788E+03 -0.50984321045E+03  0.92228523099E+03  0.00000000000E+00 0.  1.
<mgrwt>
<rscale>  0 0.16024885E+04</rscale>
<asrwt>0</asrwt>
<pdfrwt beam="1">  1        1 0.30350203E+00 0.16024885E+04</pdfrwt>
<pdfrwt beam="2">  1       -1 0.50065842E-01 0.16024885E+04</pdfrwt>
<totfact> 0.11948435E+01</totfact>
</mgrwt>
</event>
<event>
 6    1  0.9562506E-007  0.1456097E+04  0.7818608E-02  0.8914185E-01
         -1   -1    0    0    0  501 -0.00000000000E+00  0.00000000000E+00  0.38045591942E+03  0.38045591942E+03  0.00000000000E+00 0.  1.
          1   -1    0    0  501    0  0.00000000000E+00 -0.00000000000E+00 -0.13932083775E+04  0.13932083775E+04  0.00000000000E+00 0. -1.
         23    2    1    2    0    0  0.37032632000E+03  0.58144103340E+03 -0.78242232354E+03  0.10468443540E+04  0.92104019878E+02 0.  0.
         11    1    3    3    0    0  0.22670250274E+03  0.30079171667E+03 -0.37285405963E+03  0.52999040684E+03  0.00000000000E+00 0. -1.
        -11    1    3    3    0    0  0.14362381726E+03  0.28064931672E+03 -0.40956826391E+03  0.51685394713E+03  0.00000000000E+00 0.  1.
         22    1    1    2    0    0 -0.37032632000E+03 -0.58144103340E+03 -0.23033013455E+03  0.72681994296E+03  0.00000000000E+00 0. -1.
<mgrwt>
<rscale>  0 0.14560967E+04</rscale>
<asrwt>0</asrwt>
<pdfrwt beam="1">  1        1 0.21433975E+00 0.14560967E+04</pdfrwt>
<pdfrwt beam="2">  1       -1 0.58531680E-01 0.14560967E+04</pdfrwt>
<totfact> 0.22303435E+01</totfact>
</mgrwt>
</event>
<event>
 6    1  0.9562506E-007  0.2190947E+04  0.7818608E-02  0.8522205E-01
         -1   -1    0    0    0  501 -0.00000000000E+00  0.00000000000E+00  0.83524167836E+03  0.83524167836E+03  0.00000000000E+00 0.  1.
          1   -1    0    0  501    0  0.00000000000E+00 -0.00000000000E+00 -0.14367848932E+04  0.14367848932E+04  0.00000000000E+00 0. -1.
         23    2    1    2    0    0 -0.10802563308E+03  0.66630908219E+03 -0.11935861267E+04  0.13741668165E+04  0.89717708242E+02 0.  0.
         11    1    3    3    0    0 -0.49859203317E+02  0.51011330172E+03 -0.94127028800E+03  0.10717701600E+04  0.00000000000E+00 0.  1.
        -11    1    3    3    0    0 -0.58166429759E+02  0.15619578047E+03 -0.25231583873E+03  0.30239665650E+03  0.00000000000E+00 0. -1.
         22    1    1    2    0    0  0.10802563308E+03 -0.66630908219E+03  0.59204291185E+03  0.89785975513E+03  0.00000000000E+00 0.  1.
<mgrwt>
<rscale>  0 0.21909474E+04</rscale>
<asrwt>0</asrwt>
<pdfrwt beam="1">  1        1 0.22104383E+00 0.21909474E+04</pdfrwt>
<pdfrwt beam="2">  1       -1 0.12849872E+00 0.21909474E+04</pdfrwt>
<totfact> 0.34499008E+00</totfact>
</mgrwt>
</event>
<event>
 6    1  0.9562506E-007  0.8700983E+03  0.7818608E-02  0.9463752E-01
         -2   -1    0    0    0  501 -0.00000000000E+00  0.00000000000E+00  0.18222756238E+03  0.18222756238E+03  0.00000000000E+00 0.  1.
          2   -1    0    0  501    0  0.00000000000E+00 -0.00000000000E+00 -0.10386341338E+04  0.10386341338E+04  0.00000000000E+00 0. -1.
         23    2    1    2    0    0  0.64815477071E+02  0.38377569609E+03 -0.17546310411E+03  0.43653470018E+03  0.91051702772E+02 0.  0.
         13    1    3    3    0    0  0.69383469895E+02  0.35981466729E+03 -0.18481473314E+03  0.41041094805E+03  0.00000000000E+00 0.  1.
        -13    1    3    3    0    0 -0.45679928232E+01  0.23961028806E+02  0.93516290356E+01  0.26123752133E+02  0.00000000000E+00 0. -1.
         22    1    1    2    0    0 -0.64815477071E+02 -0.38377569609E+03 -0.68094346728E+03  0.78432699597E+03  0.00000000000E+00 0. -1.
<mgrwt>
<rscale>  0 0.87009831E+03</rscale>
<asrwt>0</asrwt>
<pdfrwt beam="1">  1        2 0.15978987E+00 0.87009831E+03</pdfrwt>
<pdfrwt beam="2">  1       -2 0.28035009E-01 0.87009831E+03</pdfrwt>
<totfact> 0.27734253E+02</totfact>
</mgrwt>
</event>
<event>
 6    1  0.9562506E-007  0.3301300E+04  0.7818608E-02  0.8162565E-01
          2   -1    0    0  501    0  0.00000000000E+00  0.00000000000E+00  0.20904633407E+04  0.20904633407E+04  0.00000000000E+00 0. -1.
         -2   -1    0    0    0  501 -0.00000000000E+00 -0.00000000000E+00 -0.13033688056E+04  0.13033688056E+04  0.00000000000E+00 0.  1.
         23    2    1    2    0    0 -0.17268640110E+03  0.11326536114E+04  0.16136033425E+04  0.19810895635E+04  0.90968760601E+02 0.  0.
         13    1    3    3    0    0 -0.53862849677E+02  0.23042477326E+03  0.39012176266E+03  0.45628036601E+03  0.00000000000E+00 0. -1.
        -13    1    3    3    0    0 -0.11882355143E+03  0.90222883810E+03  0.12234815798E+04  0.15248091975E+04  0.00000000000E+00 0.  1.
         22    1    1    2    0    0  0.17268640110E+03 -0.11326536114E+04 -0.82650880734E+03  0.14127425827E+04  0.00000000000E+00 0.  1.
<mgrwt>
<rscale>  0 0.33012996E+04</rscale>
<asrwt>0</asrwt>
<pdfrwt beam="1">  1        2 0.32160975E+00 0.33012996E+04</pdfrwt>
<pdfrwt beam="2">  1       -2 0.20051828E+00 0.33012996E+04</pdfrwt>
<totfact> 0.65557429E-01</totfact>
</mgrwt>
</event>
<event>
 6    1  0.9562506E-007  0.3898638E+04  0.7818608E-02  0.8025312E-01
         -1   -1    0    0    0  501 -0.00000000000E+00  0.00000000000E+00  0.16542514692E+04  0.16542514692E+04  0.00000000000E+00 0.  1.
          1   -1    0    0  501    0  0.00000000000E+00 -0.00000000000E+00 -0.22970179861E+04  0.22970179861E+04  0.00000000000E+00 0. -1.
         23    2    1    2    0    0  0.17514988325E+04 -0.75005137259E+03  0.90421408869E+02  0.19097284304E+04  0.92527969247E+02 0.  0.
         13    1    3    3    0    0  0.12390081741E+04 -0.52536380609E+03  0.21897959512E+02  0.13459672748E+04  0.00000000000E+00 0. -1.
        -13    1    3    3    0    0  0.51249065836E+03 -0.22468756650E+03  0.68523449357E+02  0.56376115560E+03  0.00000000000E+00 0.  1.
         22    1    1    2    0    0 -0.17514988325E+04  0.75005137259E+03 -0.73318792574E+03  0.20415410249E+04  0.00000000000E+00 0. -1.
<mgrwt>
<rscale>  0 0.38986384E+04</rscale>
<asrwt>0</asrwt>
<pdfrwt beam="1">  1        1 0.35338738E+00 0.38986384E+04</pdfrwt>
<pdfrwt beam="2">  1       -1 0.25450023E+00 0.38986384E+04</pdfrwt>
<totfact> 0.96159771E-02</totfact>
</mgrwt>
</event>
<event>
 6    1  0.9562506E-007  0.1099884E+04  0.7818608E-02  0.9205305E-01
         -2   -1    0    0    0  501 -0.00000000000E+00  0.00000000000E+00  0.19491002792E+03  0.19491002792E+03  0.00000000000E+00 0.  1.
          2   -1    0    0  501    0  0.00000000000E+00 -0.00000000000E+00 -0.15516703624E+04  0.15516703624E+04  0.00000000000E+00 0. -1.
         23    2    1    2    0    0 -0.19338671276E+03 -0.10520640334E+03 -0.14768823267E+04  0.14957894396E+04  0.87964951756E+02 0.  0.
         13    1    3    3    0    0 -0.11732320071E+03 -0.44332594986E+02 -0.56696585395E+03  0.58067236197E+03  0.00000000000E+00 0. -1.
        -13    1    3    3    0    0 -0.76063512047E+02 -0.60873808352E+02 -0.90991647270E+03  0.91511707759E+03  0.00000000000E+00 0.  1.
         22    1    1    2    0    0  0.19338671276E+03  0.10520640334E+03  0.12012199218E+03  0.25079095075E+03  0.00000000000E+00 0.  1.
<mgrwt>
<rscale>  0 0.10998838E+04</rscale>
<asrwt>0</asrwt>
<pdfrwt beam="1">  1        2 0.23871851E+00 0.10998838E+04</pdfrwt>
<pdfrwt beam="2">  1       -2 0.29986160E-01 0.10998838E+04</pdfrwt>
<totfact> 0.12088502E+02</totfact>
</mgrwt>
</event>
<event>
 6    1  0.9562506E-007  0.3130594E+04  0.7818608E-02  0.8207391E-01
         -1   -1    0    0    0  501 -0.00000000000E+00  0.00000000000E+00  0.11052935534E+04  0.11052935534E+04  0.00000000000E+00 0.  1.
          1   -1    0    0  501    0  0.00000000000E+00 -0.00000000000E+00 -0.22167457586E+04  0.22167457586E+04  0.00000000000E+00 0. -1.
         23    2    1    2    0    0 -0.71517103950E+03 -0.57428999011E+03 -0.19004185673E+04  0.21121853832E+04  0.91966045374E+02 0.  0.
         11    1    3    3    0    0 -0.38115593396E+02 -0.11016144532E+02 -0.60687875264E+02  0.72506359062E+02  0.00000000000E+00 0. -1.
        -11    1    3    3    0    0 -0.67705544610E+03 -0.56327384558E+03 -0.18397306920E+04  0.20396790241E+04  0.00000000000E+00 0.  1.
         22    1    1    2    0    0  0.71517103950E+03  0.57428999011E+03  0.78896636216E+03  0.12098539288E+04  0.00000000000E+00 0.  1.
<mgrwt>
<rscale>  0 0.31305941E+04</rscale>
<asrwt>0</asrwt>
<pdfrwt beam="1">  1        1 0.34103781E+00 0.31305941E+04</pdfrwt>
<pdfrwt beam="2">  1       -1 0.17004516E+00 0.31305941E+04</pdfrwt>
<totfact> 0.43905650E-01</totfact>
</mgrwt>
</event>
<event>
 6    1  0.9562506E-007  0.4089117E+04  0.7818608E-02  0.7986806E-01
          1   -1    0    0  501    0  0.00000000000E+00  0.00000000000E+00  0.32354999761E+04  0.32354999761E+04  0.00000000000E+00 0. -1.
         -1   -1    0    0    0  501 -0.00000000000E+00 -0.00000000000E+00 -0.12919858682E+04  0.12919858682E+04  0.00000000000E+00 0.  1.
         23    2    1    2    0    0  0.21452560325E+03 -0.18476846075E+04  0.35604964249E+02  0.18628888872E+04  0.95538732485E+02 0.  0.
         11    1    3    3    0    0  0.15477258125E+03 -0.14786661266E+04 -0.59970473018E+01  0.14867562108E+04  0.00000000000E+00 0. -1.
        -11    1    3    3    0    0  0.59753022003E+02 -0.36901848090E+03  0.41602011551E+02  0.37613267639E+03  0.00000000000E+00 0.  1.
         22    1    1    2    0    0 -0.21452560325E+03  0.18476846075E+04  0.19079091436E+04  0.26645969571E+04  0.00000000000E+00 0. -1.
<mgrwt>
<rscale>  0 0.40891174E+04</rscale>
<asrwt>0</asrwt>
<pdfrwt beam="1">  1        1 0.49776922E+00 0.40891174E+04</pdfrwt>
<pdfrwt beam="2">  1       -1 0.19876706E+00 0.40891174E+04</pdfrwt>
<totfact> 0.47624777E-02</totfact>
</mgrwt>
</event>
<event>
 6    1  0.9562506E-007  0.2194471E+04  0.7818608E-02  0.8520733E-01
          2   -1    0    0  501    0  0.00000000000E+00  0.00000000000E+00  0.96601106596E+03  0.96601106596E+03  0.00000000000E+00 0. -1.
         -2   -1    0    0    0  501 -0.00000000000E+00 -0.00000000000E+00 -0.12462855945E+04  0.12462855945E+04  0.00000000000E+00 0.  1.
         23    2    1    2    0    0  0.27077745058E+03  0.10562984908E+04 -0.24024716734E+03  0.11211096375E+04  0.10040512147E+03 0.  0.
         11    1    3    3    0    0  0.11968117923E+03  0.47083890528E+03 -0.56060131633E+02  0.48903537473E+03  0.00000000000E+00 0. -1.
        -11    1    3    3    0    0  0.15109627135E+03  0.58545958556E+03 -0.18418703571E+03  0.63207426278E+03  0.00000000000E+00 0.  1.
         22    1    1    2    0    0 -0.27077745058E+03 -0.10562984908E+04 -0.40027361242E+02  0.10911870230E+04  0.00000000000E+00 0.  1.
<mgrwt>
<rscale>  0 0.21944709E+04</rscale>
<asrwt>0</asrwt>
<pdfrwt beam="1">  1        2 0.14861709E+00 0.21944709E+04</pdfrwt>
<pdfrwt beam="2">  1       -2 0.19173625E+00 0.21944709E+04</pdfrwt>
<totfact> 0.36559352E+00</totfact>
</mgrwt>
</event>
<event>
 6    1  0.9562506E-007  0.3712222E+04  0.7818608E-02  0.8065259E-01
         -2   -1    0    0    0  501 -0.00000000000E+00  0.00000000000E+00  0.14509150966E+04  0.14509150966E+04  0.00000000000E+00 0.  1.
          2   -1    0    0  501    0  0.00000000000E+00 -0.00000000000E+00 -0.23744661857E+04  0.23744661857E+04  0.00000000000E+00 0. -1.
         23    2    1    2    0    0 -0.12556346752E+04 -0.10871250719E+04 -0.13134752080E+04  0.21193624730E+04  0.89558976908E+02 0.  0.
         11    1    3    3    0    0 -0.56047979170E+03 -0.46248458371E+03 -0.62693156007E+03  0.95972536076E+03  0.00000000000E+00 0.  1.
        -11    1    3    3    0    0 -0.69515488351E+03 -0.62464048814E+03 -0.68654364795E+03  0.11596371122E+04  0.00000000000E+00 0. -1.
         22    1    1    2    0    0  0.12556346752E+04  0.10871250719E+04  0.38992411893E+03  0.17060188094E+04  0.00000000000E+00 0.  1.
<mgrwt>
<rscale>  0 0.37122224E+04</rscale>
<asrwt>0</asrwt>
<pdfrwt beam="1">  1        2 0.36530249E+00 0.37122224E+04</pdfrwt>
<pdfrwt beam="2">  1       -2 0.22321771E+00 0.37122224E+04</pdfrwt>
<totfact> 0.31316498E-01</totfact>
</mgrwt>
</event>
<event>
 6    1  0.9562506E-007  0.1675681E+04  0.7818608E-02  0.8775357E-01
         -1   -1    0    0    0  501 -0.00000000000E+00  0.00000000000E+00  0.10446056726E+04  0.10446056726E+04  0.00000000000E+00 0.  1.
          1   -1    0    0  501    0  0.00000000000E+00 -0.00000000000E+00 -0.67200199131E+03  0.67200199131E+03  0.00000000000E+00 0. -1.
         23    2    1    2    0    0  0.27301951070E+03  0.64569560860E+03  0.65209715567E+03  0.96190303668E+03  0.92543391736E+02 0.  0.
         11    1    3    3    0    0  0.11841045507E+02  0.97217078860E+02  0.68546757759E+02  0.11954090840E+03  0.00000000000E+00 0.  1.
        -11    1    3    3    0    0  0.26117846519E+03  0.54847852974E+03  0.58355039791E+03  0.84236212828E+03  0.00000000000E+00 0. -1.
         22    1    1    2    0    0 -0.27301951070E+03 -0.64569560860E+03 -0.27949347436E+03  0.75470462725E+03  0.00000000000E+00 0. -1.
<mgrwt>
<rscale>  0 0.16756815E+04</rscale>
<asrwt>0</asrwt>
<pdfrwt beam="1">  1        1 0.10338492E+00 0.16756815E+04</pdfrwt>
<pdfrwt beam="2">  1       -1 0.16070856E+00 0.16756815E+04</pdfrwt>
<totfact> 0.79762800E+00</totfact>
</mgrwt>
</event>
<event>
 6    1  0.9562506E-007  0.2672553E+04  0.7818608E-02  0.8343966E-01
          2   -1    0    0  501    0  0.00000000000E+00  0.00000000000E+00  0.21699187886E+04  0.21699187886E+04  0.00000000000E+00 0. -1.
         -2   -1    0    0    0  501 -0.00000000000E+00 -0.00000000000E+00 -0.82290402312E+03  0.82290402312E+03  0.00000000000E+00 0.  1.
         23    2    1    2    0    0 -0.50247589494E+01  0.77194046534E+03 -0.54501075527E+03  0.94937525884E+03  0.91429363458E+02 0.  0.
         13    1    3    3    0    0 -0.32116226997E+02  0.12743978179E+03 -0.10938038678E+03  0.17098660483E+03  0.00000000000E+00 0.  1.
        -13    1    3    3    0    0  0.27091468048E+02  0.64450068355E+03 -0.43563036849E+03  0.77838865401E+03  0.00000000000E+00 0. -1.
         22    1    1    2    0    0  0.50247589494E+01 -0.77194046534E+03  0.18920255208E+04  0.20434475529E+04  0.00000000000E+00 0. -1.
<mgrwt>
<rscale>  0 0.26725530E+04</rscale>
<asrwt>0</asrwt>
<pdfrwt beam="1">  1        2 0.33383366E+00 0.26725530E+04</pdfrwt>
<pdfrwt beam="2">  1       -2 0.12660062E+00 0.26725530E+04</pdfrwt>
<totfact> 0.21920709E+00</totfact>
</mgrwt>
</event>
<event>
 6    1  0.9562506E-007  0.1295254E+04  0.7818608E-02  0.9033337E-01
          1   -1    0    0  501    0  0.00000000000E+00  0.00000000000E+00  0.17315359700E+04  0.17315359700E+04  0.00000000000E+00 0. -1.
         -1   -1    0    0    0  501 -0.00000000000E+00 -0.00000000000E+00 -0.24222463575E+03  0.24222463575E+03  0.00000000000E+00 0.  1.
         23    2    1    2    0    0  0.64421630308E+03 -0.13190296642E+01  0.75539227094E+03  0.99720872465E+03  0.93762319291E+02 0.  0.
         13    1    3    3    0    0  0.63050395650E+02 -0.19617027311E+02  0.48649284019E+02  0.82017882122E+02  0.00000000000E+00 0.  1.
        -13    1    3    3    0    0  0.58116590743E+03  0.18297997647E+02  0.70674298692E+03  0.91519084252E+03  0.00000000000E+00 0. -1.
         22    1    1    2    0    0 -0.64421630308E+03  0.13190296642E+01  0.73391906331E+03  0.97655188110E+03  0.00000000000E+00 0.  1.
<mgrwt>
<rscale>  0 0.12952539E+04</rscale>
<asrwt>0</asrwt>
<pdfrwt beam="1">  1        1 0.26639014E+00 0.12952539E+04</pdfrwt>
<pdfrwt beam="2">  1       -1 0.37265330E-01 0.12952539E+04</pdfrwt>
<totfact> 0.30901852E+01</totfact>
</mgrwt>
</event>
<event>
 6    1  0.9562506E-007  0.4637548E+04  0.7818608E-02  0.7886989E-01
          1   -1    0    0  501    0  0.00000000000E+00  0.00000000000E+00  0.19676495267E+04  0.19676495267E+04  0.00000000000E+00 0. -1.
         -1   -1    0    0    0  501 -0.00000000000E+00 -0.00000000000E+00 -0.27325563472E+04  0.27325563472E+04  0.00000000000E+00 0.  1.
         23    2    1    2    0    0 -0.18666313263E+04 -0.34873386872E+02 -0.17749901710E+04  0.25775195955E+04  0.86536101516E+02 0.  0.
         13    1    3    3    0    0 -0.19855466166E+03 -0.12439946573E+02 -0.15560736789E+03  0.25257149261E+03  0.00000000000E+00 0.  1.
        -13    1    3    3    0    0 -0.16680766646E+04 -0.22433440299E+02 -0.16193828031E+04  0.23249481029E+04  0.00000000000E+00 0. -1.
         22    1    1    2    0    0  0.18666313263E+04  0.34873386872E+02  0.10100833505E+04  0.21226862784E+04  0.00000000000E+00 0. -1.
<mgrwt>
<rscale>  0 0.46375481E+04</rscale>
<asrwt>0</asrwt>
<pdfrwt beam="1">  1        1 0.30271531E+00 0.46375481E+04</pdfrwt>
<pdfrwt beam="2">  1       -1 0.42039329E+00 0.46375481E+04</pdfrwt>
<totfact> 0.12072659E-02</totfact>
</mgrwt>
</event>
<event>
 6    1  0.9562506E-007  0.3775363E+04  0.7818608E-02  0.8051463E-01
         -2   -1    0    0    0  501 -0.00000000000E+00  0.00000000000E+00  0.21480898275E+04  0.21480898275E+04  0.00000000000E+00 0.  1.
          2   -1    0    0  501    0  0.00000000000E+00 -0.00000000000E+00 -0.16588423059E+04  0.16588423059E+04  0.00000000000E+00 0. -1.
         23    2    1    2    0    0  0.21445213528E+03 -0.88907955509E+03  0.19086256626E+04  0.21184160747E+04  0.91556386186E+02 0.  0.
         11    1    3    3    0    0  0.12226267782E+03 -0.53812594450E+03  0.10477106612E+04  0.11841559543E+04  0.00000000000E+00 0.  1.
        -11    1    3    3    0    0  0.92189457464E+02 -0.35095361060E+03  0.86091500138E+03  0.93426012035E+03  0.00000000000E+00 0. -1.
         22    1    1    2    0    0 -0.21445213528E+03  0.88907955509E+03 -0.14193781410E+04  0.16885160588E+04  0.00000000000E+00 0. -1.
<mgrwt>
<rscale>  0 0.37753634E+04</rscale>
<asrwt>0</asrwt>
<pdfrwt beam="1">  1        2 0.25520651E+00 0.37753634E+04</pdfrwt>
<pdfrwt beam="2">  1       -2 0.33047536E+00 0.37753634E+04</pdfrwt>
<totfact> 0.17122459E-01</totfact>
</mgrwt>
</event>
<event>
 6    1  0.9562506E-007  0.2406558E+04  0.7818608E-02  0.8437052E-01
         -2   -1    0    0    0  501 -0.00000000000E+00  0.00000000000E+00  0.83449873442E+03  0.83449873442E+03  0.00000000000E+00 0.  1.
          2   -1    0    0  501    0  0.00000000000E+00 -0.00000000000E+00 -0.17350300837E+04  0.17350300837E+04  0.00000000000E+00 0. -1.
         23    2    1    2    0    0 -0.54711216655E+03  0.10537539092E+04 -0.25447051562E+03  0.12178174493E+04  0.92709613729E+02 0.  0.
         11    1    3    3    0    0 -0.30285691789E+03  0.62886655682E+03 -0.19083689599E+03  0.72361189865E+03  0.00000000000E+00 0.  1.
        -11    1    3    3    0    0 -0.24425524867E+03  0.42488735238E+03 -0.63633619631E+02  0.49420555062E+03  0.00000000000E+00 0. -1.
         22    1    1    2    0    0  0.54711216655E+03 -0.10537539092E+04 -0.64606083367E+03  0.13517113689E+04  0.00000000000E+00 0. -1.
<mgrwt>
<rscale>  0 0.24065580E+04</rscale>
<asrwt>0</asrwt>
<pdfrwt beam="1">  1        2 0.26692770E+00 0.24065580E+04</pdfrwt>
<pdfrwt beam="2">  1       -2 0.12838442E+00 0.24065580E+04</pdfrwt>
<totfact> 0.37780836E+00</totfact>
</mgrwt>
</event>
<event>
 6    1  0.9562506E-007  0.2127791E+04  0.7818608E-02  0.8549099E-01
          2   -1    0    0  501    0  0.00000000000E+00  0.00000000000E+00  0.16479869292E+04  0.16479869292E+04  0.00000000000E+00 0. -1.
         -2   -1    0    0    0  501 -0.00000000000E+00 -0.00000000000E+00 -0.68682201868E+03  0.68682201868E+03  0.00000000000E+00 0.  1.
         23    2    1    2    0    0 -0.33629873446E+03 -0.62567041771E+03  0.13479649472E+04  0.15259983528E+04  0.84268400916E+02 0.  0.
         13    1    3    3    0    0 -0.18560361359E+03 -0.40993033826E+03  0.90662116445E+03  0.10121529131E+04  0.00000000000E+00 0. -1.
        -13    1    3    3    0    0 -0.15069512087E+03 -0.21574007945E+03  0.44134378277E+03  0.51384543972E+03  0.00000000000E+00 0.  1.
         22    1    1    2    0    0  0.33629873446E+03  0.62567041771E+03 -0.38680003667E+03  0.80881059511E+03  0.00000000000E+00 0.  1.
<mgrwt>
<rscale>  0 0.21277911E+04</rscale>
<asrwt>0</asrwt>
<pdfrwt beam="1">  1        2 0.25353645E+00 0.21277911E+04</pdfrwt>
<pdfrwt beam="2">  1       -2 0.10566493E+00 0.21277911E+04</pdfrwt>
<totfact> 0.69797415E+00</totfact>
</mgrwt>
</event>
<event>
 6    1  0.9562506E-007  0.6141658E+04  0.7818608E-02  0.7673082E-01
         -2   -1    0    0    0  501 -0.00000000000E+00  0.00000000000E+00  0.32070229367E+04  0.32070229367E+04  0.00000000000E+00 0.  1.
          2   -1    0    0  501    0  0.00000000000E+00 -0.00000000000E+00 -0.29404188542E+04  0.29404188542E+04  0.00000000000E+00 0. -1.
         23    2    1    2    0    0 -0.22199502901E+04 -0.72177661055E+03  0.21293889910E+04  0.31609541581E+04  0.90514907742E+02 0.  0.
         13    1    3    3    0    0 -0.90443031610E+03 -0.32777620784E+03  0.91917517429E+03  0.13305316382E+04  0.00000000000E+00 0.  1.
        -13    1    3    3    0    0 -0.13155199740E+04 -0.39400040271E+03  0.12102138167E+04  0.18304225199E+04  0.00000000000E+00 0. -1.
         22    1    1    2    0    0  0.22199502901E+04  0.72177661055E+03 -0.18627849084E+04  0.29864876328E+04  0.00000000000E+00 0. -1.
<mgrwt>
<rscale>  0 0.61416580E+04</rscale>
<asrwt>0</asrwt>
<pdfrwt beam="1">  1        2 0.45237213E+00 0.61416580E+04</pdfrwt>
<pdfrwt beam="2">  1       -2 0.49338814E+00 0.61416580E+04</pdfrwt>
<totfact> 0.23155537E-03</totfact>
</mgrwt>
</event>
<event>
 6    1  0.9562506E-007  0.3525444E+04  0.7818608E-02  0.8107786E-01
         -2   -1    0    0    0  501 -0.00000000000E+00  0.00000000000E+00  0.17343901962E+04  0.17343901962E+04  0.00000000000E+00 0.  1.
          2   -1    0    0  501    0  0.00000000000E+00 -0.00000000000E+00 -0.17915169709E+04  0.17915169709E+04  0.00000000000E+00 0. -1.
         23    2    1    2    0    0  0.72712242202E+03  0.10061322560E+04 -0.12784510278E+04  0.17844589008E+04  0.94060645869E+02 0.  0.
         13    1    3    3    0    0  0.26349343712E+03  0.41927473956E+03 -0.55709260047E+03  0.74536720087E+03  0.00000000000E+00 0.  1.
        -13    1    3    3    0    0  0.46362898489E+03  0.58685751644E+03 -0.72135842733E+03  0.10390917000E+04  0.00000000000E+00 0. -1.
         22    1    1    2    0    0 -0.72712242202E+03 -0.10061322560E+04  0.12213242531E+04  0.17414482663E+04  0.00000000000E+00 0.  1.
<mgrwt>
<rscale>  0 0.35254444E+04</rscale>
<asrwt>0</asrwt>
<pdfrwt beam="1">  1        2 0.27561800E+00 0.35254444E+04</pdfrwt>
<pdfrwt beam="2">  1       -2 0.26682926E+00 0.35254444E+04</pdfrwt>
<totfact> 0.36250421E-01</totfact>
</mgrwt>
</event>
<event>
 6    1  0.9562506E-007  0.2113766E+04  0.7818608E-02  0.8555204E-01
         -1   -1    0    0    0  501 -0.00000000000E+00  0.00000000000E+00  0.94226444177E+03  0.94226444177E+03  0.00000000000E+00 0.  1.
          1   -1    0    0  501    0  0.00000000000E+00 -0.00000000000E+00 -0.11854436325E+04  0.11854436325E+04  0.00000000000E+00 0. -1.
         23    2    1    2    0    0  0.84580543444E+03  0.10389219981E+03 -0.74760134561E+03  0.11374444062E+04  0.93228659943E+02 0.  0.
         11    1    3    3    0    0  0.24102093847E+03 -0.92134282414E+01 -0.18901386654E+03  0.30643469416E+03  0.00000000000E+00 0. -1.
        -11    1    3    3    0    0  0.60478449597E+03  0.11310562805E+03 -0.55858747907E+03  0.83100971200E+03  0.00000000000E+00 0.  1.
         22    1    1    2    0    0 -0.84580543444E+03 -0.10389219981E+03  0.50442215485E+03  0.99026366813E+03  0.00000000000E+00 0.  1.
<mgrwt>
<rscale>  0 0.21137657E+04</rscale>
<asrwt>0</asrwt>
<pdfrwt beam="1">  1        1 0.18237594E+00 0.21137657E+04</pdfrwt>
<pdfrwt beam="2">  1       -1 0.14496376E+00 0.21137657E+04</pdfrwt>
<totfact> 0.38466349E+00</totfact>
</mgrwt>
</event>
<event>
 6    1  0.9562506E-007  0.2082908E+04  0.7818608E-02  0.8568810E-01
         -1   -1    0    0    0  501 -0.00000000000E+00  0.00000000000E+00  0.49762388794E+03  0.49762388794E+03  0.00000000000E+00 0.  1.
          1   -1    0    0  501    0  0.00000000000E+00 -0.00000000000E+00 -0.21796116562E+04  0.21796116562E+04  0.00000000000E+00 0. -1.
         23    2    1    2    0    0  0.22016985469E+03  0.96289323112E+03 -0.12613167722E+04  0.16036424060E+04  0.71490047176E+02 0.  0.
         11    1    3    3    0    0  0.13813551387E+03  0.69408044372E+03 -0.94281898616E+03  0.11788709527E+04  0.00000000000E+00 0.  1.
        -11    1    3    3    0    0  0.82034340823E+02  0.26881278740E+03 -0.31849778608E+03  0.42477145323E+03  0.00000000000E+00 0. -1.
         22    1    1    2    0    0 -0.22016985469E+03 -0.96289323112E+03 -0.42067099604E+03  0.10735931382E+04  0.00000000000E+00 0. -1.
<mgrwt>
<rscale>  0 0.20829084E+04</rscale>
<asrwt>0</asrwt>
<pdfrwt beam="1">  1        1 0.33532486E+00 0.20829084E+04</pdfrwt>
<pdfrwt beam="2">  1       -1 0.76557523E-01 0.20829084E+04</pdfrwt>
<totfact> 0.35474664E+00</totfact>
</mgrwt>
</event>
<event>
 6    1  0.9562506E-007  0.1854644E+04  0.7818608E-02  0.8677769E-01
          3   -1    0    0  501    0  0.00000000000E+00  0.00000000000E+00  0.93298663605E+03  0.93298663605E+03  0.00000000000E+00 0. -1.
         -3   -1    0    0    0  501 -0.00000000000E+00 -0.00000000000E+00 -0.92169126257E+03  0.92169126257E+03  0.00000000000E+00 0.  1.
         23    2    1    2    0    0  0.25956342195E+03  0.88148464901E+03 -0.10115248743E+03  0.92891719635E+03  0.90922909734E+02 0.  0.
         13    1    3    3    0    0  0.37897396741E+02  0.66487988332E+02 -0.26634960622E+02  0.81032625525E+02  0.00000000000E+00 0. -1.
        -13    1    3    3    0    0  0.22166602521E+03  0.81499666067E+03 -0.74517526805E+02  0.84788457082E+03  0.00000000000E+00 0.  1.
         22    1    1    2    0    0 -0.25956342195E+03 -0.88148464901E+03  0.11244786091E+03  0.92576070227E+03  0.00000000000E+00 0. -1.
<mgrwt>
<rscale>  0 0.18546435E+04</rscale>
<asrwt>0</asrwt>
<pdfrwt beam="1">  1        3 0.14353641E+00 0.18546435E+04</pdfrwt>
<pdfrwt beam="2">  1       -3 0.14179866E+00 0.18546435E+04</pdfrwt>
<totfact> 0.33209184E-01</totfact>
</mgrwt>
</event>
<event>
 6    1  0.9562506E-007  0.1573738E+04  0.7818608E-02  0.8836846E-01
         -2   -1    0    0    0  501 -0.00000000000E+00  0.00000000000E+00  0.35963691116E+03  0.35963691116E+03  0.00000000000E+00 0.  1.
          2   -1    0    0  501    0  0.00000000000E+00 -0.00000000000E+00 -0.17216325669E+04  0.17216325669E+04  0.00000000000E+00 0. -1.
         23    2    1    2    0    0 -0.31225727382E+03  0.71169239713E+03 -0.82321900652E+03  0.11355998999E+04  0.88808371513E+02 0.  0.
         11    1    3    3    0    0 -0.23482694784E+03  0.61453308143E+03 -0.69987749850E+03  0.96053272537E+03  0.00000000000E+00 0.  1.
        -11    1    3    3    0    0 -0.77430325985E+02  0.97159315703E+02 -0.12334150803E+03  0.17506717457E+03  0.00000000000E+00 0. -1.
         22    1    1    2    0    0  0.31225727382E+03 -0.71169239713E+03 -0.53877664917E+03  0.94566957807E+03  0.00000000000E+00 0. -1.
<mgrwt>
<rscale>  0 0.15737377E+04</rscale>
<asrwt>0</asrwt>
<pdfrwt beam="1">  1        2 0.26486655E+00 0.15737377E+04</pdfrwt>
<pdfrwt beam="2">  1       -2 0.55328755E-01 0.15737377E+04</pdfrwt>
<totfact> 0.28140245E+01</totfact>
</mgrwt>
</event>
<event>
 6    1  0.9562506E-007  0.1844675E+04  0.7818608E-02  0.8682896E-01
          1   -1    0    0  501    0  0.00000000000E+00  0.00000000000E+00  0.67775163987E+03  0.67775163987E+03  0.00000000000E+00 0. -1.
         -1   -1    0    0    0  501 -0.00000000000E+00 -0.00000000000E+00 -0.12551896249E+04  0.12551896249E+04  0.00000000000E+00 0.  1.
         23    2    1    2    0    0 -0.22392483432E+03  0.63236612321E+03 -0.94927977486E+03  0.11659369872E+04  0.90816969136E+02 0.  0.
         11    1    3    3    0    0 -0.15907675667E+03  0.39538272589E+03 -0.53152093289E+03  0.68128365351E+03  0.00000000000E+00 0. -1.
        -11    1    3    3    0    0 -0.64848077647E+02  0.23698339733E+03 -0.41775884197E+03  0.48465333366E+03  0.00000000000E+00 0.  1.
         22    1    1    2    0    0  0.22392483432E+03 -0.63236612321E+03  0.37184178983E+03  0.76700427761E+03  0.00000000000E+00 0. -1.
<mgrwt>
<rscale>  0 0.18446754E+04</rscale>
<asrwt>0</asrwt>
<pdfrwt beam="1">  1        1 0.10426948E+00 0.18446754E+04</pdfrwt>
<pdfrwt beam="2">  1       -1 0.19310610E+00 0.18446754E+04</pdfrwt>
<totfact> 0.45191296E+00</totfact>
</mgrwt>
</event>
