<event>
 6    1  0.9364335E-007  0.1795650E+04  0.7818608E-02  0.8708616E-01
          1   -1    0    0  501    0  0.00000000000E+00  0.00000000000E+00  0.92979338023E+03  0.92979338023E+03  0.00000000000E+00 0. -1.
         -1   -1    0    0    0  501 -0.00000000000E+00 -0.00000000000E+00 -0.86695558464E+03  0.86695558464E+03  0.00000000000E+00 0.  1.
         23    2    1    2    0    0  0.52203317660E+03  0.45276878657E+03 -0.53817369843E+03  0.88092527687E+03  0.94234824697E+02 0.  0.
         13    1    3    3    0    0  0.40562111460E+03  0.29598903844E+03 -0.38480452988E+03  0.63262352605E+03  0.00000000000E+00 0. -1.
        -13    1    3    3    0    0  0.11641206200E+03  0.15677974813E+03 -0.15336916854E+03  0.24830175082E+03  0.00000000000E+00 0.  1.
         22    1    1    2    0    0 -0.52203317660E+03 -0.45276878657E+03  0.60101149402E+03  0.91582368800E+03  0.00000000000E+00 0. -1.
<mgrwt>
<rscale>  0 0.17956498E+04</rscale>
<asrwt>0</asrwt>
<pdfrwt beam="1">  1        1 0.14304514E+00 0.17956498E+04</pdfrwt>
<pdfrwt beam="2">  1       -1 0.13337778E+00 0.17956498E+04</pdfrwt>
<totfact> 0.77185767E+00</totfact>
</mgrwt>
</event>
<event>
 6    1  0.9364335E-007  0.3455471E+04  0.7818608E-02  0.8124425E-01
         -1   -1    0    0    0  501 -0.00000000000E+00  0.00000000000E+00  0.14568368913E+04  0.14568368913E+04  0.00000000000E+00 0.  1.
          1   -1    0    0  501    0  0.00000000000E+00 -0.00000000000E+00 -0.20490077902E+04  0.20490077902E+04  0.00000000000E+00 0. -1.
         23    2    1    2    0    0 -0.14451526672E+04 -0.65493338859E+02  0.65986569145E+03  0.15926402406E+04  0.91239226578E+02 0.  0.
         11    1    3    3    0    0 -0.12022215312E+04 -0.86861321961E+02  0.53690461003E+03  0.13195256949E+04  0.00000000000E+00 0.  1.
        -11    1    3    3    0    0 -0.24293113598E+03  0.21367983103E+02  0.12296108142E+03  0.27311454570E+03  0.00000000000E+00 0. -1.
         22    1    1    2    0    0  0.14451526672E+04  0.65493338859E+02 -0.12520365904E+04  0.19132044408E+04  0.00000000000E+00 0. -1.
<mgrwt>
<rscale>  0 0.34554711E+04</rscale>
<asrwt>0</asrwt>
<pdfrwt beam="1">  1        1 0.31523197E+00 0.34554711E+04</pdfrwt>
<pdfrwt beam="2">  1       -1 0.22412875E+00 0.34554711E+04</pdfrwt>
<totfact> 0.23343837E-01</totfact>
</mgrwt>
</event>
<event>
 6    1  0.9364335E-007  0.9054738E+03  0.7818608E-02  0.9418765E-01
         -2   -1    0    0    0  501 -0.00000000000E+00  0.00000000000E+00  0.65446917929E+03  0.65446917929E+03  0.00000000000E+00 0.  1.
          2   -1    0    0  501    0  0.00000000000E+00 -0.00000000000E+00 -0.31318615929E+03  0.31318615929E+03  0.00000000000E+00 0. -1.
         23    2    1    2    0    0 -0.15201035462E+03  0.22559844669E+03 -0.20830195741E+03  0.35442988701E+03  0.90714013734E+02 0.  0.
         13    1    3    3    0    0 -0.14041049135E+03  0.13355865000E+03 -0.13453969480E+03  0.23591089112E+03  0.00000000000E+00 0. -1.
        -13    1    3    3    0    0 -0.11599863267E+02  0.92039796695E+02 -0.73762262607E+02  0.11851899590E+03  0.00000000000E+00 0.  1.
         22    1    1    2    0    0  0.15201035462E+03 -0.22559844669E+03  0.54958497741E+03  0.61322545157E+03  0.00000000000E+00 0.  1.
<mgrwt>
<rscale>  0 0.90547377E+03</rscale>
<asrwt>0</asrwt>
<pdfrwt beam="1">  1        2 0.48182486E-01 0.90547377E+03</pdfrwt>
<pdfrwt beam="2">  1       -2 0.10068757E+00 0.90547377E+03</pdfrwt>
<totfact> 0.85304797E+01</totfact>
</mgrwt>
</event>
<event>
 6    1  0.9364335E-007  0.2741727E+04  0.7818608E-02  0.8321591E-01
         -1   -1    0    0    0  501 -0.00000000000E+00  0.00000000000E+00  0.61755799635E+03  0.61755799635E+03  0.00000000000E+00 0.  1.
          1   -1    0    0  501    0  0.00000000000E+00 -0.00000000000E+00 -0.30430620690E+04  0.30430620690E+04  0.00000000000E+00 0. -1.
         23    2    1    2    0    0  0.57400958504E+03  0.60583232829E+03 -0.26635809682E+04  0.27927488641E+04  0.90900110083E+02 0.  0.
         13    1    3    3    0    0  0.42096480856E+03  0.42836891758E+03 -0.17785772307E+04  0.18772448602E+04  0.00000000000E+00 0.  1.
        -13    1    3    3    0    0  0.15304477647E+03  0.17746341071E+03 -0.88500373748E+03  0.91550400387E+03  0.00000000000E+00 0. -1.
         22    1    1    2    0    0 -0.57400958504E+03 -0.60583232829E+03  0.23807689559E+03  0.86787120123E+03  0.00000000000E+00 0.  1.
<mgrwt>
<rscale>  0 0.27417274E+04</rscale>
<asrwt>0</asrwt>
<pdfrwt beam="1">  1        1 0.46816339E+00 0.27417274E+04</pdfrwt>
<pdfrwt beam="2">  1       -1 0.95008924E-01 0.27417274E+04</pdfrwt>
<totfact> 0.51748922E-01</totfact>
</mgrwt>
</event>
<event>
 6    1  0.9364335E-007  0.2495528E+04  0.7818608E-02  0.8404580E-01
         -2   -1    0    0    0  501 -0.00000000000E+00  0.00000000000E+00  0.13627941470E+04  0.13627941470E+04  0.00000000000E+00 0.  1.
          2   -1    0    0  501    0  0.00000000000E+00 -0.00000000000E+00 -0.11424432252E+04  0.11424432252E+04  0.00000000000E+00 0. -1.
         23    2    1    2    0    0  0.40203599528E+02  0.32332998964E+03  0.13177283617E+04  0.13605121399E+04  0.91796709568E+02 0.  0.
         11    1    3    3    0    0  0.49222848461E+01  0.19091702210E+03  0.59471569137E+03  0.62462812279E+03  0.00000000000E+00 0. -1.
        -11    1    3    3    0    0  0.35281314682E+02  0.13241296754E+03  0.72301267036E+03  0.73588401711E+03  0.00000000000E+00 0.  1.
         22    1    1    2    0    0 -0.40203599528E+02 -0.32332998964E+03 -0.10973774399E+04  0.11447252322E+04  0.00000000000E+00 0. -1.
<mgrwt>
<rscale>  0 0.24955280E+04</rscale>
<asrwt>0</asrwt>
<pdfrwt beam="1">  1        2 0.17576050E+00 0.24955280E+04</pdfrwt>
<pdfrwt beam="2">  1       -2 0.20966064E+00 0.24955280E+04</pdfrwt>
<totfact> 0.21066933E+00</totfact>
</mgrwt>
</event>
<event>
 6    1  0.1415474E-006  0.3117611E+04  0.7818608E-02  0.8210921E-01
          2   -1    0    0  501    0  0.00000000000E+00  0.00000000000E+00  0.18156630427E+04  0.18156630427E+04  0.00000000000E+00 0. -1.
         -2   -1    0    0    0  501 -0.00000000000E+00 -0.00000000000E+00 -0.13382848217E+04  0.13382848217E+04  0.00000000000E+00 0.  1.
         23    2    1    2    0    0  0.55431482890E+03  0.13558892070E+04 -0.29813787716E+03  0.14965023330E+04  0.70232240931E+02 0.  0.
         13    1    3    3    0    0  0.10433997297E+03  0.22527639126E+03 -0.74992984224E+02  0.25934577325E+03  0.00000000000E+00 0. -1.
        -13    1    3    3    0    0  0.44997485594E+03  0.11306128158E+04 -0.22314489293E+03  0.12371565598E+04  0.00000000000E+00 0.  1.
         22    1    1    2    0    0 -0.55431482890E+03 -0.13558892070E+04  0.77551609818E+03  0.16574455315E+04  0.00000000000E+00 0. -1.
<mgrwt>
<rscale>  0 0.31176108E+04</rscale>
<asrwt>0</asrwt>
<pdfrwt beam="1">  1        2 0.27933278E+00 0.31176108E+04</pdfrwt>
<pdfrwt beam="2">  1       -2 0.20588997E+00 0.31176108E+04</pdfrwt>
<totfact> 0.87293241E-01</totfact>
</mgrwt>
</event>
<event>
 6    1  0.9364335E-007  0.2071520E+04  0.7818608E-02  0.8573894E-01
         -1   -1    0    0    0  501 -0.00000000000E+00  0.00000000000E+00  0.60650003773E+03  0.60650003773E+03  0.00000000000E+00 0.  1.
          1   -1    0    0  501    0  0.00000000000E+00 -0.00000000000E+00 -0.17688346672E+04  0.17688346672E+04  0.00000000000E+00 0. -1.
         23    2    1    2    0    0 -0.14642499045E+03  0.84297725180E+03 -0.12470543557E+04  0.15155508036E+04  0.98482218332E+02 0.  0.
         11    1    3    3    0    0 -0.10916555926E+03  0.72674648312E+03 -0.10119117090E+04  0.12506169985E+04  0.00000000000E+00 0.  1.
        -11    1    3    3    0    0 -0.37259431188E+02  0.11623076867E+03 -0.23514264669E+03  0.26493380511E+03  0.00000000000E+00 0. -1.
         22    1    1    2    0    0  0.14642499045E+03 -0.84297725180E+03  0.84719726292E+02  0.85978390128E+03  0.00000000000E+00 0. -1.
<mgrwt>
<rscale>  0 0.20715195E+04</rscale>
<asrwt>0</asrwt>
<pdfrwt beam="1">  1        1 0.27212840E+00 0.20715195E+04</pdfrwt>
<pdfrwt beam="2">  1       -1 0.93307701E-01 0.20715195E+04</pdfrwt>
<totfact> 0.43962479E+00</totfact>
</mgrwt>
</event>
<event>
 6    1  0.9364335E-007  0.1555842E+04  0.7818608E-02  0.8848145E-01
          1   -1    0    0  501    0  0.00000000000E+00  0.00000000000E+00  0.69208269746E+03  0.69208269746E+03  0.00000000000E+00 0. -1.
         -1   -1    0    0    0  501 -0.00000000000E+00 -0.00000000000E+00 -0.87440582470E+03  0.87440582470E+03  0.00000000000E+00 0.  1.
         23    2    1    2    0    0 -0.76132125917E+03 -0.92801553885E+02 -0.20536571195E+03  0.79918600764E+03  0.91109884734E+02 0.  0.
         11    1    3    3    0    0 -0.31002907953E+03 -0.20466329834E+02 -0.12606599290E+03  0.33530513771E+03  0.00000000000E+00 0.  1.
        -11    1    3    3    0    0 -0.45129217964E+03 -0.72335224050E+02 -0.79299719046E+02  0.46388086993E+03  0.00000000000E+00 0. -1.
         22    1    1    2    0    0  0.76132125917E+03  0.92801553885E+02  0.23042584704E+02  0.76730251451E+03  0.00000000000E+00 0. -1.
<mgrwt>
<rscale>  0 0.15558421E+04</rscale>
<asrwt>0</asrwt>
<pdfrwt beam="1">  1        1 0.10647426E+00 0.15558421E+04</pdfrwt>
<pdfrwt beam="2">  1       -1 0.13452397E+00 0.15558421E+04</pdfrwt>
<totfact> 0.12410560E+01</totfact>
</mgrwt>
</event>
<event>
 6    1  0.9364335E-007  0.2432529E+04  0.7818608E-02  0.8427425E-01
          2   -1    0    0  501    0  0.00000000000E+00  0.00000000000E+00  0.12944947707E+04  0.12944947707E+04  0.00000000000E+00 0. -1.
         -2   -1    0    0    0  501 -0.00000000000E+00 -0.00000000000E+00 -0.11427622338E+04  0.11427622338E+04  0.00000000000E+00 0.  1.
         23    2    1    2    0    0 -0.81106017548E+03 -0.85821809610E+03 -0.20873175513E+03  0.12026350322E+04  0.91679693781E+02 0.  0.
         11    1    3    3    0    0 -0.37205524862E+03 -0.33356541590E+03 -0.69270292896E+02  0.50446939272E+03  0.00000000000E+00 0.  1.
        -11    1    3    3    0    0 -0.43900492686E+03 -0.52465268020E+03 -0.13946146224E+03  0.69816563944E+03  0.00000000000E+00 0. -1.
         22    1    1    2    0    0  0.81106017548E+03  0.85821809610E+03  0.36046429210E+03  0.12346219723E+04  0.00000000000E+00 0.  1.
<mgrwt>
<rscale>  0 0.24325293E+04</rscale>
<asrwt>0</asrwt>
<pdfrwt beam="1">  1        2 0.19915304E+00 0.24325293E+04</pdfrwt>
<pdfrwt beam="2">  1       -2 0.17580958E+00 0.24325293E+04</pdfrwt>
<totfact> 0.28967133E+00</totfact>
</mgrwt>
</event>
<event>
 6    1  0.9364335E-007  0.5264666E+03  0.7818608E-02  0.1007093E+00
         -1   -1    0    0    0  501 -0.00000000000E+00  0.00000000000E+00  0.57524161075E+02  0.57524161075E+02  0.00000000000E+00 0.  1.
          1   -1    0    0  501    0  0.00000000000E+00 -0.00000000000E+00 -0.12045681112E+04  0.12045681112E+04  0.00000000000E+00 0. -1.
         23    2    1    2    0    0  0.20997427078E+03 -0.12320389307E+03 -0.40468874854E+03  0.48083710335E+03  0.90349007218E+02 0.  0.
         11    1    3    3    0    0  0.12270838670E+03 -0.21623270187E+02 -0.21778741605E+03  0.25091088571E+03  0.00000000000E+00 0.  1.
        -11    1    3    3    0    0  0.87265884076E+02 -0.10158062288E+03 -0.18690133249E+03  0.22992621764E+03  0.00000000000E+00 0. -1.
         22    1    1    2    0    0 -0.20997427078E+03  0.12320389307E+03 -0.74235520155E+03  0.78125516890E+03  0.00000000000E+00 0. -1.
<mgrwt>
<rscale>  0 0.52646660E+03</rscale>
<asrwt>0</asrwt>
<pdfrwt beam="1">  1        1 0.18531816E+00 0.52646660E+03</pdfrwt>
<pdfrwt beam="2">  1       -1 0.88498715E-02 0.52646660E+03</pdfrwt>
<totfact> 0.82782329E+02</totfact>
</mgrwt>
</event>
<event>
 6    1  0.9364335E-007  0.1207894E+04  0.7818608E-02  0.9105975E-01
          2   -1    0    0  501    0  0.00000000000E+00  0.00000000000E+00  0.15196968974E+04  0.15196968974E+04  0.00000000000E+00 0. -1.
         -2   -1    0    0    0  501 -0.00000000000E+00 -0.00000000000E+00 -0.24001611953E+03  0.24001611953E+03  0.00000000000E+00 0.  1.
         23    2    1    2    0    0 -0.32402964603E+02  0.54451401727E+03  0.10094179230E+04  0.11509540517E+04  0.90692990607E+02 0.  0.
         11    1    3    3    0    0  0.20172170340E+02  0.28742387667E+03  0.47431950906E+03  0.55497603373E+03  0.00000000000E+00 0. -1.
        -11    1    3    3    0    0 -0.52575134943E+02  0.25709014060E+03  0.53509841398E+03  0.59597801793E+03  0.00000000000E+00 0.  1.
         22    1    1    2    0    0  0.32402964603E+02 -0.54451401727E+03  0.27026285486E+03  0.60875896530E+03  0.00000000000E+00 0.  1.
<mgrwt>
<rscale>  0 0.12078936E+04</rscale>
<asrwt>0</asrwt>
<pdfrwt beam="1">  1        2 0.23379952E+00 0.12078936E+04</pdfrwt>
<pdfrwt beam="2">  1       -2 0.36925558E-01 0.12078936E+04</pdfrwt>
<totfact> 0.84282269E+01</totfact>
</mgrwt>
</event>
<event>
 6    1  0.9364335E-007  0.4998963E+03  0.7818608E-02  0.1013806E+00
         -1   -1    0    0    0  501 -0.00000000000E+00  0.00000000000E+00  0.11149665596E+03  0.11149665596E+03  0.00000000000E+00 0.  1.
          1   -1    0    0  501    0  0.00000000000E+00 -0.00000000000E+00 -0.56032247512E+03  0.56032247512E+03  0.00000000000E+00 0. -1.
         23    2    1    2    0    0  0.13778917972E+03  0.19876017241E+03 -0.22113851913E+03  0.33965505900E+03  0.89285218698E+02 0.  0.
         11    1    3    3    0    0 -0.88492939903E+01  0.40108508412E+02 -0.44861334366E+02  0.60823858578E+02  0.00000000000E+00 0.  1.
        -11    1    3    3    0    0  0.14663847371E+03  0.15865166400E+03 -0.17627718477E+03  0.27883120042E+03  0.00000000000E+00 0. -1.
         22    1    1    2    0    0 -0.13778917972E+03 -0.19876017241E+03 -0.22768730002E+03  0.33216407207E+03  0.00000000000E+00 0. -1.
<mgrwt>
<rscale>  0 0.49989632E+03</rscale>
<asrwt>0</asrwt>
<pdfrwt beam="1">  1        1 0.86203457E-01 0.49989632E+03</pdfrwt>
<pdfrwt beam="2">  1       -1 0.17153332E-01 0.49989632E+03</pdfrwt>
<totfact> 0.10021095E+03</totfact>
</mgrwt>
</event>
<event>
 6    1  0.9364335E-007  0.1150838E+04  0.7818608E-02  0.9157011E-01
          2   -1    0    0  501    0  0.00000000000E+00  0.00000000000E+00  0.68621837339E+03  0.68621837339E+03  0.00000000000E+00 0. -1.
         -2   -1    0    0    0  501 -0.00000000000E+00 -0.00000000000E+00 -0.48250978287E+03  0.48250978287E+03  0.00000000000E+00 0.  1.
         23    2    1    2    0    0 -0.53589944611E+03  0.15792269629E+03  0.22602003658E+03  0.60959883762E+03  0.91640010637E+02 0.  0.
         13    1    3    3    0    0 -0.16659506975E+03  0.47178815976E+02  0.11685930091E+03  0.20889196766E+03  0.00000000000E+00 0.  1.
        -13    1    3    3    0    0 -0.36930437635E+03  0.11074388031E+03  0.10916073566E+03  0.40070686996E+03  0.00000000000E+00 0. -1.
         22    1    1    2    0    0  0.53589944611E+03 -0.15792269629E+03 -0.22311446059E+02  0.55912931864E+03  0.00000000000E+00 0.  1.
<mgrwt>
<rscale>  0 0.11508381E+04</rscale>
<asrwt>0</asrwt>
<pdfrwt beam="1">  1        2 0.10557206E+00 0.11508381E+04</pdfrwt>
<pdfrwt beam="2">  1       -2 0.74232275E-01 0.11508381E+04</pdfrwt>
<totfact> 0.67979866E+01</totfact>
</mgrwt>
</event>
<event>
 6    1  0.9364335E-007  0.1976971E+04  0.7818608E-02  0.8617464E-01
          2   -1    0    0  501    0  0.00000000000E+00  0.00000000000E+00  0.14558132792E+04  0.14558132792E+04  0.00000000000E+00 0. -1.
         -2   -1    0    0    0  501 -0.00000000000E+00 -0.00000000000E+00 -0.67117391433E+03  0.67117391433E+03  0.00000000000E+00 0.  1.
         23    2    1    2    0    0 -0.50098745703E+01 -0.84988575118E+03  0.93143222229E+03  0.12645029723E+04  0.95241237130E+02 0.  0.
         11    1    3    3    0    0 -0.15686304425E+02 -0.61140021088E+03  0.60681921679E+03  0.86156011971E+03  0.00000000000E+00 0. -1.
        -11    1    3    3    0    0  0.10676429855E+02 -0.23848554030E+03  0.32461300549E+03  0.40294285255E+03  0.00000000000E+00 0.  1.
         22    1    1    2    0    0  0.50098745703E+01  0.84988575118E+03 -0.14679285745E+03  0.86248422124E+03  0.00000000000E+00 0.  1.
<mgrwt>
<rscale>  0 0.19769713E+04</rscale>
<asrwt>0</asrwt>
<pdfrwt beam="1">  1        2 0.22397127E+00 0.19769713E+04</pdfrwt>
<pdfrwt beam="2">  1       -2 0.10325753E+00 0.19769713E+04</pdfrwt>
<totfact> 0.95788991E+00</totfact>
</mgrwt>
</event>
<event>
 6    1  0.9364335E-007  0.9722660E+03  0.7818608E-02  0.9339497E-01
          2   -1    0    0  501    0  0.00000000000E+00  0.00000000000E+00  0.31963118964E+03  0.31963118964E+03  0.00000000000E+00 0. -1.
         -2   -1    0    0    0  501 -0.00000000000E+00 -0.00000000000E+00 -0.73936873800E+03  0.73936873800E+03  0.00000000000E+00 0.  1.
         23    2    1    2    0    0 -0.22181441799E+03 -0.42211478742E+03 -0.13388549016E+03  0.50303776260E+03  0.87972361183E+02 0.  0.
         11    1    3    3    0    0 -0.19671217788E+03 -0.33066114975E+03 -0.76781095476E+02  0.39233635251E+03  0.00000000000E+00 0. -1.
        -11    1    3    3    0    0 -0.25102240112E+02 -0.91453637672E+02 -0.57104394684E+02  0.11070141008E+03  0.00000000000E+00 0.  1.
         22    1    1    2    0    0  0.22181441799E+03  0.42211478742E+03 -0.28585205820E+03  0.55596216505E+03  0.00000000000E+00 0. -1.
<mgrwt>
<rscale>  0 0.97226603E+03</rscale>
<asrwt>0</asrwt>
<pdfrwt beam="1">  1        2 0.49174030E-01 0.97226603E+03</pdfrwt>
<pdfrwt beam="2">  1       -2 0.11374904E+00 0.97226603E+03</pdfrwt>
<totfact> 0.61921313E+01</totfact>
</mgrwt>
</event>
<event>
 6    1  0.9364335E-007  0.1292627E+04  0.7818608E-02  0.9035433E-01
         -1   -1    0    0    0  501 -0.00000000000E+00  0.00000000000E+00  0.20297485192E+03  0.20297485192E+03  0.00000000000E+00 0.  1.
          1   -1    0    0  501    0  0.00000000000E+00 -0.00000000000E+00 -0.20579946214E+04  0.20579946214E+04  0.00000000000E+00 0. -1.
         23    2    1    2    0    0 -0.11289589982E+03 -0.11051772770E+03 -0.20218521758E+04  0.20312028435E+04  0.11375024467E+03 0.  0.
         11    1    3    3    0    0  0.56695655369E+01 -0.48951293518E+02 -0.28575365482E+03  0.28997159232E+03  0.00000000000E+00 0.  1.
        -11    1    3    3    0    0 -0.11856546536E+03 -0.61566434179E+02 -0.17360985210E+04  0.17412312512E+04  0.00000000000E+00 0. -1.
         22    1    1    2    0    0  0.11289589982E+03  0.11051772770E+03  0.16683240641E+03  0.22976662978E+03  0.00000000000E+00 0.  1.
<mgrwt>
<rscale>  0 0.12926270E+04</rscale>
<asrwt>0</asrwt>
<pdfrwt beam="1">  1        1 0.31661454E+00 0.12926270E+04</pdfrwt>
<pdfrwt beam="2">  1       -1 0.31226902E-01 0.12926270E+04</pdfrwt>
<totfact> 0.25479885E+01</totfact>
</mgrwt>
</event>
<event>
 6    1  0.9364335E-007  0.2821971E+04  0.7818608E-02  0.8296479E-01
          2   -1    0    0  501    0  0.00000000000E+00  0.00000000000E+00  0.45143387940E+04  0.45143387940E+04  0.00000000000E+00 0. -1.
         -2   -1    0    0    0  501 -0.00000000000E+00 -0.00000000000E+00 -0.44101263747E+03  0.44101263747E+03  0.00000000000E+00 0.  1.
         23    2    1    2    0    0  0.75496663324E+03  0.11559386691E+04  0.15408795404E+04  0.20710049392E+04  0.92643812306E+02 0.  0.
         13    1    3    3    0    0  0.63814313652E+03  0.96125392779E+03  0.13351711972E+04  0.17646296785E+04  0.00000000000E+00 0. -1.
        -13    1    3    3    0    0  0.11682349672E+03  0.19468474134E+03  0.20570834323E+03  0.30637526070E+03  0.00000000000E+00 0.  1.
         22    1    1    2    0    0 -0.75496663324E+03 -0.11559386691E+04  0.25324466161E+04  0.28843464922E+04  0.00000000000E+00 0. -1.
<mgrwt>
<rscale>  0 0.28219713E+04</rscale>
<asrwt>0</asrwt>
<pdfrwt beam="1">  1        2 0.69451363E+00 0.28219713E+04</pdfrwt>
<pdfrwt beam="2">  1       -2 0.67848101E-01 0.28219713E+04</pdfrwt>
<totfact> 0.20618554E-01</totfact>
</mgrwt>
</event>
<event>
 6    1  0.9364335E-007  0.1868263E+04  0.7818608E-02  0.8670817E-01
          2   -1    0    0  501    0  0.00000000000E+00  0.00000000000E+00  0.72615554755E+03  0.72615554755E+03  0.00000000000E+00 0. -1.
         -2   -1    0    0    0  501 -0.00000000000E+00 -0.00000000000E+00 -0.12016732525E+04  0.12016732525E+04  0.00000000000E+00 0.  1.
         23    2    1    2    0    0  0.72949036972E+03  0.24790944411E+03  0.30261656146E+03  0.83279079680E+03  0.91369776102E+02 0.  0.
         11    1    3    3    0    0  0.27846716068E+03  0.84358472333E+02  0.16113439578E+03  0.33260277349E+03  0.00000000000E+00 0. -1.
        -11    1    3    3    0    0  0.45102320904E+03  0.16355097177E+03  0.14148216567E+03  0.50018802331E+03  0.00000000000E+00 0.  1.
         22    1    1    2    0    0 -0.72949036972E+03 -0.24790944411E+03 -0.77813426638E+03  0.10950380032E+04  0.00000000000E+00 0.  1.
<mgrwt>
<rscale>  0 0.18682630E+04</rscale>
<asrwt>0</asrwt>
<pdfrwt beam="1">  1        2 0.11171624E+00 0.18682630E+04</pdfrwt>
<pdfrwt beam="2">  1       -2 0.18487281E+00 0.18682630E+04</pdfrwt>
<totfact> 0.61592188E+00</totfact>
</mgrwt>
</event>
<event>
 6    1  0.9364335E-007  0.3774897E+04  0.7818608E-02  0.8051563E-01
         -1   -1    0    0    0  501 -0.00000000000E+00  0.00000000000E+00  0.14465115577E+04  0.14465115577E+04  0.00000000000E+00 0.  1.
          1   -1    0    0  501    0  0.00000000000E+00 -0.00000000000E+00 -0.24627956671E+04  0.24627956671E+04  0.00000000000E+00 0. -1.
         23    2    1    2    0    0  0.53339287691E+03  0.13586372058E+04  0.72907433818E+03  0.16340755599E+04  0.90832409628E+02 0.  0.
         11    1    3    3    0    0  0.47643983348E+02  0.12957059930E+03  0.40463608721E+02  0.14386032456E+03  0.00000000000E+00 0. -1.
        -11    1    3    3    0    0  0.48574889356E+03  0.12290666065E+04  0.68861072946E+03  0.14902152353E+04  0.00000000000E+00 0.  1.
         22    1    1    2    0    0 -0.53339287691E+03 -0.13586372058E+04 -0.17453584477E+04  0.22752316649E+04  0.00000000000E+00 0. -1.
<mgrwt>
<rscale>  0 0.37748973E+04</rscale>
<asrwt>0</asrwt>
<pdfrwt beam="1">  1        1 0.37889164E+00 0.37748973E+04</pdfrwt>
<pdfrwt beam="2">  1       -1 0.22254024E+00 0.37748973E+04</pdfrwt>
<totfact> 0.12130322E-01</totfact>
</mgrwt>
</event>
<event>
 6    1  0.9364335E-007  0.2980452E+04  0.7818608E-02  0.8249335E-01
         -1   -1    0    0    0  501 -0.00000000000E+00  0.00000000000E+00  0.66308449454E+03  0.66308449454E+03  0.00000000000E+00 0.  1.
          1   -1    0    0  501    0  0.00000000000E+00 -0.00000000000E+00 -0.33491554732E+04  0.33491554732E+04  0.00000000000E+00 0. -1.
         23    2    1    2    0    0 -0.51455231037E+03 -0.27628016657E+03  0.49940061952E+03  0.77367174809E+03  0.89845336388E+02 0.  0.
         11    1    3    3    0    0 -0.20061203868E+03 -0.76941149420E+02  0.13962572780E+03  0.25624299874E+03  0.00000000000E+00 0. -1.
        -11    1    3    3    0    0 -0.31394027168E+03 -0.19933901715E+03  0.35977489172E+03  0.51742874935E+03  0.00000000000E+00 0.  1.
         22    1    1    2    0    0  0.51455231037E+03  0.27628016657E+03 -0.31854715982E+04  0.32385682197E+04  0.00000000000E+00 0. -1.
<mgrwt>
<rscale>  0 0.29804517E+04</rscale>
<asrwt>0</asrwt>
<pdfrwt beam="1">  1        1 0.51525470E+00 0.29804517E+04</pdfrwt>
<pdfrwt beam="2">  1       -1 0.10201300E+00 0.29804517E+04</pdfrwt>
<totfact> 0.25394254E-01</totfact>
</mgrwt>
</event>
<event>
 6    1  0.9364335E-007  0.3840183E+03  0.7818608E-02  0.1049459E+00
          2   -1    0    0  501    0  0.00000000000E+00  0.00000000000E+00  0.56054040220E+03  0.56054040220E+03  0.00000000000E+00 0. -1.
         -2   -1    0    0    0  501 -0.00000000000E+00 -0.00000000000E+00 -0.65771360808E+02  0.65771360808E+02  0.00000000000E+00 0.  1.
         23    2    1    2    0    0  0.13019181980E+03  0.40599420973E+02  0.66896922638E+02  0.17723184480E+03  0.91311037828E+02 0.  0.
         11    1    3    3    0    0  0.10897315840E+03  0.64030840251E+02  0.71613558745E+02  0.14527078010E+03  0.00000000000E+00 0.  1.
        -11    1    3    3    0    0  0.21218661392E+02 -0.23431419278E+02 -0.47166361077E+01  0.31961064701E+02  0.00000000000E+00 0. -1.
         22    1    1    2    0    0 -0.13019181980E+03 -0.40599420973E+02  0.42787211875E+03  0.44907991820E+03  0.00000000000E+00 0. -1.
<mgrwt>
<rscale>  0 0.38401825E+03</rscale>
<asrwt>0</asrwt>
<pdfrwt beam="1">  1        2 0.86236982E-01 0.38401825E+03</pdfrwt>
<pdfrwt beam="2">  1       -2 0.10118671E-01 0.38401825E+03</pdfrwt>
<totfact> 0.35759733E+03</totfact>
</mgrwt>
</event>
<event>
 6    1  0.9364335E-007  0.1552428E+04  0.7818608E-02  0.8850318E-01
          2   -1    0    0  501    0  0.00000000000E+00  0.00000000000E+00  0.37477622046E+03  0.37477622046E+03  0.00000000000E+00 0. -1.
         -2   -1    0    0    0  501 -0.00000000000E+00 -0.00000000000E+00 -0.16076475885E+04  0.16076475885E+04  0.00000000000E+00 0.  1.
         23    2    1    2    0    0 -0.20411245746E+03  0.49656177508E+03  0.92993063322E+02  0.55198611996E+03  0.88348599575E+02 0.  0.
         13    1    3    3    0    0 -0.85484107196E+02  0.29833741506E+03  0.80627399681E+02  0.32064547929E+03  0.00000000000E+00 0. -1.
        -13    1    3    3    0    0 -0.11862835027E+03  0.19822436002E+03  0.12365663641E+02  0.23134064068E+03  0.00000000000E+00 0.  1.
         22    1    1    2    0    0  0.20411245746E+03 -0.49656177508E+03 -0.13258644314E+04  0.14304376890E+04  0.00000000000E+00 0.  1.
<mgrwt>
<rscale>  0 0.15524279E+04</rscale>
<asrwt>0</asrwt>
<pdfrwt beam="1">  1        2 0.57657880E-01 0.15524279E+04</pdfrwt>
<pdfrwt beam="2">  1       -2 0.24733040E+00 0.15524279E+04</pdfrwt>
<totfact> 0.54985110E+00</totfact>
</mgrwt>
</event>
<event>
 6    1  0.9364335E-007  0.3232887E+04  0.7818608E-02  0.8180185E-01
         -1   -1    0    0    0  501 -0.00000000000E+00  0.00000000000E+00  0.10433352994E+04  0.10433352994E+04  0.00000000000E+00 0.  1.
          1   -1    0    0  501    0  0.00000000000E+00 -0.00000000000E+00 -0.25043628692E+04  0.25043628692E+04  0.00000000000E+00 0. -1.
         23    2    1    2    0    0 -0.31426349760E+03  0.10779781963E+04  0.54299674695E+03  0.12505451481E+04  0.90659596823E+02 0.  0.
         11    1    3    3    0    0 -0.88451190721E+02  0.43368752245E+03  0.18579754745E+03  0.48003042498E+03  0.00000000000E+00 0. -1.
        -11    1    3    3    0    0 -0.22581230688E+03  0.64429067388E+03  0.35719919950E+03  0.77051472309E+03  0.00000000000E+00 0.  1.
         22    1    1    2    0    0  0.31426349760E+03 -0.10779781963E+04 -0.20040243168E+04  0.22971530206E+04  0.00000000000E+00 0. -1.
<mgrwt>
<rscale>  0 0.32328874E+04</rscale>
<asrwt>0</asrwt>
<pdfrwt beam="1">  1        1 0.38528660E+00 0.32328874E+04</pdfrwt>
<pdfrwt beam="2">  1       -1 0.16051312E+00 0.32328874E+04</pdfrwt>
<totfact> 0.32498798E-01</totfact>
</mgrwt>
</event>
<event>
 6    1  0.9364335E-007  0.1398609E+04  0.7818608E-02  0.8954826E-01
          2   -1    0    0  501    0  0.00000000000E+00  0.00000000000E+00  0.65178478638E+03  0.65178478638E+03  0.00000000000E+00 0. -1.
         -2   -1    0    0    0  501 -0.00000000000E+00 -0.00000000000E+00 -0.75028922416E+03  0.75028922416E+03  0.00000000000E+00 0.  1.
         23    2    1    2    0    0  0.39903854781E+03  0.94905614384E+02 -0.61346410715E+03  0.74372585085E+03  0.92472115651E+02 0.  0.
         11    1    3    3    0    0  0.34351420520E+03  0.76960283070E+02 -0.45790726202E+03  0.57758458685E+03  0.00000000000E+00 0. -1.
        -11    1    3    3    0    0  0.55524342610E+02  0.17945331315E+02 -0.15555684513E+03  0.16614126400E+03  0.00000000000E+00 0.  1.
         22    1    1    2    0    0 -0.39903854781E+03 -0.94905614384E+02  0.51495966938E+03  0.65834815969E+03  0.00000000000E+00 0. -1.
<mgrwt>
<rscale>  0 0.13986095E+04</rscale>
<asrwt>0</asrwt>
<pdfrwt beam="1">  1        2 0.10027458E+00 0.13986095E+04</pdfrwt>
<pdfrwt beam="2">  1       -2 0.11542911E+00 0.13986095E+04</pdfrwt>
<totfact> 0.25484417E+01</totfact>
</mgrwt>
</event>
<event>
 6    1  0.9364335E-007  0.2211241E+04  0.7818608E-02  0.8513764E-01
         -1   -1    0    0    0  501 -0.00000000000E+00  0.00000000000E+00  0.46986298812E+03  0.46986298812E+03  0.00000000000E+00 0.  1.
          1   -1    0    0  501    0  0.00000000000E+00 -0.00000000000E+00 -0.26016029046E+04  0.26016029046E+04  0.00000000000E+00 0. -1.
         23    2    1    2    0    0  0.57657265828E+03  0.23468021780E+03 -0.23337225434E+04  0.24170135901E+04  0.90459660145E+02 0.  0.
         13    1    3    3    0    0  0.41245607675E+03  0.19776718969E+03 -0.15888792598E+04  0.16534113762E+04  0.00000000000E+00 0. -1.
        -13    1    3    3    0    0  0.16411658152E+03  0.36913028101E+02 -0.74484328362E+03  0.76360221393E+03  0.00000000000E+00 0.  1.
         22    1    1    2    0    0 -0.57657265828E+03 -0.23468021780E+03  0.20198262691E+03  0.65445230267E+03  0.00000000000E+00 0.  1.
<mgrwt>
<rscale>  0 0.22112412E+04</rscale>
<asrwt>0</asrwt>
<pdfrwt beam="1">  1        1 0.40024660E+00 0.22112412E+04</pdfrwt>
<pdfrwt beam="2">  1       -1 0.72286614E-01 0.22112412E+04</pdfrwt>
<totfact> 0.20240580E+00</totfact>
</mgrwt>
</event>
<event>
 6    1  0.9364335E-007  0.1515516E+04  0.7818608E-02  0.8874200E-01
          2   -1    0    0  501    0  0.00000000000E+00  0.00000000000E+00  0.58626887867E+03  0.58626887867E+03  0.00000000000E+00 0. -1.
         -2   -1    0    0    0  501 -0.00000000000E+00 -0.00000000000E+00 -0.97940878452E+03  0.97940878452E+03  0.00000000000E+00 0.  1.
         23    2    1    2    0    0  0.43911440129E+03  0.56722470639E+02  0.43436723387E+03  0.62716449738E+03  0.92852123410E+02 0.  0.
         13    1    3    3    0    0  0.13220005992E+03  0.47962507829E+02  0.96103353969E+02  0.17033235936E+03  0.00000000000E+00 0. -1.
        -13    1    3    3    0    0  0.30691434137E+03  0.87599628103E+01  0.33826387990E+03  0.45683213802E+03  0.00000000000E+00 0.  1.
         22    1    1    2    0    0 -0.43911440129E+03 -0.56722470639E+02 -0.82750713972E+03  0.93851316580E+03  0.00000000000E+00 0.  1.
<mgrwt>
<rscale>  0 0.15155156E+04</rscale>
<asrwt>0</asrwt>
<pdfrwt beam="1">  1        2 0.90195213E-01 0.15155156E+04</pdfrwt>
<pdfrwt beam="2">  1       -2 0.15067827E+00 0.15155156E+04</pdfrwt>
<totfact> 0.14561161E+01</totfact>
</mgrwt>
</event>
<event>
 6    1  0.9364335E-007  0.3237167E+04  0.7818608E-02  0.8179070E-01
         -2   -1    0    0    0  501 -0.00000000000E+00  0.00000000000E+00  0.14121335578E+04  0.14121335578E+04  0.00000000000E+00 0.  1.
          2   -1    0    0  501    0  0.00000000000E+00 -0.00000000000E+00 -0.18552158425E+04  0.18552158425E+04  0.00000000000E+00 0. -1.
         23    2    1    2    0    0  0.15185127907E+04 -0.31032703613E+03 -0.68816737623E+03  0.16981933637E+04  0.90013321957E+02 0.  0.
         11    1    3    3    0    0  0.80756235864E+03 -0.16124434550E+03 -0.31660039725E+03  0.88226555730E+03  0.00000000000E+00 0.  1.
        -11    1    3    3    0    0  0.71095043204E+03 -0.14908269063E+03 -0.37156697898E+03  0.81592780644E+03  0.00000000000E+00 0. -1.
         22    1    1    2    0    0 -0.15185127907E+04  0.31032703613E+03  0.24508509149E+03  0.15691560365E+04  0.00000000000E+00 0.  1.
<mgrwt>
<rscale>  0 0.32371670E+04</rscale>
<asrwt>0</asrwt>
<pdfrwt beam="1">  1        2 0.28541782E+00 0.32371670E+04</pdfrwt>
<pdfrwt beam="2">  1       -2 0.21725132E+00 0.32371670E+04</pdfrwt>
<totfact> 0.69458831E-01</totfact>
</mgrwt>
</event>
<event>
 6    1  0.9364335E-007  0.3915014E+04  0.7818608E-02  0.8021914E-01
          2   -1    0    0  501    0  0.00000000000E+00  0.00000000000E+00  0.83045771484E+03  0.83045771484E+03  0.00000000000E+00 0. -1.
         -2   -1    0    0    0  501 -0.00000000000E+00 -0.00000000000E+00 -0.46141234124E+04  0.46141234124E+04  0.00000000000E+00 0.  1.
         23    2    1    2    0    0  0.11362586213E+04  0.15758997287E+04 -0.22138347755E+04  0.29467995649E+04  0.89552515649E+02 0.  0.
         11    1    3    3    0    0  0.50762098790E+03  0.76813907094E+03 -0.10853168694E+04  0.14232460808E+04  0.00000000000E+00 0. -1.
        -11    1    3    3    0    0  0.62863763337E+03  0.80776065777E+03 -0.11285179061E+04  0.15235534841E+04  0.00000000000E+00 0.  1.
         22    1    1    2    0    0 -0.11362586213E+04 -0.15758997287E+04 -0.15698309220E+04  0.24977815623E+04  0.00000000000E+00 0. -1.
<mgrwt>
<rscale>  0 0.39150144E+04</rscale>
<asrwt>0</asrwt>
<pdfrwt beam="1">  1        2 0.12776273E+00 0.39150144E+04</pdfrwt>
<pdfrwt beam="2">  1       -2 0.70986513E+00 0.39150144E+04</pdfrwt>
<totfact> 0.54457813E-03</totfact>
</mgrwt>
</event>
<event>
 6    1  0.9364335E-007  0.1563579E+04  0.7818608E-02  0.8843241E-01
         -2   -1    0    0    0  501 -0.00000000000E+00  0.00000000000E+00  0.66374714801E+03  0.66374714801E+03  0.00000000000E+00 0.  1.
          2   -1    0    0  501    0  0.00000000000E+00 -0.00000000000E+00 -0.92082453889E+03  0.92082453889E+03  0.00000000000E+00 0. -1.
         23    2    1    2    0    0  0.49052416504E+03 -0.75055544283E+02 -0.73776634029E+03  0.89369604158E+03  0.90256028363E+02 0.  0.
         11    1    3    3    0    0  0.91508748685E+02  0.33476769914E+01 -0.19562483317E+03  0.21599567908E+03  0.00000000000E+00 0.  1.
        -11    1    3    3    0    0  0.39901541635E+03 -0.78403221275E+02 -0.54214150712E+03  0.67770036251E+03  0.00000000000E+00 0. -1.
         22    1    1    2    0    0 -0.49052416504E+03  0.75055544283E+02  0.48068894941E+03  0.69087564532E+03  0.00000000000E+00 0.  1.
<mgrwt>
<rscale>  0 0.15635788E+04</rscale>
<asrwt>0</asrwt>
<pdfrwt beam="1">  1        2 0.14166531E+00 0.15635788E+04</pdfrwt>
<pdfrwt beam="2">  1       -2 0.10211495E+00 0.15635788E+04</pdfrwt>
<totfact> 0.21456262E+01</totfact>
</mgrwt>
</event>
<event>
 6    1  0.9364335E-007  0.1356442E+04  0.7818608E-02  0.8985966E-01
          1   -1    0    0  501    0  0.00000000000E+00  0.00000000000E+00  0.56719427021E+03  0.56719427021E+03  0.00000000000E+00 0. -1.
         -1   -1    0    0    0  501 -0.00000000000E+00 -0.00000000000E+00 -0.81098086690E+03  0.81098086690E+03  0.00000000000E+00 0.  1.
         23    2    1    2    0    0  0.49758627831E+03 -0.38518747028E+03  0.12704588021E+03  0.64777920507E+03  0.86693432367E+02 0.  0.
         13    1    3    3    0    0  0.15192393630E+03 -0.10314775319E+03  0.76018578263E+02  0.19874397010E+03  0.00000000000E+00 0. -1.
        -13    1    3    3    0    0  0.34566234201E+03 -0.28203971709E+03  0.51027301945E+02  0.44903523497E+03  0.00000000000E+00 0.  1.
         22    1    1    2    0    0 -0.49758627831E+03  0.38518747028E+03 -0.37083247690E+03  0.73039593205E+03  0.00000000000E+00 0. -1.
<mgrwt>
<rscale>  0 0.13564420E+04</rscale>
<asrwt>0</asrwt>
<pdfrwt beam="1">  1        1 0.87260657E-01 0.13564420E+04</pdfrwt>
<pdfrwt beam="2">  1       -1 0.12476629E+00 0.13564420E+04</pdfrwt>
<totfact> 0.20431368E+01</totfact>
</mgrwt>
</event>
<event>
 6    1  0.9364335E-007  0.1467056E+04  0.7818608E-02  0.8906661E-01
         -1   -1    0    0    0  501 -0.00000000000E+00  0.00000000000E+00  0.18144395507E+03  0.18144395507E+03  0.00000000000E+00 0.  1.
          1   -1    0    0  501    0  0.00000000000E+00 -0.00000000000E+00 -0.29654507029E+04  0.29654507029E+04  0.00000000000E+00 0. -1.
         23    2    1    2    0    0 -0.41711067233E+03 -0.60002096868E+03 -0.14223493577E+04  0.16015411955E+04  0.88600393670E+02 0.  0.
         13    1    3    3    0    0 -0.34387313127E+03 -0.46862791938E+03 -0.10538217491E+04  0.12034953826E+04  0.00000000000E+00 0.  1.
        -13    1    3    3    0    0 -0.73237541063E+02 -0.13139304930E+03 -0.36852760857E+03  0.39804581282E+03  0.00000000000E+00 0. -1.
         22    1    1    2    0    0  0.41711067233E+03  0.60002096868E+03 -0.13616573902E+04  0.15453534625E+04  0.00000000000E+00 0.  1.
<mgrwt>
<rscale>  0 0.14670557E+04</rscale>
<asrwt>0</asrwt>
<pdfrwt beam="1">  1        1 0.45622315E+00 0.14670557E+04</pdfrwt>
<pdfrwt beam="2">  1       -1 0.27914457E-01 0.14670557E+04</pdfrwt>
<totfact> 0.71571521E+00</totfact>
</mgrwt>
</event>
<event>
 6    1  0.9364335E-007  0.1714147E+04  0.7818608E-02  0.8753337E-01
          2   -1    0    0  501    0  0.00000000000E+00  0.00000000000E+00  0.14206046753E+04  0.14206046753E+04  0.00000000000E+00 0. -1.
         -2   -1    0    0    0  501 -0.00000000000E+00 -0.00000000000E+00 -0.51708624148E+03  0.51708624148E+03  0.00000000000E+00 0.  1.
         23    2    1    2    0    0 -0.41873625725E+03 -0.41974621724E+03  0.11487447104E+04  0.12960813261E+04  0.93195784990E+02 0.  0.
         11    1    3    3    0    0 -0.13110746269E+03 -0.14415835379E+03  0.47454626237E+03  0.51299605541E+03  0.00000000000E+00 0. -1.
        -11    1    3    3    0    0 -0.28762879456E+03 -0.27558786346E+03  0.67419844800E+03  0.78308527073E+03  0.00000000000E+00 0.  1.
         22    1    1    2    0    0  0.41873625725E+03  0.41974621724E+03 -0.24522627659E+03  0.64160959060E+03  0.00000000000E+00 0.  1.
<mgrwt>
<rscale>  0 0.17141472E+04</rscale>
<asrwt>0</asrwt>
<pdfrwt beam="1">  1        2 0.21855456E+00 0.17141472E+04</pdfrwt>
<pdfrwt beam="2">  1       -2 0.79551730E-01 0.17141472E+04</pdfrwt>
<totfact> 0.18739134E+01</totfact>
</mgrwt>
</event>
<event>
 6    1  0.9364335E-007  0.2450006E+04  0.7818608E-02  0.8421016E-01
         -1   -1    0    0    0  501 -0.00000000000E+00  0.00000000000E+00  0.16405975310E+04  0.16405975310E+04  0.00000000000E+00 0.  1.
          1   -1    0    0  501    0  0.00000000000E+00 -0.00000000000E+00 -0.91468610940E+03  0.91468610940E+03  0.00000000000E+00 0. -1.
         23    2    1    2    0    0 -0.39112634130E+03  0.46607311673E+03  0.14703690510E+04  0.15938154262E+04  0.89769157342E+02 0.  0.
         13    1    3    3    0    0 -0.17056571710E+03  0.20135026646E+03  0.52450573608E+03  0.58714637088E+03  0.00000000000E+00 0. -1.
        -13    1    3    3    0    0 -0.22056062420E+03  0.26472285027E+03  0.94586331495E+03  0.10066690553E+04  0.00000000000E+00 0.  1.
         22    1    1    2    0    0  0.39112634130E+03 -0.46607311673E+03 -0.74445762939E+03  0.96146821422E+03  0.00000000000E+00 0. -1.
<mgrwt>
<rscale>  0 0.24500055E+04</rscale>
<asrwt>0</asrwt>
<pdfrwt beam="1">  1        1 0.14072094E+00 0.24500055E+04</pdfrwt>
<pdfrwt beam="2">  1       -1 0.25239962E+00 0.24500055E+04</pdfrwt>
<totfact> 0.10619842E+00</totfact>
</mgrwt>
</event>
<event>
 6    1  0.9364335E-007  0.1240487E+04  0.7818608E-02  0.9078138E-01
          2   -1    0    0  501    0  0.00000000000E+00  0.00000000000E+00  0.11326986019E+04  0.11326986019E+04  0.00000000000E+00 0. -1.
         -2   -1    0    0    0  501 -0.00000000000E+00 -0.00000000000E+00 -0.33963338540E+03  0.33963338540E+03  0.00000000000E+00 0.  1.
         23    2    1    2    0    0  0.12094836467E+03  0.60366121242E+03  0.44012853408E+03  0.76268442119E+03  0.94546462239E+02 0.  0.
         13    1    3    3    0    0  0.68505060940E+02  0.43306908463E+03  0.35882678866E+03  0.56656724199E+03  0.00000000000E+00 0. -1.
        -13    1    3    3    0    0  0.52443303729E+02  0.17059212779E+03  0.81301745419E+02  0.19611717920E+03  0.00000000000E+00 0.  1.
         22    1    1    2    0    0 -0.12094836467E+03 -0.60366121242E+03  0.35293668245E+03  0.70964756613E+03  0.00000000000E+00 0. -1.
<mgrwt>
<rscale>  0 0.12404874E+04</rscale>
<asrwt>0</asrwt>
<pdfrwt beam="1">  1        2 0.17426132E+00 0.12404874E+04</pdfrwt>
<pdfrwt beam="2">  1       -2 0.52251291E-01 0.12404874E+04</pdfrwt>
<totfact> 0.70761930E+01</totfact>
</mgrwt>
</event>
<event>
 6    1  0.9364335E-007  0.3629957E+04  0.7818608E-02  0.8083664E-01
          1   -1    0    0  501    0  0.00000000000E+00  0.00000000000E+00  0.21336811296E+04  0.21336811296E+04  0.00000000000E+00 0. -1.
         -1   -1    0    0    0  501 -0.00000000000E+00 -0.00000000000E+00 -0.15438796351E+04  0.15438796351E+04  0.00000000000E+00 0.  1.
         23    2    1    2    0    0 -0.11031500240E+04  0.13733946158E+04  0.73275521315E+03  0.19101930860E+04  0.93566431840E+02 0.  0.
         13    1    3    3    0    0 -0.62794444295E+02  0.48001471624E+02  0.28986319912E+02  0.84187233323E+02  0.00000000000E+00 0. -1.
        -13    1    3    3    0    0 -0.10403555797E+04  0.13253931442E+04  0.70376889324E+03  0.18260058527E+04  0.00000000000E+00 0.  1.
         22    1    1    2    0    0  0.11031500240E+04 -0.13733946158E+04 -0.14295371858E+03  0.17673676787E+04  0.00000000000E+00 0.  1.
<mgrwt>
<rscale>  0 0.36299569E+04</rscale>
<asrwt>0</asrwt>
<pdfrwt beam="1">  1        1 0.32825863E+00 0.36299569E+04</pdfrwt>
<pdfrwt beam="2">  1       -1 0.23751994E+00 0.36299569E+04</pdfrwt>
<totfact> 0.16424424E-01</totfact>
</mgrwt>
</event>
<event>
 6    1  0.9364335E-007  0.1906815E+04  0.7818608E-02  0.8651471E-01
          2   -1    0    0  501    0  0.00000000000E+00  0.00000000000E+00  0.46710904895E+03  0.46710904895E+03  0.00000000000E+00 0. -1.
         -2   -1    0    0    0  501 -0.00000000000E+00 -0.00000000000E+00 -0.19459829338E+04  0.19459829338E+04  0.00000000000E+00 0.  1.
         23    2    1    2    0    0 -0.38163406749E+03  0.59366150976E+02  0.35897419219E+03  0.53509984868E+03  0.91106948391E+02 0.  0.
         11    1    3    3    0    0 -0.13773214045E+03 -0.16796892497E+02  0.15598075882E+03  0.20876368275E+03  0.00000000000E+00 0. -1.
        -11    1    3    3    0    0 -0.24390192704E+03  0.76163043473E+02  0.20299343337E+03  0.32633616593E+03  0.00000000000E+00 0.  1.
         22    1    1    2    0    0  0.38163406749E+03 -0.59366150976E+02 -0.18378480771E+04  0.18779921341E+04  0.00000000000E+00 0.  1.
<mgrwt>
<rscale>  0 0.19068154E+04</rscale>
<asrwt>0</asrwt>
<pdfrwt beam="1">  1        2 0.71862930E-01 0.19068154E+04</pdfrwt>
<pdfrwt beam="2">  1       -2 0.29938199E+00 0.19068154E+04</pdfrwt>
<totfact> 0.20022377E+00</totfact>
</mgrwt>
</event>
<event>
 6    1  0.9364335E-007  0.1899194E+04  0.7818608E-02  0.8655257E-01
          1   -1    0    0  501    0  0.00000000000E+00  0.00000000000E+00  0.27394911382E+04  0.27394911382E+04  0.00000000000E+00 0. -1.
         -1   -1    0    0    0  501 -0.00000000000E+00 -0.00000000000E+00 -0.32916146068E+03  0.32916146068E+03  0.00000000000E+00 0.  1.
         23    2    1    2    0    0 -0.14261258122E+03 -0.70566273133E+03  0.21278494557E+03  0.75618614775E+03  0.90784460471E+02 0.  0.
         13    1    3    3    0    0 -0.12920327035E+03 -0.46042919065E+03  0.11508405614E+03  0.49186671431E+03  0.00000000000E+00 0. -1.
        -13    1    3    3    0    0 -0.13409310878E+02 -0.24523354069E+03  0.97700889433E+02  0.26431943344E+03  0.00000000000E+00 0.  1.
         22    1    1    2    0    0  0.14261258122E+03  0.70566273133E+03  0.21975447320E+04  0.23124664512E+04  0.00000000000E+00 0. -1.
<mgrwt>
<rscale>  0 0.18991945E+04</rscale>
<asrwt>0</asrwt>
<pdfrwt beam="1">  1        1 0.42146016E+00 0.18991945E+04</pdfrwt>
<pdfrwt beam="2">  1       -1 0.50640227E-01 0.18991945E+04</pdfrwt>
<totfact> 0.33779946E+00</totfact>
</mgrwt>
</event>
<event>
 6    1  0.9364335E-007  0.1852947E+04  0.7818608E-02  0.8678639E-01
          2   -1    0    0  501    0  0.00000000000E+00  0.00000000000E+00  0.24167297476E+04  0.24167297476E+04  0.00000000000E+00 0. -1.
         -2   -1    0    0    0  501 -0.00000000000E+00 -0.00000000000E+00 -0.35517132682E+03  0.35517132682E+03  0.00000000000E+00 0.  1.
         23    2    1    2    0    0 -0.26709921930E+03 -0.86362389706E+03  0.13212266504E+04  0.16034493815E+04  0.90674299527E+02 0.  0.
         13    1    3    3    0    0 -0.24095012068E+03 -0.66167520234E+03  0.99793871499E+03  0.12213732898E+04  0.00000000000E+00 0. -1.
        -13    1    3    3    0    0 -0.26149098626E+02 -0.20194869472E+03  0.32328793546E+03  0.38207609173E+03  0.00000000000E+00 0.  1.
         22    1    1    2    0    0  0.26709921930E+03  0.86362389706E+03  0.74033177031E+03  0.11684516929E+04  0.00000000000E+00 0.  1.
<mgrwt>
<rscale>  0 0.18529470E+04</rscale>
<asrwt>0</asrwt>
<pdfrwt beam="1">  1        2 0.37180457E+00 0.18529470E+04</pdfrwt>
<pdfrwt beam="2">  1       -2 0.54641744E-01 0.18529470E+04</pdfrwt>
<totfact> 0.11528804E+01</totfact>
</mgrwt>
</event>
<event>
 6    1  0.9364335E-007  0.2686587E+04  0.7818608E-02  0.8339370E-01
         -2   -1    0    0    0  501 -0.00000000000E+00  0.00000000000E+00  0.65426745253E+03  0.65426745253E+03  0.00000000000E+00 0.  1.
          2   -1    0    0  501    0  0.00000000000E+00 -0.00000000000E+00 -0.27579503624E+04  0.27579503624E+04  0.00000000000E+00 0. -1.
         23    2    1    2    0    0  0.89630371539E+03  0.98531202786E+03 -0.12582070598E+04  0.18345519582E+04  0.91080949872E+02 0.  0.
         13    1    3    3    0    0  0.50940994236E+03  0.55447632884E+03 -0.77268917688E+03  0.10788841702E+04  0.00000000000E+00 0. -1.
        -13    1    3    3    0    0  0.38689377303E+03  0.43083569902E+03 -0.48551788297E+03  0.75566778802E+03  0.00000000000E+00 0.  1.
         22    1    1    2    0    0 -0.89630371539E+03 -0.98531202786E+03 -0.84547585000E+03  0.15776658567E+04  0.00000000000E+00 0.  1.
<mgrwt>
<rscale>  0 0.26865868E+04</rscale>
<asrwt>0</asrwt>
<pdfrwt beam="1">  1        2 0.42430006E+00 0.26865868E+04</pdfrwt>
<pdfrwt beam="2">  1       -2 0.10065653E+00 0.26865868E+04</pdfrwt>
<totfact> 0.17505059E+00</totfact>
</mgrwt>
</event>
<event>
 6    1  0.9364335E-007  0.1255888E+03  0.7818608E-02  0.1234152E+00
         -2   -1    0    0    0  501 -0.00000000000E+00  0.00000000000E+00  0.82074437613E+02  0.82074437613E+02  0.00000000000E+00 0.  1.
          2   -1    0    0  501    0  0.00000000000E+00 -0.00000000000E+00 -0.48043418148E+02  0.48043418148E+02  0.00000000000E+00 0. -1.
         23    2    1    2    0    0  0.42623636643E+02  0.15900778817E+02 -0.42638112003E+01  0.70652712834E+02  0.53888928150E+02 0.  0.
         13    1    3    3    0    0  0.50774378771E+01  0.27541570229E+02 -0.12204351520E+02  0.30549380715E+02  0.00000000000E+00 0. -1.
        -13    1    3    3    0    0  0.37546198766E+02 -0.11640791411E+02  0.79405403193E+01  0.40103332119E+02  0.00000000000E+00 0.  1.
         22    1    1    2    0    0 -0.42623636643E+02 -0.15900778817E+02  0.38294830665E+02  0.59465142927E+02  0.00000000000E+00 0.  1.
<mgrwt>
<rscale>  0 0.12558880E+03</rscale>
<asrwt>0</asrwt>
<pdfrwt beam="1">  1        2 0.73912951E-02 0.12558880E+03</pdfrwt>
<pdfrwt beam="2">  1       -2 0.12626836E-01 0.12558880E+03</pdfrwt>
<totfact> 0.38714530E+04</totfact>
</mgrwt>
</event>
<event>
 6    1  0.9364335E-007  0.1161988E+04  0.7818608E-02  0.9146795E-01
          1   -1    0    0  501    0  0.00000000000E+00  0.00000000000E+00  0.16798224646E+04  0.16798224646E+04  0.00000000000E+00 0. -1.
         -1   -1    0    0    0  501 -0.00000000000E+00 -0.00000000000E+00 -0.20094626520E+03  0.20094626520E+03  0.00000000000E+00 0.  1.
         23    2    1    2    0    0 -0.40637321162E+03  0.29126958426E+02  0.14063672204E+04  0.14669509935E+04  0.89938267273E+02 0.  0.
         11    1    3    3    0    0 -0.19730425252E+03  0.59164139897E+02  0.68631504863E+03  0.71655963428E+03  0.00000000000E+00 0.  1.
        -11    1    3    3    0    0 -0.20906895909E+03 -0.30037181471E+02  0.72005217175E+03  0.75039135920E+03  0.00000000000E+00 0. -1.
         22    1    1    2    0    0  0.40637321162E+03 -0.29126958426E+02  0.72508979001E+02  0.41381773628E+03  0.00000000000E+00 0.  1.
<mgrwt>
<rscale>  0 0.11619880E+04</rscale>
<asrwt>0</asrwt>
<pdfrwt beam="1">  1        1 0.25843422E+00 0.11619880E+04</pdfrwt>
<pdfrwt beam="2">  1       -1 0.30914811E-01 0.11619880E+04</pdfrwt>
<totfact> 0.47265337E+01</totfact>
</mgrwt>
</event>
<event>
 6    1  0.9364335E-007  0.2302017E+04  0.7818608E-02  0.8477126E-01
          2   -1    0    0  501    0  0.00000000000E+00  0.00000000000E+00  0.13517523127E+04  0.13517523127E+04  0.00000000000E+00 0. -1.
         -2   -1    0    0    0  501 -0.00000000000E+00 -0.00000000000E+00 -0.98007611976E+03  0.98007611976E+03  0.00000000000E+00 0.  1.
         23    2    1    2    0    0  0.28143700338E+03  0.48522978686E+03 -0.82992633876E+03  0.10057426972E+04  0.89921701295E+02 0.  0.
         13    1    3    3    0    0  0.19381938442E+03  0.31962497062E+03 -0.62355027950E+03  0.72700827139E+03  0.00000000000E+00 0. -1.
        -13    1    3    3    0    0  0.87617618961E+02  0.16560481625E+03 -0.20637605927E+03  0.27873442585E+03  0.00000000000E+00 0.  1.
         22    1    1    2    0    0 -0.28143700338E+03 -0.48522978686E+03  0.12016025317E+04  0.13260857352E+04  0.00000000000E+00 0.  1.
<mgrwt>
<rscale>  0 0.23020166E+04</rscale>
<asrwt>0</asrwt>
<pdfrwt beam="1">  1        2 0.20796189E+00 0.23020166E+04</pdfrwt>
<pdfrwt beam="2">  1       -2 0.15078094E+00 0.23020166E+04</pdfrwt>
<totfact> 0.41327891E+00</totfact>
</mgrwt>
</event>
<event>
 6    1  0.9364335E-007  0.2380623E+04  0.7818608E-02  0.8446794E-01
         -1   -1    0    0    0  501 -0.00000000000E+00  0.00000000000E+00  0.46597291635E+03  0.46597291635E+03  0.00000000000E+00 0.  1.
          1   -1    0    0  501    0  0.00000000000E+00 -0.00000000000E+00 -0.30406093352E+04  0.30406093352E+04  0.00000000000E+00 0. -1.
         23    2    1    2    0    0  0.65704669403E+03  0.80619013699E+03 -0.21360569643E+04  0.23778640258E+04  0.99222352918E+02 0.  0.
         11    1    3    3    0    0  0.41391879628E+03  0.55407528970E+03 -0.14995273944E+04  0.16513360055E+04  0.00000000000E+00 0. -1.
        -11    1    3    3    0    0  0.24312789776E+03  0.25211484730E+03 -0.63652956993E+03  0.72652802031E+03  0.00000000000E+00 0.  1.
         22    1    1    2    0    0 -0.65704669403E+03 -0.80619013699E+03 -0.43857945452E+03  0.11287182257E+04  0.00000000000E+00 0. -1.
<mgrwt>
<rscale>  0 0.23806231E+04</rscale>
<asrwt>0</asrwt>
<pdfrwt beam="1">  1        1 0.46778605E+00 0.23806231E+04</pdfrwt>
<pdfrwt beam="2">  1       -1 0.71688141E-01 0.23806231E+04</pdfrwt>
<totfact> 0.98452577E-01</totfact>
</mgrwt>
</event>
<event>
 6    1  0.9364335E-007  0.3997808E+04  0.7818608E-02  0.8004989E-01
         -2   -1    0    0    0  501 -0.00000000000E+00  0.00000000000E+00  0.75854494613E+03  0.75854494613E+03  0.00000000000E+00 0.  1.
          2   -1    0    0  501    0  0.00000000000E+00 -0.00000000000E+00 -0.52674757420E+04  0.52674757420E+04  0.00000000000E+00 0. -1.
         23    2    1    2    0    0 -0.79976172669E+03 -0.33077719656E+02 -0.50148114941E+04  0.50791161333E+04  0.91506391218E+02 0.  0.
         13    1    3    3    0    0 -0.55771299491E+03 -0.39540358109E+01 -0.37161471839E+04  0.37577665323E+04  0.00000000000E+00 0. -1.
        -13    1    3    3    0    0 -0.24204873177E+03 -0.29123683845E+02 -0.12986643102E+04  0.13213496010E+04  0.00000000000E+00 0.  1.
         22    1    1    2    0    0  0.79976172669E+03  0.33077719656E+02  0.50588069824E+03  0.94690455478E+03  0.00000000000E+00 0.  1.
<mgrwt>
<rscale>  0 0.39978080E+04</rscale>
<asrwt>0</asrwt>
<pdfrwt beam="1">  1        2 0.81038088E+00 0.39978080E+04</pdfrwt>
<pdfrwt beam="2">  1       -2 0.11669922E+00 0.39978080E+04</pdfrwt>
<totfact> 0.64722159E-03</totfact>
</mgrwt>
</event>
<event>
 6    1  0.9364335E-007  0.3044106E+04  0.7818608E-02  0.8231247E-01
         -2   -1    0    0    0  501 -0.00000000000E+00  0.00000000000E+00  0.91303546230E+03  0.91303546230E+03  0.00000000000E+00 0.  1.
          2   -1    0    0  501    0  0.00000000000E+00 -0.00000000000E+00 -0.25373002892E+04  0.25373002892E+04  0.00000000000E+00 0. -1.
         23    2    1    2    0    0 -0.43345556917E+03  0.37130124663E+03 -0.24104493952E+04  0.24788242891E+04  0.92494449901E+02 0.  0.
         13    1    3    3    0    0 -0.11057351122E+03  0.91652835561E+02 -0.44929530987E+03  0.47169165682E+03  0.00000000000E+00 0. -1.
        -13    1    3    3    0    0 -0.32288205795E+03  0.27964841107E+03 -0.19611540854E+04  0.20071326323E+04  0.00000000000E+00 0.  1.
         22    1    1    2    0    0  0.43345556917E+03 -0.37130124663E+03  0.78618456828E+03  0.97151146241E+03  0.00000000000E+00 0.  1.
<mgrwt>
<rscale>  0 0.30441059E+04</rscale>
<asrwt>0</asrwt>
<pdfrwt beam="1">  1        2 0.39035390E+00 0.30441059E+04</pdfrwt>
<pdfrwt beam="2">  1       -2 0.14046699E+00 0.30441059E+04</pdfrwt>
<totfact> 0.10054531E+00</totfact>
</mgrwt>
</event>
<event>
 6    1  0.1610387E-006  0.3902880E+04  0.7818608E-02  0.8024430E-01
         -2   -1    0    0    0  501 -0.00000000000E+00  0.00000000000E+00  0.13188133608E+04  0.13188133608E+04  0.00000000000E+00 0.  1.
          2   -1    0    0  501    0  0.00000000000E+00 -0.00000000000E+00 -0.28875344145E+04  0.28875344145E+04  0.00000000000E+00 0. -1.
         23    2    1    2    0    0  0.14172041732E+04  0.26936297835E+03  0.63008129239E+03  0.15765653052E+04  0.86785045159E+02 0.  0.
         11    1    3    3    0    0  0.90072680234E+03  0.18317084454E+03  0.44480684930E+03  0.10211334212E+04  0.00000000000E+00 0.  1.
        -11    1    3    3    0    0  0.51647737081E+03  0.86192133811E+02  0.18527444309E+03  0.55543188399E+03  0.00000000000E+00 0. -1.
         22    1    1    2    0    0 -0.14172041732E+04 -0.26936297835E+03 -0.21988023461E+04  0.26297824700E+04  0.00000000000E+00 0. -1.
<mgrwt>
<rscale>  0 0.39028805E+04</rscale>
<asrwt>0</asrwt>
<pdfrwt beam="1">  1        2 0.44423606E+00 0.39028805E+04</pdfrwt>
<pdfrwt beam="2">  1       -2 0.20289436E+00 0.39028805E+04</pdfrwt>
<totfact> 0.20691039E-01</totfact>
</mgrwt>
</event>
<event>
 6    1  0.9364335E-007  0.6365368E+03  0.7818608E-02  0.9832375E-01
          2   -1    0    0  501    0  0.00000000000E+00  0.00000000000E+00  0.12768374250E+03  0.12768374250E+03  0.00000000000E+00 0. -1.
         -2   -1    0    0    0  501 -0.00000000000E+00 -0.00000000000E+00 -0.79332562800E+03  0.79332562800E+03  0.00000000000E+00 0.  1.
         23    2    1    2    0    0  0.10415537370E+03  0.26068114516E+03 -0.14257813603E+03  0.32737759294E+03  0.89691483281E+02 0.  0.
         13    1    3    3    0    0 -0.10915159092E+02  0.53239182108E+02 -0.88559725567E+01  0.55063413074E+02  0.00000000000E+00 0. -1.
        -13    1    3    3    0    0  0.11507053279E+03  0.20744196305E+03 -0.13372216347E+03  0.27231417987E+03  0.00000000000E+00 0.  1.
         22    1    1    2    0    0 -0.10415537370E+03 -0.26068114516E+03 -0.52306374948E+03  0.59363177756E+03  0.00000000000E+00 0.  1.
<mgrwt>
<rscale>  0 0.63653683E+03</rscale>
<asrwt>0</asrwt>
<pdfrwt beam="1">  1        2 0.19643653E-01 0.63653683E+03</pdfrwt>
<pdfrwt beam="2">  1       -2 0.12205010E+00 0.63653683E+03</pdfrwt>
<totfact> 0.14965413E+02</totfact>
</mgrwt>
</event>
<event>
 6    1  0.9364335E-007  0.2043812E+04  0.7818608E-02  0.8586407E-01
         -1   -1    0    0    0  501 -0.00000000000E+00  0.00000000000E+00  0.51106378776E+03  0.51106378776E+03  0.00000000000E+00 0.  1.
          1   -1    0    0  501    0  0.00000000000E+00 -0.00000000000E+00 -0.20433687830E+04  0.20433687830E+04  0.00000000000E+00 0. -1.
         23    2    1    2    0    0 -0.60340427239E+03 -0.63153243228E+03 -0.14257914409E+04  0.16745035588E+04  0.90282924574E+02 0.  0.
         11    1    3    3    0    0 -0.42369913482E+03 -0.39240949469E+03 -0.98476223804E+03  0.11416053757E+04  0.00000000000E+00 0. -1.
        -11    1    3    3    0    0 -0.17970513756E+03 -0.23912293758E+03 -0.44102920283E+03  0.53289818305E+03  0.00000000000E+00 0.  1.
         22    1    1    2    0    0  0.60340427239E+03  0.63153243228E+03 -0.10651355440E+03  0.87992901204E+03  0.00000000000E+00 0.  1.
<mgrwt>
<rscale>  0 0.20438119E+04</rscale>
<asrwt>0</asrwt>
<pdfrwt beam="1">  1        1 0.31436443E+00 0.20438119E+04</pdfrwt>
<pdfrwt beam="2">  1       -1 0.78625198E-01 0.20438119E+04</pdfrwt>
<totfact> 0.41647675E+00</totfact>
</mgrwt>
</event>
<event>
 6    1  0.9364335E-007  0.6827855E+03  0.7818608E-02  0.9747133E-01
         -2   -1    0    0    0  501 -0.00000000000E+00  0.00000000000E+00  0.25911031764E+03  0.25911031764E+03  0.00000000000E+00 0.  1.
          2   -1    0    0  501    0  0.00000000000E+00 -0.00000000000E+00 -0.44980458816E+03  0.44980458816E+03  0.00000000000E+00 0. -1.
         23    2    1    2    0    0  0.16787339679E+03 -0.13289257074E+03  0.16990489548E+03  0.28954195576E+03  0.95524645664E+02 0.  0.
         13    1    3    3    0    0  0.13734825983E+03 -0.12918319762E+03  0.10058016197E+03  0.21370356106E+03  0.00000000000E+00 0. -1.
        -13    1    3    3    0    0  0.30525136958E+02 -0.37093731174E+01  0.69324733502E+02  0.75838394698E+02  0.00000000000E+00 0.  1.
         22    1    1    2    0    0 -0.16787339679E+03  0.13289257074E+03 -0.36059916600E+03  0.41937295004E+03  0.00000000000E+00 0. -1.
<mgrwt>
<rscale>  0 0.68278550E+03</rscale>
<asrwt>0</asrwt>
<pdfrwt beam="1">  1        2 0.69200706E-01 0.68278550E+03</pdfrwt>
<pdfrwt beam="2">  1       -2 0.39863126E-01 0.68278550E+03</pdfrwt>
<totfact> 0.41764972E+02</totfact>
</mgrwt>
</event>
<event>
 6    1  0.9364335E-007  0.1562127E+04  0.7818608E-02  0.8844158E-01
          2   -1    0    0  501    0  0.00000000000E+00  0.00000000000E+00  0.17317345459E+04  0.17317345459E+04  0.00000000000E+00 0. -1.
         -2   -1    0    0    0  501 -0.00000000000E+00 -0.00000000000E+00 -0.35228289359E+03  0.35228289359E+03  0.00000000000E+00 0.  1.
         23    2    1    2    0    0  0.75294279986E+02 -0.38048818582E+03  0.15923648026E+04  0.16415555793E+04  0.92943893048E+02 0.  0.
         11    1    3    3    0    0  0.12423976886E+02 -0.45989830253E+02  0.98585205378E+02  0.10949183717E+03  0.00000000000E+00 0.  1.
        -11    1    3    3    0    0  0.62870303100E+02 -0.33449835557E+03  0.14937795972E+04  0.15320637421E+04  0.00000000000E+00 0. -1.
         22    1    1    2    0    0 -0.75294279986E+02  0.38048818582E+03 -0.21291315028E+03  0.44246186018E+03  0.00000000000E+00 0.  1.
<mgrwt>
<rscale>  0 0.15621273E+04</rscale>
<asrwt>0</asrwt>
<pdfrwt beam="1">  1        2 0.26642069E+00 0.15621273E+04</pdfrwt>
<pdfrwt beam="2">  1       -2 0.54197369E-01 0.15621273E+04</pdfrwt>
<totfact> 0.29023878E+01</totfact>
</mgrwt>
</event>
<event>
 6    1  0.9364335E-007  0.1596420E+04  0.7818608E-02  0.8822750E-01
          2   -1    0    0  501    0  0.00000000000E+00  0.00000000000E+00  0.69547482413E+03  0.69547482413E+03  0.00000000000E+00 0. -1.
         -2   -1    0    0    0  501 -0.00000000000E+00 -0.00000000000E+00 -0.91612165429E+03  0.91612165429E+03  0.00000000000E+00 0.  1.
         23    2    1    2    0    0 -0.15621890909E+03 -0.45916383537E+03 -0.74733796245E+03  0.89560812368E+03  0.91455485417E+02 0.  0.
         11    1    3    3    0    0 -0.91498664936E+01 -0.15902269514E+03 -0.24629780935E+03  0.29331646479E+03  0.00000000000E+00 0. -1.
        -11    1    3    3    0    0 -0.14706904260E+03 -0.30014114023E+03 -0.50104015310E+03  0.60229165889E+03  0.00000000000E+00 0.  1.
         22    1    1    2    0    0  0.15621890909E+03  0.45916383537E+03  0.52669113230E+03  0.71598835473E+03  0.00000000000E+00 0. -1.
<mgrwt>
<rscale>  0 0.15964204E+04</rscale>
<asrwt>0</asrwt>
<pdfrwt beam="1">  1        2 0.10699613E+00 0.15964204E+04</pdfrwt>
<pdfrwt beam="2">  1       -2 0.14094179E+00 0.15964204E+04</pdfrwt>
<totfact> 0.13979158E+01</totfact>
</mgrwt>
</event>
<event>
 6    1  0.9364335E-007  0.3291159E+04  0.7818608E-02  0.8165149E-01
          1   -1    0    0  501    0  0.00000000000E+00  0.00000000000E+00  0.16995715132E+04  0.16995715132E+04  0.00000000000E+00 0. -1.
         -1   -1    0    0    0  501 -0.00000000000E+00 -0.00000000000E+00 -0.15933027326E+04  0.15933027326E+04  0.00000000000E+00 0.  1.
         23    2    1    2    0    0 -0.16434282443E+04  0.38713546739E+02  0.90142247823E+02  0.16489109865E+04  0.91796970117E+02 0.  0.
         13    1    3    3    0    0 -0.13088176436E+04  0.24314406220E+02  0.10817592546E+03  0.13135055560E+04  0.00000000000E+00 0. -1.
        -13    1    3    3    0    0 -0.33461060066E+03  0.14399140519E+02 -0.18033677635E+02  0.33540543057E+03  0.00000000000E+00 0.  1.
         22    1    1    2    0    0  0.16434282443E+04 -0.38713546739E+02  0.16126532721E+02  0.16439632593E+04  0.00000000000E+00 0. -1.
<mgrwt>
<rscale>  0 0.32911590E+04</rscale>
<asrwt>0</asrwt>
<pdfrwt beam="1">  1        1 0.26147254E+00 0.32911590E+04</pdfrwt>
<pdfrwt beam="2">  1       -1 0.24512350E+00 0.32911590E+04</pdfrwt>
<totfact> 0.29711564E-01</totfact>
</mgrwt>
</event>
<event>
 6    1  0.9364335E-007  0.3254554E+04  0.7818608E-02  0.8174556E-01
          4   -1    0    0  501    0  0.00000000000E+00  0.00000000000E+00  0.18952090305E+04  0.18952090305E+04  0.00000000000E+00 0. -1.
         -4   -1    0    0    0  501 -0.00000000000E+00 -0.00000000000E+00 -0.13972234656E+04  0.13972234656E+04  0.00000000000E+00 0.  1.
         23    2    1    2    0    0 -0.25357628561E+03 -0.63042954338E+03 -0.12452749243E+04  0.14214168695E+04  0.89296909694E+02 0.  0.
         11    1    3    3    0    0 -0.16035029509E+03 -0.35898846190E+03 -0.63218641072E+03  0.74447605120E+03  0.00000000000E+00 0.  1.
        -11    1    3    3    0    0 -0.93225990515E+02 -0.27144108148E+03 -0.61308851361E+03  0.67694081835E+03  0.00000000000E+00 0. -1.
         22    1    1    2    0    0  0.25357628561E+03  0.63042954338E+03  0.17432604892E+04  0.18710156266E+04  0.00000000000E+00 0. -1.
<mgrwt>
<rscale>  0 0.32545541E+04</rscale>
<asrwt>0</asrwt>
<pdfrwt beam="1">  1        4 0.29157062E+00 0.32545541E+04</pdfrwt>
<pdfrwt beam="2">  1       -4 0.21495746E+00 0.32545541E+04</pdfrwt>
<totfact> 0.60762795E-03</totfact>
</mgrwt>
</event>
<event>
 6    1  0.9364335E-007  0.1813191E+04  0.7818608E-02  0.8699316E-01
         -1   -1    0    0    0  501 -0.00000000000E+00  0.00000000000E+00  0.55065248257E+03  0.55065248257E+03  0.00000000000E+00 0.  1.
          1   -1    0    0  501    0  0.00000000000E+00 -0.00000000000E+00 -0.14926202072E+04  0.14926202072E+04  0.00000000000E+00 0. -1.
         23    2    1    2    0    0  0.29764746071E+03 -0.62907319561E+03  0.17878472168E+03  0.72402550209E+03  0.89004801370E+02 0.  0.
         13    1    3    3    0    0  0.13732195765E+03 -0.19890855601E+03  0.78443521812E+02  0.25411674447E+03  0.00000000000E+00 0.  1.
        -13    1    3    3    0    0  0.16032550306E+03 -0.43016463960E+03  0.10034119987E+03  0.46990875762E+03  0.00000000000E+00 0. -1.
         22    1    1    2    0    0 -0.29764746071E+03  0.62907319561E+03 -0.11207524464E+04  0.13192471877E+04  0.00000000000E+00 0. -1.
<mgrwt>
<rscale>  0 0.18131906E+04</rscale>
<asrwt>0</asrwt>
<pdfrwt beam="1">  1        1 0.22963388E+00 0.18131906E+04</pdfrwt>
<pdfrwt beam="2">  1       -1 0.84715767E-01 0.18131906E+04</pdfrwt>
<totfact> 0.86037303E+00</totfact>
</mgrwt>
</event>
<event>
 6    1  0.9364335E-007  0.2392901E+04  0.7818608E-02  0.8442166E-01
         -2   -1    0    0    0  501 -0.00000000000E+00  0.00000000000E+00  0.11107608504E+04  0.11107608504E+04  0.00000000000E+00 0.  1.
          2   -1    0    0  501    0  0.00000000000E+00 -0.00000000000E+00 -0.12887505851E+04  0.12887505851E+04  0.00000000000E+00 0. -1.
         23    2    1    2    0    0 -0.62971954761E+03 -0.94406070454E+03 -0.46242140526E+03  0.12295974653E+04  0.10138564018E+03 0.  0.
         13    1    3    3    0    0 -0.48120536564E+03 -0.79001876125E+03 -0.38689179152E+03  0.10026831530E+04  0.00000000000E+00 0. -1.
        -13    1    3    3    0    0 -0.14851418197E+03 -0.15404194329E+03 -0.75529613739E+02  0.22691431222E+03  0.00000000000E+00 0.  1.
         22    1    1    2    0    0  0.62971954761E+03  0.94406070454E+03  0.28443167065E+03  0.11699139702E+04  0.00000000000E+00 0.  1.
<mgrwt>
<rscale>  0 0.23929009E+04</rscale>
<asrwt>0</asrwt>
<pdfrwt beam="1">  1        2 0.19826932E+00 0.23929009E+04</pdfrwt>
<pdfrwt beam="2">  1       -2 0.17088628E+00 0.23929009E+04</pdfrwt>
<totfact> 0.31724528E+00</totfact>
</mgrwt>
</event>
<event>
 6    1  0.9364335E-007  0.1904822E+04  0.7818608E-02  0.8652460E-01
          1   -1    0    0  501    0  0.00000000000E+00  0.00000000000E+00  0.63661627460E+03  0.63661627460E+03  0.00000000000E+00 0. -1.
         -1   -1    0    0    0  501 -0.00000000000E+00 -0.00000000000E+00 -0.14248566603E+04  0.14248566603E+04  0.00000000000E+00 0.  1.
         23    2    1    2    0    0  0.78910339325E+03  0.16768877148E+02 -0.96769260657E+03  0.12520481638E+04  0.90720797575E+02 0.  0.
         11    1    3    3    0    0  0.57298784683E+03  0.17745351944E+02 -0.63670862440E+03  0.85675424862E+03  0.00000000000E+00 0.  1.
        -11    1    3    3    0    0  0.21611554641E+03 -0.97647479628E+00 -0.33098398217E+03  0.39529391515E+03  0.00000000000E+00 0. -1.
         22    1    1    2    0    0 -0.78910339325E+03 -0.16768877148E+02  0.17945222091E+03  0.80942477110E+03  0.00000000000E+00 0. -1.
<mgrwt>
<rscale>  0 0.19048222E+04</rscale>
<asrwt>0</asrwt>
<pdfrwt beam="1">  1        1 0.97940966E-01 0.19048222E+04</pdfrwt>
<pdfrwt beam="2">  1       -1 0.21920872E+00 0.19048222E+04</pdfrwt>
<totfact> 0.32719092E+00</totfact>
</mgrwt>
</event>
<event>
 6    1  0.9364335E-007  0.2199874E+04  0.7818608E-02  0.8518481E-01
          2   -1    0    0  501    0  0.00000000000E+00  0.00000000000E+00  0.10812329114E+04  0.10812329114E+04  0.00000000000E+00 0. -1.
         -2   -1    0    0    0  501 -0.00000000000E+00 -0.00000000000E+00 -0.11189646273E+04  0.11189646273E+04  0.00000000000E+00 0.  1.
         23    2    1    2    0    0  0.53869921313E+03 -0.26581365039E+01  0.93812822714E+03  0.10855197663E+04  0.89803588564E+02 0.  0.
         11    1    3    3    0    0  0.38398141851E+03  0.29545210678E+02  0.71460954256E+03  0.81177672272E+03  0.00000000000E+00 0.  1.
        -11    1    3    3    0    0  0.15471779462E+03 -0.32203347182E+02  0.22351868458E+03  0.27374304356E+03  0.00000000000E+00 0. -1.
         22    1    1    2    0    0 -0.53869921313E+03  0.26581365039E+01 -0.97585994303E+03  0.11146777724E+04  0.00000000000E+00 0.  1.
<mgrwt>
<rscale>  0 0.21998740E+04</rscale>
<asrwt>0</asrwt>
<pdfrwt beam="1">  1        2 0.16634352E+00 0.21998740E+04</pdfrwt>
<pdfrwt beam="2">  1       -2 0.17214840E+00 0.21998740E+04</pdfrwt>
<totfact> 0.42088266E+00</totfact>
</mgrwt>
</event>
<event>
 6    1  0.9364335E-007  0.3300100E+04  0.7818608E-02  0.8162870E-01
         -2   -1    0    0    0  501 -0.00000000000E+00  0.00000000000E+00  0.16852025972E+04  0.16852025972E+04  0.00000000000E+00 0.  1.
          2   -1    0    0  501    0  0.00000000000E+00 -0.00000000000E+00 -0.16156310642E+04  0.16156310642E+04  0.00000000000E+00 0. -1.
         23    2    1    2    0    0  0.13803032431E+04 -0.61333922199E+03 -0.62632393599E+03  0.16377965157E+04  0.93132754211E+02 0.  0.
         11    1    3    3    0    0  0.92213696291E+03 -0.42150292175E+03 -0.46591337932E+03  0.11158299908E+04  0.00000000000E+00 0.  1.
        -11    1    3    3    0    0  0.45816628022E+03 -0.19183630024E+03 -0.16041055667E+03  0.52196652490E+03  0.00000000000E+00 0. -1.
         22    1    1    2    0    0 -0.13803032431E+04  0.61333922199E+03  0.69589546893E+03  0.16630371457E+04  0.00000000000E+00 0.  1.
<mgrwt>
<rscale>  0 0.33001004E+04</rscale>
<asrwt>0</asrwt>
<pdfrwt beam="1">  1        2 0.24855862E+00 0.33001004E+04</pdfrwt>
<pdfrwt beam="2">  1       -2 0.25926194E+00 0.33001004E+04</pdfrwt>
<totfact> 0.51463328E-01</totfact>
</mgrwt>
</event>
<event>
 6    1  0.9364335E-007  0.2577818E+04  0.7818608E-02  0.8375775E-01
          1   -1    0    0  501    0  0.00000000000E+00  0.00000000000E+00  0.16917418206E+04  0.16917418206E+04  0.00000000000E+00 0. -1.
         -1   -1    0    0    0  501 -0.00000000000E+00 -0.00000000000E+00 -0.98199798102E+03  0.98199798102E+03  0.00000000000E+00 0.  1.
         23    2    1    2    0    0  0.87651544079E+03  0.62013681782E+03  0.10919053988E+04  0.15340484188E+04  0.90543692989E+02 0.  0.
         13    1    3    3    0    0  0.44366996502E+03  0.32223456929E+03  0.49380380697E+03  0.73791622511E+03  0.00000000000E+00 0. -1.
        -13    1    3    3    0    0  0.43284547578E+03  0.29790224853E+03  0.59810159186E+03  0.79613219365E+03  0.00000000000E+00 0.  1.
         22    1    1    2    0    0 -0.87651544079E+03 -0.62013681782E+03 -0.38216155927E+03  0.11396913829E+04  0.00000000000E+00 0.  1.
<mgrwt>
<rscale>  0 0.25778185E+04</rscale>
<asrwt>0</asrwt>
<pdfrwt beam="1">  1        1 0.26026797E+00 0.25778185E+04</pdfrwt>
<pdfrwt beam="2">  1       -1 0.15107661E+00 0.25778185E+04</pdfrwt>
<totfact> 0.14580686E+00</totfact>
</mgrwt>
</event>
<event>
 6    1  0.9364335E-007  0.3219561E+04  0.7818608E-02  0.8183670E-01
          1   -1    0    0  501    0  0.00000000000E+00  0.00000000000E+00  0.22381084000E+04  0.22381084000E+04  0.00000000000E+00 0. -1.
         -1   -1    0    0    0  501 -0.00000000000E+00 -0.00000000000E+00 -0.11578495041E+04  0.11578495041E+04  0.00000000000E+00 0.  1.
         23    2    1    2    0    0  0.15265428121E+04 -0.34483828942E+03  0.14876703267E+03  0.15747156098E+04  0.91385003114E+02 0.  0.
         13    1    3    3    0    0  0.36393938731E+03 -0.10259123498E+03  0.21755729038E+01  0.37812904180E+03  0.00000000000E+00 0. -1.
        -13    1    3    3    0    0  0.11626034248E+04 -0.24224705444E+03  0.14659145976E+03  0.11965865680E+04  0.00000000000E+00 0.  1.
         22    1    1    2    0    0 -0.15265428121E+04  0.34483828942E+03  0.93149186329E+03  0.18212422942E+04  0.00000000000E+00 0. -1.
<mgrwt>
<rscale>  0 0.32195607E+04</rscale>
<asrwt>0</asrwt>
<pdfrwt beam="1">  1        1 0.34432437E+00 0.32195607E+04</pdfrwt>
<pdfrwt beam="2">  1       -1 0.17813069E+00 0.32195607E+04</pdfrwt>
<totfact> 0.36786722E-01</totfact>
</mgrwt>
</event>
<event>
 6    1  0.9364335E-007  0.5839666E+03  0.7818608E-02  0.9939240E-01
         -1   -1    0    0    0  501 -0.00000000000E+00  0.00000000000E+00  0.66645012071E+02  0.66645012071E+02  0.00000000000E+00 0.  1.
          1   -1    0    0  501    0  0.00000000000E+00 -0.00000000000E+00 -0.12792290768E+04  0.12792290768E+04  0.00000000000E+00 0. -1.
         23    2    1    2    0    0 -0.90431005218E+02 -0.80754501907E+02 -0.12153003137E+04  0.12246040007E+04  0.89448587041E+02 0.  0.
         13    1    3    3    0    0  0.77254088191E+01 -0.42203435025E+02 -0.45630810046E+03  0.45832073313E+03  0.00000000000E+00 0. -1.
        -13    1    3    3    0    0 -0.98156414037E+02 -0.38551066882E+02 -0.75899221323E+03  0.76628326754E+03  0.00000000000E+00 0.  1.
         22    1    1    2    0    0  0.90431005218E+02  0.80754501907E+02  0.27162489624E+01  0.12127008820E+03  0.00000000000E+00 0.  1.
<mgrwt>
<rscale>  0 0.58396657E+03</rscale>
<asrwt>0</asrwt>
<pdfrwt beam="1">  1        1 0.19680444E+00 0.58396657E+03</pdfrwt>
<pdfrwt beam="2">  1       -1 0.10253080E-01 0.58396657E+03</pdfrwt>
<totfact> 0.57979965E+02</totfact>
</mgrwt>
</event>
<event>
 6    1  0.9364335E-007  0.2093017E+04  0.7818608E-02  0.8564326E-01
         -2   -1    0    0    0  501 -0.00000000000E+00  0.00000000000E+00  0.29540063365E+03  0.29540063365E+03  0.00000000000E+00 0.  1.
          2   -1    0    0  501    0  0.00000000000E+00 -0.00000000000E+00 -0.37074388136E+04  0.37074388136E+04  0.00000000000E+00 0. -1.
         23    2    1    2    0    0 -0.36064834934E+03 -0.90295214206E+03 -0.98077729153E+03  0.13843629226E+04  0.95638920321E+02 0.  0.
         13    1    3    3    0    0 -0.27237953609E+03 -0.63709851645E+03 -0.75341522075E+03  0.10235817633E+04  0.00000000000E+00 0.  1.
        -13    1    3    3    0    0 -0.88268813252E+02 -0.26585362561E+03 -0.22736207078E+03  0.36078115926E+03  0.00000000000E+00 0. -1.
         22    1    1    2    0    0  0.36064834934E+03  0.90295214206E+03 -0.24312608884E+04  0.26184765247E+04  0.00000000000E+00 0. -1.
<mgrwt>
<rscale>  0 0.20930167E+04</rscale>
<asrwt>0</asrwt>
<pdfrwt beam="1">  1        2 0.57037523E+00 0.20930167E+04</pdfrwt>
<pdfrwt beam="2">  1       -2 0.45446249E-01 0.20930167E+04</pdfrwt>
<totfact> 0.24552465E+00</totfact>
</mgrwt>
</event>
<event>
 6    1  0.9364335E-007  0.4128417E+04  0.7818608E-02  0.7979130E-01
         -2   -1    0    0    0  501 -0.00000000000E+00  0.00000000000E+00  0.18388103023E+04  0.18388103023E+04  0.00000000000E+00 0.  1.
          2   -1    0    0  501    0  0.00000000000E+00 -0.00000000000E+00 -0.23172357510E+04  0.23172357510E+04  0.00000000000E+00 0. -1.
         23    2    1    2    0    0  0.12646566956E+04 -0.75132226904E+03  0.12171107399E+04  0.19113445862E+04  0.89654136503E+02 0.  0.
         11    1    3    3    0    0  0.41274647248E+03 -0.29173350331E+03  0.39875869194E+03  0.64379855692E+03  0.00000000000E+00 0. -1.
        -11    1    3    3    0    0  0.85191022314E+03 -0.45958876573E+03  0.81835204792E+03  0.12675460292E+04  0.00000000000E+00 0.  1.
         22    1    1    2    0    0 -0.12646566956E+04  0.75132226904E+03 -0.16955361886E+04  0.22447014671E+04  0.00000000000E+00 0. -1.
<mgrwt>
<rscale>  0 0.41284171E+04</rscale>
<asrwt>0</asrwt>
<pdfrwt beam="1">  1        2 0.35649780E+00 0.41284171E+04</pdfrwt>
<pdfrwt beam="2">  1       -2 0.28289390E+00 0.41284171E+04</pdfrwt>
<totfact> 0.13994211E-01</totfact>
</mgrwt>
</event>
<event>
 6    1  0.9364335E-007  0.1670998E+04  0.7818608E-02  0.8778080E-01
          1   -1    0    0  501    0  0.00000000000E+00  0.00000000000E+00  0.13116548696E+04  0.13116548696E+04  0.00000000000E+00 0. -1.
         -1   -1    0    0    0  501 -0.00000000000E+00 -0.00000000000E+00 -0.53219685858E+03  0.53219685858E+03  0.00000000000E+00 0.  1.
         23    2    1    2    0    0 -0.44004392885E+03 -0.69152426436E+02  0.11675516013E+04  0.12530578959E+04  0.92502061141E+02 0.  0.
         11    1    3    3    0    0 -0.41164700785E+03 -0.87868210889E+02  0.10831062225E+04  0.11620211576E+04  0.00000000000E+00 0.  1.
        -11    1    3    3    0    0 -0.28396921004E+02  0.18715784452E+02  0.84445378824E+02  0.91036738270E+02  0.00000000000E+00 0. -1.
         22    1    1    2    0    0  0.44004392885E+03  0.69152426436E+02 -0.38809359031E+03  0.59079383226E+03  0.00000000000E+00 0.  1.
<mgrwt>
<rscale>  0 0.16709980E+04</rscale>
<asrwt>0</asrwt>
<pdfrwt beam="1">  1        1 0.20179306E+00 0.16709980E+04</pdfrwt>
<pdfrwt beam="2">  1       -1 0.81876440E-01 0.16709980E+04</pdfrwt>
<totfact> 0.12565528E+01</totfact>
</mgrwt>
</event>
<event>
 6    1  0.9364335E-007  0.2892417E+04  0.7818608E-02  0.8275137E-01
         -1   -1    0    0    0  501 -0.00000000000E+00  0.00000000000E+00  0.10983334547E+04  0.10983334547E+04  0.00000000000E+00 0.  1.
          1   -1    0    0  501    0  0.00000000000E+00 -0.00000000000E+00 -0.19042663954E+04  0.19042663954E+04  0.00000000000E+00 0. -1.
         23    2    1    2    0    0  0.88535200315E+03  0.47524475189E+03  0.67432915351E+03  0.12134990672E+04  0.90301910989E+02 0.  0.
         11    1    3    3    0    0  0.76966708764E+03  0.42618298320E+03  0.62162286354E+03  0.10772345824E+04  0.00000000000E+00 0.  1.
        -11    1    3    3    0    0  0.11568491551E+03  0.49061768682E+02  0.52706289967E+02  0.13626448483E+03  0.00000000000E+00 0. -1.
         22    1    1    2    0    0 -0.88535200315E+03 -0.47524475189E+03 -0.14802620943E+04  0.17891007829E+04  0.00000000000E+00 0. -1.
<mgrwt>
<rscale>  0 0.28924173E+04</rscale>
<asrwt>0</asrwt>
<pdfrwt beam="1">  1        1 0.29296406E+00 0.28924173E+04</pdfrwt>
<pdfrwt beam="2">  1       -1 0.16897438E+00 0.28924173E+04</pdfrwt>
<totfact> 0.74429835E-01</totfact>
</mgrwt>
</event>
<event>
 6    1  0.9364335E-007  0.6066214E+04  0.7818608E-02  0.7682246E-01
         -2   -1    0    0    0  501 -0.00000000000E+00  0.00000000000E+00  0.29702846612E+04  0.29702846612E+04  0.00000000000E+00 0.  1.
          2   -1    0    0  501    0  0.00000000000E+00 -0.00000000000E+00 -0.30972577268E+04  0.30972577268E+04  0.00000000000E+00 0. -1.
         23    2    1    2    0    0 -0.83409177835E+03 -0.12309185722E+04 -0.27069426687E+04  0.30897726220E+04  0.91030863123E+02 0.  0.
         13    1    3    3    0    0 -0.47248839313E+03 -0.62071674940E+03 -0.14487051812E+04  0.16453817997E+04  0.00000000000E+00 0. -1.
        -13    1    3    3    0    0 -0.36160338521E+03 -0.61020182278E+03 -0.12582374875E+04  0.14443908224E+04  0.00000000000E+00 0.  1.
         22    1    1    2    0    0  0.83409177835E+03  0.12309185722E+04  0.25799696031E+04  0.29777697660E+04  0.00000000000E+00 0.  1.
<mgrwt>
<rscale>  0 0.60662137E+04</rscale>
<asrwt>0</asrwt>
<pdfrwt beam="1">  1        2 0.47650119E+00 0.60662137E+04</pdfrwt>
<pdfrwt beam="2">  1       -2 0.45696687E+00 0.60662137E+04</pdfrwt>
<totfact> 0.31748140E-03</totfact>
</mgrwt>
</event>
<event>
 6    1  0.9364335E-007  0.1457486E+04  0.7818608E-02  0.8913227E-01
         -3   -1    0    0    0  501 -0.00000000000E+00  0.00000000000E+00  0.20724353972E+03  0.20724353972E+03  0.00000000000E+00 0.  1.
          3   -1    0    0  501    0  0.00000000000E+00 -0.00000000000E+00 -0.25625247601E+04  0.25625247601E+04  0.00000000000E+00 0. -1.
         23    2    1    2    0    0 -0.20975263165E+03 -0.55095293809E+02 -0.24986540451E+04  0.25097924840E+04  0.93566113970E+02 0.  0.
         11    1    3    3    0    0 -0.82491771482E+02 -0.64069086947E+02 -0.13626411081E+04  0.13666384049E+04  0.00000000000E+00 0.  1.
        -11    1    3    3    0    0 -0.12726086017E+03  0.89737931378E+01 -0.11360129370E+04  0.11431540791E+04  0.00000000000E+00 0. -1.
         22    1    1    2    0    0  0.20975263165E+03  0.55095293809E+02  0.14337282480E+03  0.25997581575E+03  0.00000000000E+00 0.  1.
<mgrwt>
<rscale>  0 0.14574865E+04</rscale>
<asrwt>0</asrwt>
<pdfrwt beam="1">  1        3 0.39423457E+00 0.14574865E+04</pdfrwt>
<pdfrwt beam="2">  1       -3 0.31883622E-01 0.14574865E+04</pdfrwt>
<totfact> 0.29607032E-01</totfact>
</mgrwt>
</event>
<event>
 6    1  0.9364335E-007  0.1334762E+04  0.7818608E-02  0.9002444E-01
          1   -1    0    0  501    0  0.00000000000E+00  0.00000000000E+00  0.10519113578E+04  0.10519113578E+04  0.00000000000E+00 0. -1.
         -1   -1    0    0    0  501 -0.00000000000E+00 -0.00000000000E+00 -0.42341748517E+03  0.42341748517E+03  0.00000000000E+00 0.  1.
         23    2    1    2    0    0  0.41742781809E+03 -0.15584402559E+03  0.86039759806E+03  0.97302148530E+03  0.89182063617E+02 0.  0.
         11    1    3    3    0    0  0.27687027851E+03 -0.14295758398E+03  0.55244287430E+03  0.63426110657E+03  0.00000000000E+00 0.  1.
        -11    1    3    3    0    0  0.14055753958E+03 -0.12886441617E+02  0.30795472376E+03  0.33876037873E+03  0.00000000000E+00 0. -1.
         22    1    1    2    0    0 -0.41742781809E+03  0.15584402559E+03 -0.23190372548E+03  0.50230735762E+03  0.00000000000E+00 0.  1.
<mgrwt>
<rscale>  0 0.13347624E+04</rscale>
<asrwt>0</asrwt>
<pdfrwt beam="1">  1        1 0.16183252E+00 0.13347624E+04</pdfrwt>
<pdfrwt beam="2">  1       -1 0.65141152E-01 0.13347624E+04</pdfrwt>
<totfact> 0.32295352E+01</totfact>
</mgrwt>
</event>
<event>
 6    1  0.9364335E-007  0.6275239E+04  0.7818608E-02  0.7657182E-01
         -2   -1    0    0    0  501 -0.00000000000E+00  0.00000000000E+00  0.30606294646E+04  0.30606294646E+04  0.00000000000E+00 0.  1.
          2   -1    0    0  501    0  0.00000000000E+00 -0.00000000000E+00 -0.32165459798E+04  0.32165459798E+04  0.00000000000E+00 0. -1.
         23    2    1    2    0    0  0.23048548157E+04 -0.12893511444E+04 -0.17713328938E+04  0.31813149548E+04  0.91446847236E+02 0.  0.
         13    1    3    3    0    0  0.54623011414E+03 -0.33184806403E+03 -0.39072516591E+03  0.74910388497E+03  0.00000000000E+00 0. -1.
        -13    1    3    3    0    0  0.17586247016E+04 -0.95750308039E+03 -0.13806077279E+04  0.24322110698E+04  0.00000000000E+00 0.  1.
         22    1    1    2    0    0 -0.23048548157E+04  0.12893511444E+04  0.16154163786E+04  0.30958604897E+04  0.00000000000E+00 0.  1.
<mgrwt>
<rscale>  0 0.62752388E+04</rscale>
<asrwt>0</asrwt>
<pdfrwt beam="1">  1        2 0.49485323E+00 0.62752388E+04</pdfrwt>
<pdfrwt beam="2">  1       -2 0.47086607E+00 0.62752388E+04</pdfrwt>
<totfact> 0.21241671E-03</totfact>
</mgrwt>
</event>
<event>
 6    1  0.9364335E-007  0.1036657E+04  0.7818608E-02  0.9269230E-01
          1   -1    0    0  501    0  0.00000000000E+00  0.00000000000E+00  0.10641217249E+04  0.10641217249E+04  0.00000000000E+00 0. -1.
         -1   -1    0    0    0  501 -0.00000000000E+00 -0.00000000000E+00 -0.25247506629E+03  0.25247506629E+03  0.00000000000E+00 0.  1.
         23    2    1    2    0    0  0.28778838277E+03 -0.37631005905E+03  0.66369483133E+03  0.82028926855E+03  0.89175339421E+02 0.  0.
         11    1    3    3    0    0  0.12875520762E+03 -0.11297480080E+03  0.19379100469E+03  0.25864292490E+03  0.00000000000E+00 0. -1.
        -11    1    3    3    0    0  0.15903317515E+03 -0.26333525825E+03  0.46990382665E+03  0.56164634365E+03  0.00000000000E+00 0.  1.
         22    1    1    2    0    0 -0.28778838277E+03  0.37631005905E+03  0.14795182723E+03  0.49630752259E+03  0.00000000000E+00 0. -1.
<mgrwt>
<rscale>  0 0.10366566E+04</rscale>
<asrwt>0</asrwt>
<pdfrwt beam="1">  1        1 0.16371103E+00 0.10366566E+04</pdfrwt>
<pdfrwt beam="2">  1       -1 0.38842318E-01 0.10366566E+04</pdfrwt>
<totfact> 0.86716666E+01</totfact>
</mgrwt>
</event>
<event>
 6    1  0.9364335E-007  0.2883369E+04  0.7818608E-02  0.8277843E-01
         -2   -1    0    0    0  501 -0.00000000000E+00  0.00000000000E+00  0.10359311797E+04  0.10359311797E+04  0.00000000000E+00 0.  1.
          2   -1    0    0  501    0  0.00000000000E+00 -0.00000000000E+00 -0.20063635116E+04  0.20063635116E+04  0.00000000000E+00 0. -1.
         23    2    1    2    0    0 -0.29475460017E+03 -0.12032330350E+04  0.28922901968E+03  0.12755471905E+04  0.93365938721E+02 0.  0.
         13    1    3    3    0    0 -0.20639796046E+03 -0.68298865782E+03  0.19317508143E+03  0.73918214053E+03  0.00000000000E+00 0.  1.
        -13    1    3    3    0    0 -0.88356639708E+02 -0.52024437719E+03  0.96053938252E+02  0.53636504998E+03  0.00000000000E+00 0. -1.
         22    1    1    2    0    0  0.29475460017E+03  0.12032330350E+04 -0.12596613516E+04  0.17667475008E+04  0.00000000000E+00 0. -1.
<mgrwt>
<rscale>  0 0.28833692E+04</rscale>
<asrwt>0</asrwt>
<pdfrwt beam="1">  1        2 0.30867131E+00 0.28833692E+04</pdfrwt>
<pdfrwt beam="2">  1       -2 0.15937403E+00 0.28833692E+04</pdfrwt>
<totfact> 0.14582496E+00</totfact>
</mgrwt>
</event>
<event>
 6    1  0.9364335E-007  0.8193980E+03  0.7818608E-02  0.9532356E-01
          1   -1    0    0  501    0  0.00000000000E+00  0.00000000000E+00  0.34265857108E+03  0.34265857108E+03  0.00000000000E+00 0. -1.
         -1   -1    0    0    0  501 -0.00000000000E+00 -0.00000000000E+00 -0.48985569366E+03  0.48985569366E+03  0.00000000000E+00 0.  1.
         23    2    1    2    0    0  0.24446336841E+00 -0.40301989940E+03 -0.32748078638E+02  0.41355879845E+03  0.86794838816E+02 0.  0.
         13    1    3    3    0    0 -0.33498593761E+02 -0.13908569198E+03 -0.35739800223E+02  0.14745954977E+03  0.00000000000E+00 0.  1.
        -13    1    3    3    0    0  0.33743057130E+02 -0.26393420742E+03  0.29917215853E+01  0.26609924868E+03  0.00000000000E+00 0. -1.
         22    1    1    2    0    0 -0.24446336841E+00  0.40301989940E+03 -0.11444904394E+03  0.41895546629E+03  0.00000000000E+00 0.  1.
<mgrwt>
<rscale>  0 0.81939795E+03</rscale>
<asrwt>0</asrwt>
<pdfrwt beam="1">  1        1 0.52716703E-01 0.81939795E+03</pdfrwt>
<pdfrwt beam="2">  1       -1 0.75362414E-01 0.81939795E+03</pdfrwt>
<totfact> 0.13189318E+02</totfact>
</mgrwt>
</event>
<event>
 6    1  0.9364335E-007  0.1139656E+04  0.7818608E-02  0.9167379E-01
          1   -1    0    0  501    0  0.00000000000E+00  0.00000000000E+00  0.26782974186E+03  0.26782974186E+03  0.00000000000E+00 0. -1.
         -1   -1    0    0    0  501 -0.00000000000E+00 -0.00000000000E+00 -0.12123526884E+04  0.12123526884E+04  0.00000000000E+00 0.  1.
         23    2    1    2    0    0 -0.18506501575E+03 -0.17863907112E+03  0.17977822515E+03  0.32683334935E+03  0.91317305174E+02 0.  0.
         13    1    3    3    0    0 -0.13458518294E+03 -0.68787084168E+02  0.86594897838E+02  0.17419388837E+03  0.00000000000E+00 0. -1.
        -13    1    3    3    0    0 -0.50479832807E+02 -0.10985198695E+03  0.93183327313E+02  0.15263946098E+03  0.00000000000E+00 0.  1.
         22    1    1    2    0    0  0.18506501575E+03  0.17863907112E+03 -0.11243011717E+04  0.11533490809E+04  0.00000000000E+00 0.  1.
<mgrwt>
<rscale>  0 0.11396563E+04</rscale>
<asrwt>0</asrwt>
<pdfrwt beam="1">  1        1 0.41204575E-01 0.11396563E+04</pdfrwt>
<pdfrwt beam="2">  1       -1 0.18651580E+00 0.11396563E+04</pdfrwt>
<totfact> 0.18897778E+01</totfact>
</mgrwt>
</event>
<event>
 6    1  0.9364335E-007  0.2957499E+04  0.7818608E-02  0.8255973E-01
         -1   -1    0    0    0  501 -0.00000000000E+00  0.00000000000E+00  0.79044745374E+03  0.79044745374E+03  0.00000000000E+00 0.  1.
          1   -1    0    0  501    0  0.00000000000E+00 -0.00000000000E+00 -0.27664071068E+04  0.27664071068E+04  0.00000000000E+00 0. -1.
         23    2    1    2    0    0  0.40603616183E+03 -0.66087482845E+03  0.52326005459E+03  0.94003969305E+03  0.90844021165E+02 0.  0.
         13    1    3    3    0    0  0.14081800240E+03 -0.15545114302E+03  0.12721718472E+03  0.24531404313E+03  0.00000000000E+00 0.  1.
        -13    1    3    3    0    0  0.26521815943E+03 -0.50542368543E+03  0.39604286987E+03  0.69472564992E+03  0.00000000000E+00 0. -1.
         22    1    1    2    0    0 -0.40603616183E+03  0.66087482845E+03 -0.24992197077E+04  0.26168148675E+04  0.00000000000E+00 0. -1.
<mgrwt>
<rscale>  0 0.29574986E+04</rscale>
<asrwt>0</asrwt>
<pdfrwt beam="1">  1        1 0.42560109E+00 0.29574986E+04</pdfrwt>
<pdfrwt beam="2">  1       -1 0.12160730E+00 0.29574986E+04</pdfrwt>
<totfact> 0.45038530E-01</totfact>
</mgrwt>
</event>
<event>
 6    1  0.9364335E-007  0.6594397E+03  0.7818608E-02  0.9789226E-01
          2   -1    0    0  501    0  0.00000000000E+00  0.00000000000E+00  0.32055787256E+03  0.32055787256E+03  0.00000000000E+00 0. -1.
         -2   -1    0    0    0  501 -0.00000000000E+00 -0.00000000000E+00 -0.33914365277E+03  0.33914365277E+03  0.00000000000E+00 0.  1.
         23    2    1    2    0    0 -0.25880029012E+03 -0.12949990420E+03  0.13461677998E+03  0.33225864512E+03  0.92338044429E+02 0.  0.
         11    1    3    3    0    0 -0.11814282740E+03 -0.41876492366E+02  0.10585606609E+03  0.16406363097E+03  0.00000000000E+00 0.  1.
        -11    1    3    3    0    0 -0.14065746272E+03 -0.87623411832E+02  0.28760713888E+02  0.16819501415E+03  0.00000000000E+00 0. -1.
         22    1    1    2    0    0  0.25880029012E+03  0.12949990420E+03 -0.15320256018E+03  0.32744288021E+03  0.00000000000E+00 0.  1.
<mgrwt>
<rscale>  0 0.65943966E+03</rscale>
<asrwt>0</asrwt>
<pdfrwt beam="1">  1        2 0.49316596E-01 0.65943966E+03</pdfrwt>
<pdfrwt beam="2">  1       -2 0.52175946E-01 0.65943966E+03</pdfrwt>
<totfact> 0.35692286E+02</totfact>
</mgrwt>
</event>
<event>
 6    1  0.9364335E-007  0.2592740E+04  0.7818608E-02  0.8370671E-01
         -2   -1    0    0    0  501 -0.00000000000E+00  0.00000000000E+00  0.76417652512E+03  0.76417652512E+03  0.00000000000E+00 0.  1.
          2   -1    0    0  501    0  0.00000000000E+00 -0.00000000000E+00 -0.21991982961E+04  0.21991982961E+04  0.00000000000E+00 0. -1.
         23    2    1    2    0    0  0.10925158485E+04  0.33562571975E+03 -0.24397117744E+02  0.11478590776E+04  0.10368095192E+03 0.  0.
         11    1    3    3    0    0  0.99456541478E+03  0.28908714355E+03 -0.48141698319E+02  0.10368458728E+04  0.00000000000E+00 0. -1.
        -11    1    3    3    0    0  0.97950433688E+02  0.46538576193E+02  0.23744580575E+02  0.11101320480E+03  0.00000000000E+00 0.  1.
         22    1    1    2    0    0 -0.10925158485E+04 -0.33562571975E+03 -0.14106246532E+04  0.18155157436E+04  0.00000000000E+00 0. -1.
<mgrwt>
<rscale>  0 0.25927404E+04</rscale>
<asrwt>0</asrwt>
<pdfrwt beam="1">  1        2 0.33833820E+00 0.25927404E+04</pdfrwt>
<pdfrwt beam="2">  1       -2 0.11756562E+00 0.25927404E+04</pdfrwt>
<totfact> 0.25555960E+00</totfact>
</mgrwt>
</event>
<event>
 6    1  0.9364335E-007  0.1187075E+04  0.7818608E-02  0.9124245E-01
         -2   -1    0    0    0  501 -0.00000000000E+00  0.00000000000E+00  0.15873604439E+03  0.15873604439E+03  0.00000000000E+00 0.  1.
          2   -1    0    0  501    0  0.00000000000E+00 -0.00000000000E+00 -0.22193259023E+04  0.22193259023E+04  0.00000000000E+00 0. -1.
         23    2    1    2    0    0  0.19030189610E+03  0.34292761319E+03 -0.15234471719E+03  0.42993113059E+03  0.88417784659E+02 0.  0.
         13    1    3    3    0    0  0.92428333774E+02  0.93904659399E+02 -0.74054979120E+02  0.15114635911E+03  0.00000000000E+00 0. -1.
        -13    1    3    3    0    0  0.97873562321E+02  0.24902295379E+03 -0.78289738071E+02  0.27878477147E+03  0.00000000000E+00 0.  1.
         22    1    1    2    0    0 -0.19030189610E+03 -0.34292761319E+03 -0.19082451407E+04  0.19481308161E+04  0.00000000000E+00 0. -1.
<mgrwt>
<rscale>  0 0.11870754E+04</rscale>
<asrwt>0</asrwt>
<pdfrwt beam="1">  1        2 0.34143477E+00 0.11870754E+04</pdfrwt>
<pdfrwt beam="2">  1       -2 0.24420929E-01 0.11870754E+04</pdfrwt>
<totfact> 0.74692618E+01</totfact>
</mgrwt>
</event>
<event>
 6    1  0.9364335E-007  0.3362229E+04  0.7818608E-02  0.8147239E-01
         -2   -1    0    0    0  501 -0.00000000000E+00  0.00000000000E+00  0.12322671012E+04  0.12322671012E+04  0.00000000000E+00 0.  1.
          2   -1    0    0  501    0  0.00000000000E+00 -0.00000000000E+00 -0.22934529659E+04  0.22934529659E+04  0.00000000000E+00 0. -1.
         23    2    1    2    0    0  0.10017372925E+04  0.22798486331E+03 -0.19247727148E+04  0.21836183762E+04  0.89356076792E+02 0.  0.
         11    1    3    3    0    0  0.13512432826E+03  0.40105415608E+01 -0.22203302065E+03  0.25994870800E+03  0.00000000000E+00 0.  1.
        -11    1    3    3    0    0  0.86661296423E+03  0.22397432175E+03 -0.17027396941E+04  0.19236696682E+04  0.00000000000E+00 0. -1.
         22    1    1    2    0    0 -0.10017372925E+04 -0.22798486331E+03  0.86358685011E+03  0.13421016909E+04  0.00000000000E+00 0.  1.
<mgrwt>
<rscale>  0 0.33622294E+04</rscale>
<asrwt>0</asrwt>
<pdfrwt beam="1">  1        2 0.35283892E+00 0.33622294E+04</pdfrwt>
<pdfrwt beam="2">  1       -2 0.18957955E+00 0.33622294E+04</pdfrwt>
<totfact> 0.59279548E-01</totfact>
</mgrwt>
</event>
<event>
 6    1  0.9364335E-007  0.2365027E+04  0.7818608E-02  0.8452714E-01
          1   -1    0    0  501    0  0.00000000000E+00  0.00000000000E+00  0.18936597307E+04  0.18936597307E+04  0.00000000000E+00 0. -1.
         -1   -1    0    0    0  501 -0.00000000000E+00 -0.00000000000E+00 -0.73843148435E+03  0.73843148435E+03  0.00000000000E+00 0.  1.
         23    2    1    2    0    0 -0.10651880288E+03  0.45169227511E+03 -0.62988871615E+03  0.78763608234E+03  0.90766936207E+02 0.  0.
         13    1    3    3    0    0 -0.10913127549E+03  0.36613031242E+03 -0.55568627819E+03  0.67435026561E+03  0.00000000000E+00 0. -1.
        -13    1    3    3    0    0  0.26124726132E+01  0.85561962689E+02 -0.74202437969E+02  0.11328581673E+03  0.00000000000E+00 0.  1.
         22    1    1    2    0    0  0.10651880288E+03 -0.45169227511E+03  0.17851169625E+04  0.18444551327E+04  0.00000000000E+00 0. -1.
<mgrwt>
<rscale>  0 0.23650268E+04</rscale>
<asrwt>0</asrwt>
<pdfrwt beam="1">  1        1 0.29133226E+00 0.23650268E+04</pdfrwt>
<pdfrwt beam="2">  1       -1 0.11360484E+00 0.23650268E+04</pdfrwt>
<totfact> 0.22351121E+00</totfact>
</mgrwt>
</event>
<event>
 6    1  0.9364335E-007  0.1191242E+04  0.7818608E-02  0.9120557E-01
          2   -1    0    0  501    0  0.00000000000E+00  0.00000000000E+00  0.14229542576E+04  0.14229542576E+04  0.00000000000E+00 0. -1.
         -2   -1    0    0    0  501 -0.00000000000E+00 -0.00000000000E+00 -0.24931541839E+03  0.24931541839E+03  0.00000000000E+00 0.  1.
         23    2    1    2    0    0 -0.30334993311E+03 -0.15478278994E+03  0.12703251985E+04  0.13182539333E+04  0.89935692069E+02 0.  0.
         13    1    3    3    0    0 -0.95395980773E+02 -0.91380852136E+02  0.56193760483E+03  0.57725620396E+03  0.00000000000E+00 0. -1.
        -13    1    3    3    0    0 -0.20795395233E+03 -0.63401937802E+02  0.70838759371E+03  0.74099772937E+03  0.00000000000E+00 0.  1.
         22    1    1    2    0    0  0.30334993311E+03  0.15478278994E+03 -0.96686359326E+02  0.35401574267E+03  0.00000000000E+00 0.  1.
<mgrwt>
<rscale>  0 0.11912421E+04</rscale>
<asrwt>0</asrwt>
<pdfrwt beam="1">  1        2 0.21891604E+00 0.11912421E+04</pdfrwt>
<pdfrwt beam="2">  1       -2 0.38356219E-01 0.11912421E+04</pdfrwt>
<totfact> 0.88925519E+01</totfact>
</mgrwt>
</event>
<event>
 6    1  0.9364335E-007  0.4647661E+04  0.7818608E-02  0.7885284E-01
         -2   -1    0    0    0  501 -0.00000000000E+00  0.00000000000E+00  0.24579548066E+04  0.24579548066E+04  0.00000000000E+00 0.  1.
          2   -1    0    0  501    0  0.00000000000E+00 -0.00000000000E+00 -0.21970245519E+04  0.21970245519E+04  0.00000000000E+00 0. -1.
         23    2    1    2    0    0  0.15325315086E+04 -0.16929478864E+03 -0.16096471833E+04  0.22308561144E+04  0.91877081627E+02 0.  0.
         11    1    3    3    0    0  0.76141706577E+03 -0.44000133805E+02 -0.82811830437E+03  0.11258205389E+04  0.00000000000E+00 0. -1.
        -11    1    3    3    0    0  0.77111444286E+03 -0.12529465484E+03 -0.78152887897E+03  0.11050355755E+04  0.00000000000E+00 0.  1.
         22    1    1    2    0    0 -0.15325315086E+04  0.16929478864E+03  0.18705774381E+04  0.24241232441E+04  0.00000000000E+00 0.  1.
<mgrwt>
<rscale>  0 0.46476605E+04</rscale>
<asrwt>0</asrwt>
<pdfrwt beam="1">  1        2 0.33800378E+00 0.46476605E+04</pdfrwt>
<pdfrwt beam="2">  1       -2 0.37814689E+00 0.46476605E+04</pdfrwt>
<totfact> 0.39949008E-02</totfact>
</mgrwt>
</event>
<event>
 6    1  0.9364335E-007  0.1691089E+04  0.7818608E-02  0.8766463E-01
          2   -1    0    0  501    0  0.00000000000E+00  0.00000000000E+00  0.24795121576E+04  0.24795121576E+04  0.00000000000E+00 0. -1.
         -2   -1    0    0    0  501 -0.00000000000E+00 -0.00000000000E+00 -0.28834123172E+03  0.28834123172E+03  0.00000000000E+00 0.  1.
         23    2    1    2    0    0 -0.61593718090E+03 -0.98893597958E+02  0.20270057900E+04  0.21227884729E+04  0.91213340693E+02 0.  0.
         13    1    3    3    0    0 -0.46256871436E+03 -0.10919633004E+03  0.14671069742E+04  0.15421726647E+04  0.00000000000E+00 0. -1.
        -13    1    3    3    0    0 -0.15336846654E+03  0.10302732082E+02  0.55989881583E+03  0.58061580824E+03  0.00000000000E+00 0.  1.
         22    1    1    2    0    0  0.61593718090E+03  0.98893597958E+02  0.16416513587E+03  0.64506491640E+03  0.00000000000E+00 0.  1.
<mgrwt>
<rscale>  0 0.16910891E+04</rscale>
<asrwt>0</asrwt>
<pdfrwt beam="1">  1        2 0.38146340E+00 0.16910891E+04</pdfrwt>
<pdfrwt beam="2">  1       -2 0.44360191E-01 0.16910891E+04</pdfrwt>
<totfact> 0.16443359E+01</totfact>
</mgrwt>
</event>
<event>
 6    1  0.9364335E-007  0.1930657E+04  0.7818608E-02  0.8639745E-01
          1   -1    0    0  501    0  0.00000000000E+00  0.00000000000E+00  0.56905168533E+03  0.56905168533E+03  0.00000000000E+00 0. -1.
         -1   -1    0    0    0  501 -0.00000000000E+00 -0.00000000000E+00 -0.16375642127E+04  0.16375642127E+04  0.00000000000E+00 0.  1.
         23    2    1    2    0    0 -0.74206729919E+03  0.61155829724E+03 -0.47618429160E+03  0.10772266089E+04  0.94859158353E+02 0.  0.
         13    1    3    3    0    0 -0.35254531604E+03  0.34585218736E+03 -0.22056950425E+03  0.54088154116E+03  0.00000000000E+00 0.  1.
        -13    1    3    3    0    0 -0.38952198315E+03  0.26570610988E+03 -0.25561478735E+03  0.53634506775E+03  0.00000000000E+00 0. -1.
         22    1    1    2    0    0  0.74206729919E+03 -0.61155829724E+03 -0.59232823574E+03  0.11293892891E+04  0.00000000000E+00 0.  1.
<mgrwt>
<rscale>  0 0.19306565E+04</rscale>
<asrwt>0</asrwt>
<pdfrwt beam="1">  1        1 0.87546413E-01 0.19306565E+04</pdfrwt>
<pdfrwt beam="2">  1       -1 0.25193296E+00 0.19306565E+04</pdfrwt>
<totfact> 0.23356917E+00</totfact>
</mgrwt>
</event>
<event>
 6    1  0.9364335E-007  0.1919154E+04  0.7818608E-02  0.8645380E-01
          2   -1    0    0  501    0  0.00000000000E+00  0.00000000000E+00  0.13316508877E+04  0.13316508877E+04  0.00000000000E+00 0. -1.
         -2   -1    0    0    0  501 -0.00000000000E+00 -0.00000000000E+00 -0.69146357473E+03  0.69146357473E+03  0.00000000000E+00 0.  1.
         23    2    1    2    0    0  0.23010638028E+03  0.67899656580E+03  0.98976635555E+03  0.12254987720E+04  0.90689133565E+02 0.  0.
         11    1    3    3    0    0  0.37036633922E+02  0.24301190245E+03  0.33788311212E+03  0.41784147047E+03  0.00000000000E+00 0. -1.
        -11    1    3    3    0    0  0.19306974636E+03  0.43598466336E+03  0.65188324343E+03  0.80765730153E+03  0.00000000000E+00 0.  1.
         22    1    1    2    0    0 -0.23010638028E+03 -0.67899656580E+03 -0.34957904258E+03  0.79761569044E+03  0.00000000000E+00 0.  1.
<mgrwt>
<rscale>  0 0.19191541E+04</rscale>
<asrwt>0</asrwt>
<pdfrwt beam="1">  1        2 0.20486937E+00 0.19191541E+04</pdfrwt>
<pdfrwt beam="2">  1       -2 0.10637901E+00 0.19191541E+04</pdfrwt>
<totfact> 0.10556927E+01</totfact>
</mgrwt>
</event>
<event>
 6    1  0.9364335E-007  0.4630225E+04  0.7818608E-02  0.7888227E-01
          1   -1    0    0  501    0  0.00000000000E+00  0.00000000000E+00  0.46762317496E+04  0.46762317496E+04  0.00000000000E+00 0. -1.
         -1   -1    0    0    0  501 -0.00000000000E+00 -0.00000000000E+00 -0.11461675157E+04  0.11461675157E+04  0.00000000000E+00 0.  1.
         23    2    1    2    0    0 -0.64737800738E+03 -0.20817792431E+04  0.27420981481E+04  0.35042548233E+04  0.88297857753E+02 0.  0.
         13    1    3    3    0    0 -0.33606798381E+03 -0.94427157513E+03  0.12874036833E+04  0.16315632813E+04  0.00000000000E+00 0.  1.
        -13    1    3    3    0    0 -0.31131002357E+03 -0.11375076680E+04  0.14546944648E+04  0.18726915420E+04  0.00000000000E+00 0. -1.
         22    1    1    2    0    0  0.64737800738E+03  0.20817792431E+04  0.78796608578E+03  0.23181444420E+04  0.00000000000E+00 0.  1.
<mgrwt>
<rscale>  0 0.46302246E+04</rscale>
<asrwt>0</asrwt>
<pdfrwt beam="1">  1        1 0.71942026E+00 0.46302246E+04</pdfrwt>
<pdfrwt beam="2">  1       -1 0.17633347E+00 0.46302246E+04</pdfrwt>
<totfact> 0.34106755E-03</totfact>
</mgrwt>
</event>
<event>
 6    1  0.9364335E-007  0.8086690E+03  0.7818608E-02  0.9547553E-01
          2   -1    0    0  501    0  0.00000000000E+00  0.00000000000E+00  0.61722107476E+03  0.61722107476E+03  0.00000000000E+00 0. -1.
         -2   -1    0    0    0  501 -0.00000000000E+00 -0.00000000000E+00 -0.26487493561E+03  0.26487493561E+03  0.00000000000E+00 0.  1.
         23    2    1    2    0    0  0.21025796458E+03 -0.23565552320E+03  0.44486792923E+03  0.55300298564E+03  0.90348715457E+02 0.  0.
         11    1    3    3    0    0  0.23288913865E+02 -0.82535082750E+02  0.13676640579E+03  0.16142943705E+03  0.00000000000E+00 0.  1.
        -11    1    3    3    0    0  0.18696905072E+03 -0.15312044045E+03  0.30810152344E+03  0.39157354859E+03  0.00000000000E+00 0. -1.
         22    1    1    2    0    0 -0.21025796458E+03  0.23565552320E+03 -0.92521790079E+02  0.32909302473E+03  0.00000000000E+00 0.  1.
<mgrwt>
<rscale>  0 0.80866901E+03</rscale>
<asrwt>0</asrwt>
<pdfrwt beam="1">  1        2 0.94957088E-01 0.80866901E+03</pdfrwt>
<pdfrwt beam="2">  1       -2 0.40749990E-01 0.80866901E+03</pdfrwt>
<totfact> 0.27482299E+02</totfact>
</mgrwt>
</event>
<event>
 6    1  0.9364335E-007  0.4008966E+04  0.7818608E-02  0.8002740E-01
          1   -1    0    0  501    0  0.00000000000E+00  0.00000000000E+00  0.32023711665E+04  0.32023711665E+04  0.00000000000E+00 0. -1.
         -1   -1    0    0    0  501 -0.00000000000E+00 -0.00000000000E+00 -0.12546802445E+04  0.12546802445E+04  0.00000000000E+00 0.  1.
         23    2    1    2    0    0  0.79729190747E+03 -0.14495620341E+04  0.22308071634E+04  0.27786416629E+04  0.86281016057E+02 0.  0.
         11    1    3    3    0    0  0.44909363551E+03 -0.86935755897E+03  0.13753434843E+04  0.16879091677E+04  0.00000000000E+00 0. -1.
        -11    1    3    3    0    0  0.34819827195E+03 -0.58020447512E+03  0.85546367916E+03  0.10907324951E+04  0.00000000000E+00 0.  1.
         22    1    1    2    0    0 -0.79729190747E+03  0.14495620341E+04 -0.28311624149E+03  0.16784097481E+04  0.00000000000E+00 0.  1.
<mgrwt>
<rscale>  0 0.40089659E+04</rscale>
<asrwt>0</asrwt>
<pdfrwt beam="1">  1        1 0.49267248E+00 0.40089659E+04</pdfrwt>
<pdfrwt beam="2">  1       -1 0.19302773E+00 0.40089659E+04</pdfrwt>
<totfact> 0.55662649E-02</totfact>
</mgrwt>
</event>
<event>
 6    1  0.9364335E-007  0.1208424E+04  0.7818608E-02  0.9105515E-01
         -2   -1    0    0    0  501 -0.00000000000E+00  0.00000000000E+00  0.12825879986E+04  0.12825879986E+04  0.00000000000E+00 0.  1.
          2   -1    0    0  501    0  0.00000000000E+00 -0.00000000000E+00 -0.28463706606E+03  0.28463706606E+03  0.00000000000E+00 0. -1.
         23    2    1    2    0    0  0.56857287396E+03 -0.59115583608E+02  0.26203872829E+03  0.63537929546E+03  0.90954872009E+02 0.  0.
         11    1    3    3    0    0  0.38772049990E+03 -0.71333771743E+02  0.21061619814E+03  0.44696182830E+03  0.00000000000E+00 0.  1.
        -11    1    3    3    0    0  0.18085237406E+03  0.12218188135E+02  0.51422530151E+02  0.18841746716E+03  0.00000000000E+00 0. -1.
         22    1    1    2    0    0 -0.56857287396E+03  0.59115583608E+02  0.73591220427E+03  0.93184576923E+03  0.00000000000E+00 0.  1.
<mgrwt>
<rscale>  0 0.12084239E+04</rscale>
<asrwt>0</asrwt>
<pdfrwt beam="1">  1        2 0.43790319E-01 0.12084239E+04</pdfrwt>
<pdfrwt beam="2">  1       -2 0.19732123E+00 0.12084239E+04</pdfrwt>
<totfact> 0.15893733E+01</totfact>
</mgrwt>
</event>
<event>
 6    1  0.9364335E-007  0.2851403E+04  0.7818608E-02  0.8287485E-01
          2   -1    0    0  501    0  0.00000000000E+00  0.00000000000E+00  0.20041442336E+04  0.20041442336E+04  0.00000000000E+00 0. -1.
         -2   -1    0    0    0  501 -0.00000000000E+00 -0.00000000000E+00 -0.10142109032E+04  0.10142109032E+04  0.00000000000E+00 0.  1.
         23    2    1    2    0    0  0.74242475235E+03  0.85859938270E+03 -0.41515815061E+03  0.12120690346E+04  0.91474815239E+02 0.  0.
         13    1    3    3    0    0  0.52158123168E+03  0.63048543199E+03 -0.33799499938E+03  0.88532450593E+03  0.00000000000E+00 0.  1.
        -13    1    3    3    0    0  0.22084352068E+03  0.22811395070E+03 -0.77163151237E+02  0.32674452871E+03  0.00000000000E+00 0. -1.
         22    1    1    2    0    0 -0.74242475235E+03 -0.85859938270E+03  0.14050914810E+04  0.18062861022E+04  0.00000000000E+00 0. -1.
<mgrwt>
<rscale>  0 0.28514031E+04</rscale>
<asrwt>0</asrwt>
<pdfrwt beam="1">  1        2 0.30832988E+00 0.28514031E+04</pdfrwt>
<pdfrwt beam="2">  1       -2 0.15603245E+00 0.28514031E+04</pdfrwt>
<totfact> 0.15529514E+00</totfact>
</mgrwt>
</event>
<event>
 6    1  0.9364335E-007  0.2724656E+04  0.7818608E-02  0.8327049E-01
          2   -1    0    0  501    0  0.00000000000E+00  0.00000000000E+00  0.21356218751E+04  0.21356218751E+04  0.00000000000E+00 0. -1.
         -2   -1    0    0    0  501 -0.00000000000E+00 -0.00000000000E+00 -0.86903874070E+03  0.86903874070E+03  0.00000000000E+00 0.  1.
         23    2    1    2    0    0 -0.12496277760E+03  0.42050583067E+03  0.20544875047E+04  0.21028656578E+04  0.93189153588E+02 0.  0.
         13    1    3    3    0    0 -0.25778564919E+02  0.12329866926E+03  0.79922902717E+03  0.80909463855E+03  0.00000000000E+00 0. -1.
        -13    1    3    3    0    0 -0.99184212678E+02  0.29720716141E+03  0.12552584776E+04  0.12937710193E+04  0.00000000000E+00 0.  1.
         22    1    1    2    0    0  0.12496277760E+03 -0.42050583067E+03 -0.78790437034E+03  0.90179495797E+03  0.00000000000E+00 0.  1.
<mgrwt>
<rscale>  0 0.27246564E+04</rscale>
<asrwt>0</asrwt>
<pdfrwt beam="1">  1        2 0.32855721E+00 0.27246564E+04</pdfrwt>
<pdfrwt beam="2">  1       -2 0.13369827E+00 0.27246564E+04</pdfrwt>
<totfact> 0.19870279E+00</totfact>
</mgrwt>
</event>
<event>
 6    1  0.1259358E-006  0.2433801E+04  0.7818608E-02  0.8426956E-01
         -1   -1    0    0    0  501 -0.00000000000E+00  0.00000000000E+00  0.93184473543E+03  0.93184473543E+03  0.00000000000E+00 0.  1.
          1   -1    0    0  501    0  0.00000000000E+00 -0.00000000000E+00 -0.15891559707E+04  0.15891559707E+04  0.00000000000E+00 0. -1.
         23    2    1    2    0    0  0.33579894555E+02 -0.46477871450E+03 -0.14917348441E+04  0.15652760482E+04  0.87575106859E+02 0.  0.
         11    1    3    3    0    0 -0.23910255272E+02 -0.19228701685E+03 -0.54444265405E+03  0.57789601202E+03  0.00000000000E+00 0.  1.
        -11    1    3    3    0    0  0.57490149827E+02 -0.27249169765E+03 -0.94729219002E+03  0.98738003620E+03  0.00000000000E+00 0. -1.
         22    1    1    2    0    0 -0.33579894555E+02  0.46477871450E+03  0.83442360881E+03  0.95572465790E+03  0.00000000000E+00 0.  1.
<mgrwt>
<rscale>  0 0.24338008E+04</rscale>
<asrwt>0</asrwt>
<pdfrwt beam="1">  1        1 0.24448553E+00 0.24338008E+04</pdfrwt>
<pdfrwt beam="2">  1       -1 0.14336073E+00 0.24338008E+04</pdfrwt>
<totfact> 0.19973651E+00</totfact>
</mgrwt>
</event>
<event>
 6    1  0.9364335E-007  0.1753764E+04  0.7818608E-02  0.8731281E-01
         -2   -1    0    0    0  501 -0.00000000000E+00  0.00000000000E+00  0.12684024383E+04  0.12684024383E+04  0.00000000000E+00 0.  1.
          2   -1    0    0  501    0  0.00000000000E+00 -0.00000000000E+00 -0.60621308882E+03  0.60621308882E+03  0.00000000000E+00 0. -1.
         23    2    1    2    0    0  0.33948932385E+03  0.27829217475E+03  0.11404498567E+04  0.12254370861E+04  0.91491206135E+02 0.  0.
         13    1    3    3    0    0  0.13499521522E+03  0.14300168244E+03  0.40561367516E+03  0.45077227376E+03  0.00000000000E+00 0. -1.
        -13    1    3    3    0    0  0.20449410863E+03  0.13529049231E+03  0.73483618156E+03  0.77466481235E+03  0.00000000000E+00 0.  1.
         22    1    1    2    0    0 -0.33948932385E+03 -0.27829217475E+03 -0.47826050721E+03  0.64917844102E+03  0.00000000000E+00 0. -1.
<mgrwt>
<rscale>  0 0.17537641E+04</rscale>
<asrwt>0</asrwt>
<pdfrwt beam="1">  1        2 0.93263553E-01 0.17537641E+04</pdfrwt>
<pdfrwt beam="2">  1       -2 0.19513884E+00 0.17537641E+04</pdfrwt>
<totfact> 0.66408043E+00</totfact>
</mgrwt>
</event>
<event>
 6    1  0.9364335E-007  0.8237772E+03  0.7818608E-02  0.9526224E-01
         -2   -1    0    0    0  501 -0.00000000000E+00  0.00000000000E+00  0.46769365878E+03  0.46769365878E+03  0.00000000000E+00 0.  1.
          2   -1    0    0  501    0  0.00000000000E+00 -0.00000000000E+00 -0.36274220391E+03  0.36274220391E+03  0.00000000000E+00 0. -1.
         23    2    1    2    0    0 -0.30749471213E+03 -0.25378184635E+03  0.13487977026E+03  0.43061849490E+03  0.91002814245E+02 0.  0.
         11    1    3    3    0    0 -0.18500206940E+03 -0.94203461256E+02  0.62236121266E+02  0.21673345978E+03  0.00000000000E+00 0. -1.
        -11    1    3    3    0    0 -0.12249264272E+03 -0.15957838509E+03  0.72643648990E+02  0.21388503512E+03  0.00000000000E+00 0.  1.
         22    1    1    2    0    0  0.30749471213E+03  0.25378184635E+03 -0.29928315389E+02  0.39981736779E+03  0.00000000000E+00 0.  1.
<mgrwt>
<rscale>  0 0.82377722E+03</rscale>
<asrwt>0</asrwt>
<pdfrwt beam="1">  1        2 0.55806493E-01 0.82377722E+03</pdfrwt>
<pdfrwt beam="2">  1       -2 0.71952871E-01 0.82377722E+03</pdfrwt>
<totfact> 0.15644535E+02</totfact>
</mgrwt>
</event>
<event>
 6    1  0.9364335E-007  0.1880148E+04  0.7818608E-02  0.8664802E-01
         -1   -1    0    0    0  501 -0.00000000000E+00  0.00000000000E+00  0.22116841664E+04  0.22116841664E+04  0.00000000000E+00 0.  1.
          1   -1    0    0  501    0  0.00000000000E+00 -0.00000000000E+00 -0.39957749820E+03  0.39957749820E+03  0.00000000000E+00 0. -1.
         23    2    1    2    0    0  0.47612065846E+03 -0.77057516232E+03  0.58221221714E+03  0.10838071406E+04  0.12324727179E+03 0.  0.
         13    1    3    3    0    0  0.40394551685E+03 -0.63348087486E+03  0.53326725151E+03  0.92132728220E+03  0.00000000000E+00 0.  1.
        -13    1    3    3    0    0  0.72175141604E+02 -0.13709428745E+03  0.48944965630E+02  0.16247985838E+03  0.00000000000E+00 0. -1.
         22    1    1    2    0    0 -0.47612065846E+03  0.77057516232E+03  0.12298944510E+04  0.15274545240E+04  0.00000000000E+00 0.  1.
<mgrwt>
<rscale>  0 0.18801481E+04</rscale>
<asrwt>0</asrwt>
<pdfrwt beam="1">  1        1 0.61473463E-01 0.18801481E+04</pdfrwt>
<pdfrwt beam="2">  1       -1 0.34025910E+00 0.18801481E+04</pdfrwt>
<totfact> 0.10167171E+00</totfact>
</mgrwt>
</event>
<event>
 6    1  0.9364335E-007  0.2942159E+04  0.7818608E-02  0.8260443E-01
         -2   -1    0    0    0  501 -0.00000000000E+00  0.00000000000E+00  0.10234648776E+04  0.10234648776E+04  0.00000000000E+00 0.  1.
          2   -1    0    0  501    0  0.00000000000E+00 -0.00000000000E+00 -0.21144591722E+04  0.21144591722E+04  0.00000000000E+00 0. -1.
         23    2    1    2    0    0  0.39000191117E+03  0.13608482927E+04 -0.96709816785E+03  0.17168822429E+04  0.91630799257E+02 0.  0.
         13    1    3    3    0    0  0.30382031717E+03  0.11162687539E+04 -0.75034598132E+03  0.13789060185E+04  0.00000000000E+00 0. -1.
        -13    1    3    3    0    0  0.86181593998E+02  0.24457953882E+03 -0.21675218653E+03  0.33797622448E+03  0.00000000000E+00 0.  1.
         22    1    1    2    0    0 -0.39000191117E+03 -0.13608482927E+04 -0.12389612679E+03  0.14210418068E+04  0.00000000000E+00 0.  1.
<mgrwt>
<rscale>  0 0.29421589E+04</rscale>
<asrwt>0</asrwt>
<pdfrwt beam="1">  1        2 0.32530141E+00 0.29421589E+04</pdfrwt>
<pdfrwt beam="2">  1       -2 0.15745614E+00 0.29421589E+04</pdfrwt>
<totfact> 0.13051746E+00</totfact>
</mgrwt>
</event>
<event>
 6    1  0.9364335E-007  0.1551324E+04  0.7818608E-02  0.8851023E-01
         -2   -1    0    0    0  501 -0.00000000000E+00  0.00000000000E+00  0.71487117190E+03  0.71487117190E+03  0.00000000000E+00 0.  1.
          2   -1    0    0  501    0  0.00000000000E+00 -0.00000000000E+00 -0.84162192979E+03  0.84162192979E+03  0.00000000000E+00 0. -1.
         23    2    1    2    0    0 -0.28272287895E+02 -0.76603147359E+03  0.36066633014E+02  0.77283945142E+03  0.91523083755E+02 0.  0.
         13    1    3    3    0    0  0.26914615007E+02 -0.42605910080E+03  0.39952615693E+01  0.42692706167E+03  0.00000000000E+00 0.  1.
        -13    1    3    3    0    0 -0.55186902903E+02 -0.33997237280E+03  0.32071371444E+02  0.34591238975E+03  0.00000000000E+00 0. -1.
         22    1    1    2    0    0  0.28272287895E+02  0.76603147359E+03 -0.16281739091E+03  0.78365365027E+03  0.00000000000E+00 0. -1.
<mgrwt>
<rscale>  0 0.15513236E+04</rscale>
<asrwt>0</asrwt>
<pdfrwt beam="1">  1        2 0.12948030E+00 0.15513236E+04</pdfrwt>
<pdfrwt beam="2">  1       -2 0.10998018E+00 0.15513236E+04</pdfrwt>
<totfact> 0.20354683E+01</totfact>
</mgrwt>
</event>
<event>
 6    1  0.9364335E-007  0.9940368E+03  0.7818608E-02  0.9315109E-01
          2   -1    0    0  501    0  0.00000000000E+00  0.00000000000E+00  0.29639084753E+04  0.29639084753E+04  0.00000000000E+00 0. -1.
         -2   -1    0    0    0  501 -0.00000000000E+00 -0.00000000000E+00 -0.83345113826E+02  0.83345113826E+02  0.00000000000E+00 0.  1.
         23    2    1    2    0    0 -0.27686842401E+03 -0.38808387965E+02  0.26961452271E+04  0.27123323096E+04  0.96877535827E+02 0.  0.
         13    1    3    3    0    0 -0.68063266990E+02  0.30600102072E+02  0.79542077101E+03  0.79891374848E+03  0.00000000000E+00 0. -1.
        -13    1    3    3    0    0 -0.20880515702E+03 -0.69408490037E+02  0.19007244560E+04  0.19134185611E+04  0.00000000000E+00 0.  1.
         22    1    1    2    0    0  0.27686842401E+03  0.38808387965E+02  0.18441813437E+03  0.33492127952E+03  0.00000000000E+00 0.  1.
<mgrwt>
<rscale>  0 0.99403680E+03</rscale>
<asrwt>0</asrwt>
<pdfrwt beam="1">  1        2 0.45598584E+00 0.99403680E+03</pdfrwt>
<pdfrwt beam="2">  1       -2 0.12822328E-01 0.99403680E+03</pdfrwt>
<totfact> 0.85718498E+01</totfact>
</mgrwt>
</event>
<event>
 6    1  0.9364335E-007  0.1854199E+04  0.7818608E-02  0.8677996E-01
          1   -1    0    0  501    0  0.00000000000E+00  0.00000000000E+00  0.22235564228E+04  0.22235564228E+04  0.00000000000E+00 0. -1.
         -1   -1    0    0    0  501 -0.00000000000E+00 -0.00000000000E+00 -0.38654906469E+03  0.38654906469E+03  0.00000000000E+00 0.  1.
         23    2    1    2    0    0  0.16366523319E+02  0.65821959785E+03  0.18349018694E+04  0.19516790791E+04  0.93088429017E+02 0.  0.
         11    1    3    3    0    0 -0.26149581580E+02  0.44514134563E+03  0.12991142480E+04  0.13735109929E+04  0.00000000000E+00 0.  1.
        -11    1    3    3    0    0  0.42516104899E+02  0.21307825221E+03  0.53578762138E+03  0.57816808626E+03  0.00000000000E+00 0. -1.
         22    1    1    2    0    0 -0.16366523319E+02 -0.65821959785E+03  0.21054886842E+01  0.65842640831E+03  0.00000000000E+00 0.  1.
<mgrwt>
<rscale>  0 0.18541992E+04</rscale>
<asrwt>0</asrwt>
<pdfrwt beam="1">  1        1 0.34208560E+00 0.18541992E+04</pdfrwt>
<pdfrwt beam="2">  1       -1 0.59469088E-01 0.18541992E+04</pdfrwt>
<totfact> 0.56541389E+00</totfact>
</mgrwt>
</event>
<event>
 6    1  0.9364335E-007  0.1426509E+04  0.7818608E-02  0.8934850E-01
         -1   -1    0    0    0  501 -0.00000000000E+00  0.00000000000E+00  0.23772786947E+03  0.23772786947E+03  0.00000000000E+00 0.  1.
          1   -1    0    0  501    0  0.00000000000E+00 -0.00000000000E+00 -0.21399771691E+04  0.21399771691E+04  0.00000000000E+00 0. -1.
         23    2    1    2    0    0  0.52302430386E+03  0.77498359109E+02 -0.16484336255E+03  0.56162689921E+03  0.93225649042E+02 0.  0.
         11    1    3    3    0    0  0.90479633706E+02  0.45626332157E+02 -0.13325763831E+02  0.10220519695E+03  0.00000000000E+00 0. -1.
        -11    1    3    3    0    0  0.43254467016E+03  0.31872026951E+02 -0.15151759872E+03  0.45942170226E+03  0.00000000000E+00 0.  1.
         22    1    1    2    0    0 -0.52302430386E+03 -0.77498359109E+02 -0.17374059370E+04  0.18160781393E+04  0.00000000000E+00 0. -1.
<mgrwt>
<rscale>  0 0.14265093E+04</rscale>
<asrwt>0</asrwt>
<pdfrwt beam="1">  1        1 0.32922725E+00 0.14265093E+04</pdfrwt>
<pdfrwt beam="2">  1       -1 0.36573519E-01 0.14265093E+04</pdfrwt>
<totfact> 0.16720368E+01</totfact>
</mgrwt>
</event>
<event>
 6    1  0.9364335E-007  0.2272143E+04  0.7818608E-02  0.8488986E-01
         -3   -1    0    0    0  501 -0.00000000000E+00  0.00000000000E+00  0.74938972555E+03  0.74938972555E+03  0.00000000000E+00 0.  1.
          3   -1    0    0  501    0  0.00000000000E+00 -0.00000000000E+00 -0.17222792000E+04  0.17222792000E+04  0.00000000000E+00 0. -1.
         23    2    1    2    0    0 -0.20684311301E+03 -0.96458408727E+03 -0.10960839694E+04  0.14774941831E+04  0.91555767267E+02 0.  0.
         13    1    3    3    0    0 -0.76053386319E+02 -0.19241629983E+03 -0.20716467098E+03  0.29278891870E+03  0.00000000000E+00 0. -1.
        -13    1    3    3    0    0 -0.13078972669E+03 -0.77216778744E+03 -0.88891929838E+03  0.11847052644E+04  0.00000000000E+00 0.  1.
         22    1    1    2    0    0  0.20684311301E+03  0.96458408727E+03  0.12319449494E+03  0.99417474239E+03  0.00000000000E+00 0.  1.
<mgrwt>
<rscale>  0 0.22721429E+04</rscale>
<asrwt>0</asrwt>
<pdfrwt beam="1">  1        3 0.26496603E+00 0.22721429E+04</pdfrwt>
<pdfrwt beam="2">  1       -3 0.11529073E+00 0.22721429E+04</pdfrwt>
<totfact> 0.89647631E-02</totfact>
</mgrwt>
</event>
<event>
 6    1  0.9364335E-007  0.2170355E+04  0.7818608E-02  0.8530869E-01
         -1   -1    0    0    0  501 -0.00000000000E+00  0.00000000000E+00  0.20753769973E+04  0.20753769973E+04  0.00000000000E+00 0.  1.
          1   -1    0    0  501    0  0.00000000000E+00 -0.00000000000E+00 -0.56741999563E+03  0.56741999563E+03  0.00000000000E+00 0. -1.
         23    2    1    2    0    0  0.10612939188E+03 -0.80126936414E+03  0.16328958698E+04  0.18249304008E+04  0.10356642644E+03 0.  0.
         13    1    3    3    0    0  0.90034546178E+02 -0.71316650106E+03  0.13689024369E+04  0.15461586463E+04  0.00000000000E+00 0.  1.
        -13    1    3    3    0    0  0.16094845700E+02 -0.88102863078E+02  0.26399343284E+03  0.27877175453E+03  0.00000000000E+00 0. -1.
         22    1    1    2    0    0 -0.10612939188E+03  0.80126936414E+03 -0.12493886808E+03  0.81786659211E+03  0.00000000000E+00 0. -1.
<mgrwt>
<rscale>  0 0.21703552E+04</rscale>
<asrwt>0</asrwt>
<pdfrwt beam="1">  1        1 0.87295385E-01 0.21703552E+04</pdfrwt>
<pdfrwt beam="2">  1       -1 0.31928877E+00 0.21703552E+04</pdfrwt>
<totfact> 0.83970309E-01</totfact>
</mgrwt>
</event>
<event>
 6    1  0.9364335E-007  0.4850801E+04  0.7818608E-02  0.7851944E-01
          2   -1    0    0  501    0  0.00000000000E+00  0.00000000000E+00  0.31796544671E+04  0.31796544671E+04  0.00000000000E+00 0. -1.
         -2   -1    0    0    0  501 -0.00000000000E+00 -0.00000000000E+00 -0.18500649615E+04  0.18500649615E+04  0.00000000000E+00 0.  1.
         23    2    1    2    0    0  0.17185041274E+04  0.16695868199E+04  0.27991612546E+03  0.24138848027E+04  0.87807846880E+02 0.  0.
         13    1    3    3    0    0  0.11383531552E+04  0.10820415660E+04  0.14511098723E+03  0.15772504732E+04  0.00000000000E+00 0. -1.
        -13    1    3    3    0    0  0.58015097220E+03  0.58754525387E+03  0.13480513824E+03  0.83663432943E+03  0.00000000000E+00 0.  1.
         22    1    1    2    0    0 -0.17185041274E+04 -0.16695868199E+04  0.10496733802E+04  0.26158346260E+04  0.00000000000E+00 0.  1.
<mgrwt>
<rscale>  0 0.48508009E+04</rscale>
<asrwt>0</asrwt>
<pdfrwt beam="1">  1        2 0.48917761E+00 0.48508009E+04</pdfrwt>
<pdfrwt beam="2">  1       -2 0.28462538E+00 0.48508009E+04</pdfrwt>
<totfact> 0.38832774E-02</totfact>
</mgrwt>
</event>
<event>
 6    1  0.9364335E-007  0.7196860E+04  0.7818608E-02  0.7557467E-01
         -2   -1    0    0    0  501 -0.00000000000E+00  0.00000000000E+00  0.42179398906E+04  0.42179398906E+04  0.00000000000E+00 0.  1.
          2   -1    0    0  501    0  0.00000000000E+00 -0.00000000000E+00 -0.30699106371E+04  0.30699106371E+04  0.00000000000E+00 0. -1.
         23    2    1    2    0    0 -0.13190991034E+04  0.30941614624E+03  0.39491598901E+04  0.41762442480E+04  0.96909160235E+02 0.  0.
         11    1    3    3    0    0 -0.54512696867E+03  0.82080684212E+02  0.16546360200E+04  0.17440530409E+04  0.00000000000E+00 0.  1.
        -11    1    3    3    0    0 -0.77397213478E+03  0.22733546203E+03  0.22945238701E+04  0.24321912072E+04  0.00000000000E+00 0. -1.
         22    1    1    2    0    0  0.13190991034E+04 -0.30941614624E+03 -0.28011306366E+04  0.31116062796E+04  0.00000000000E+00 0. -1.
<mgrwt>
<rscale>  0 0.71968600E+04</rscale>
<asrwt>0</asrwt>
<pdfrwt beam="1">  1        2 0.47229394E+00 0.71968600E+04</pdfrwt>
<pdfrwt beam="2">  1       -2 0.64891383E+00 0.71968600E+04</pdfrwt>
<totfact> 0.33765391E-04</totfact>
</mgrwt>
</event>
<event>
 6    1  0.9364335E-007  0.2633961E+04  0.7818608E-02  0.8356756E-01
          2   -1    0    0  501    0  0.00000000000E+00  0.00000000000E+00  0.80798458760E+03  0.80798458760E+03  0.00000000000E+00 0. -1.
         -2   -1    0    0    0  501 -0.00000000000E+00 -0.00000000000E+00 -0.21466217970E+04  0.21466217970E+04  0.00000000000E+00 0.  1.
         23    2    1    2    0    0  0.89938842881E+03  0.80836451395E+03 -0.89451540846E+02  0.12159811899E+04  0.90862217890E+02 0.  0.
         13    1    3    3    0    0  0.28672052388E+03  0.30278364713E+03 -0.58088236709E+02  0.42102356113E+03  0.00000000000E+00 0.  1.
        -13    1    3    3    0    0  0.61266790493E+03  0.50558086682E+03 -0.31363304137E+02  0.79495762873E+03  0.00000000000E+00 0. -1.
         22    1    1    2    0    0 -0.89938842881E+03 -0.80836451395E+03 -0.12491856686E+04  0.17386251948E+04  0.00000000000E+00 0.  1.
<mgrwt>
<rscale>  0 0.26339608E+04</rscale>
<asrwt>0</asrwt>
<pdfrwt beam="1">  1        2 0.12430532E+00 0.26339608E+04</pdfrwt>
<pdfrwt beam="2">  1       -2 0.33024950E+00 0.26339608E+04</pdfrwt>
<totfact> 0.62031725E-01</totfact>
</mgrwt>
</event>
<event>
 6    1  0.9364335E-007  0.2298891E+04  0.7818608E-02  0.8478358E-01
          2   -1    0    0  501    0  0.00000000000E+00  0.00000000000E+00  0.20391688372E+04  0.20391688372E+04  0.00000000000E+00 0. -1.
         -2   -1    0    0    0  501 -0.00000000000E+00 -0.00000000000E+00 -0.64792355691E+03  0.64792355691E+03  0.00000000000E+00 0.  1.
         23    2    1    2    0    0 -0.89923586613E+03 -0.71158353465E+03  0.64046724903E+03  0.13164560740E+04  0.88780786788E+02 0.  0.
         11    1    3    3    0    0 -0.72249134829E+03 -0.61467023035E+03  0.52808150321E+03  0.10856718263E+04  0.00000000000E+00 0.  1.
        -11    1    3    3    0    0 -0.17674451784E+03 -0.96913304301E+02  0.11238574581E+03  0.23078424773E+03  0.00000000000E+00 0. -1.
         22    1    1    2    0    0  0.89923586613E+03  0.71158353465E+03  0.75077803129E+03  0.13706363201E+04  0.00000000000E+00 0.  1.
<mgrwt>
<rscale>  0 0.22988915E+04</rscale>
<asrwt>0</asrwt>
<pdfrwt beam="1">  1        2 0.31371828E+00 0.22988915E+04</pdfrwt>
<pdfrwt beam="2">  1       -2 0.99680549E-01 0.22988915E+04</pdfrwt>
<totfact> 0.47944994E+00</totfact>
</mgrwt>
</event>
<event>
 6    1  0.9364335E-007  0.2769315E+04  0.7818608E-02  0.8312859E-01
         -2   -1    0    0    0  501 -0.00000000000E+00  0.00000000000E+00  0.79336753056E+03  0.79336753056E+03  0.00000000000E+00 0.  1.
          2   -1    0    0  501    0  0.00000000000E+00 -0.00000000000E+00 -0.24166303263E+04  0.24166303263E+04  0.00000000000E+00 0. -1.
         23    2    1    2    0    0 -0.11975840245E+04  0.68781178492E+03 -0.89984827785E+03  0.16509529211E+04  0.92876677034E+02 0.  0.
         13    1    3    3    0    0 -0.48164404827E+03  0.28591794702E+03 -0.31175968937E+03  0.64103366961E+03  0.00000000000E+00 0.  1.
        -13    1    3    3    0    0 -0.71593997624E+03  0.40189383790E+03 -0.58808858848E+03  0.10099192514E+04  0.00000000000E+00 0. -1.
         22    1    1    2    0    0  0.11975840245E+04 -0.68781178492E+03 -0.72341451792E+03  0.15590449358E+04  0.00000000000E+00 0. -1.
<mgrwt>
<rscale>  0 0.27693147E+04</rscale>
<asrwt>0</asrwt>
<pdfrwt beam="1">  1        2 0.37178927E+00 0.27693147E+04</pdfrwt>
<pdfrwt beam="2">  1       -2 0.12205655E+00 0.27693147E+04</pdfrwt>
<totfact> 0.17264312E+00</totfact>
</mgrwt>
</event>
<event>
 6    1  0.9364335E-007  0.2442861E+04  0.7818608E-02  0.8423629E-01
         -2   -1    0    0    0  501 -0.00000000000E+00  0.00000000000E+00  0.35420363138E+03  0.35420363138E+03  0.00000000000E+00 0.  1.
          2   -1    0    0  501    0  0.00000000000E+00 -0.00000000000E+00 -0.42119634670E+04  0.42119634670E+04  0.00000000000E+00 0. -1.
         23    2    1    2    0    0 -0.26105812830E+02  0.12193240722E+04 -0.19443768183E+04  0.22971436790E+04  0.93995552967E+02 0.  0.
         13    1    3    3    0    0 -0.49494837565E+02  0.72401015382E+03 -0.10959539731E+04  0.13144411561E+04  0.00000000000E+00 0. -1.
        -13    1    3    3    0    0  0.23389024736E+02  0.49531391840E+03 -0.84842284522E+03  0.98270252291E+03  0.00000000000E+00 0.  1.
         22    1    1    2    0    0  0.26105812830E+02 -0.12193240722E+04 -0.19133830173E+04  0.22690234194E+04  0.00000000000E+00 0.  1.
<mgrwt>
<rscale>  0 0.24428612E+04</rscale>
<asrwt>0</asrwt>
<pdfrwt beam="1">  1        2 0.64799443E+00 0.24428612E+04</pdfrwt>
<pdfrwt beam="2">  1       -2 0.54492862E-01 0.24428612E+04</pdfrwt>
<totfact> 0.64815769E-01</totfact>
</mgrwt>
</event>
<event>
 6    1  0.9364335E-007  0.2174915E+04  0.7818608E-02  0.8528942E-01
          1   -1    0    0  501    0  0.00000000000E+00  0.00000000000E+00  0.11061013555E+04  0.11061013555E+04  0.00000000000E+00 0. -1.
         -1   -1    0    0    0  501 -0.00000000000E+00 -0.00000000000E+00 -0.10691280060E+04  0.10691280060E+04  0.00000000000E+00 0.  1.
         23    2    1    2    0    0  0.86268188372E+03  0.39837721923E+03  0.54356548134E+03  0.10984006707E+04  0.89978661681E+02 0.  0.
         13    1    3    3    0    0  0.17717553737E+03  0.10940994161E+03  0.87968408022E+02  0.22605341664E+03  0.00000000000E+00 0.  1.
        -13    1    3    3    0    0  0.68550634635E+03  0.28896727762E+03  0.45559707332E+03  0.87234725404E+03  0.00000000000E+00 0. -1.
         22    1    1    2    0    0 -0.86268188372E+03 -0.39837721923E+03 -0.50659213180E+03  0.10768286908E+04  0.00000000000E+00 0.  1.
<mgrwt>
<rscale>  0 0.21749151E+04</rscale>
<asrwt>0</asrwt>
<pdfrwt beam="1">  1        1 0.17016944E+00 0.21749151E+04</pdfrwt>
<pdfrwt beam="2">  1       -1 0.16448123E+00 0.21749151E+04</pdfrwt>
<totfact> 0.30996107E+00</totfact>
</mgrwt>
</event>
<event>
 6    1  0.9364335E-007  0.2907934E+04  0.7818608E-02  0.8270521E-01
          1   -1    0    0  501    0  0.00000000000E+00  0.00000000000E+00  0.13388746533E+04  0.13388746533E+04  0.00000000000E+00 0. -1.
         -1   -1    0    0    0  501 -0.00000000000E+00 -0.00000000000E+00 -0.15789532912E+04  0.15789532912E+04  0.00000000000E+00 0.  1.
         23    2    1    2    0    0 -0.16840589851E+03 -0.13324342297E+04  0.43498942708E+03  0.14146784457E+04  0.91420894652E+02 0.  0.
         13    1    3    3    0    0 -0.14656709360E+03 -0.10482247299E+04  0.37866750707E+03  0.11241201352E+04  0.00000000000E+00 0. -1.
        -13    1    3    3    0    0 -0.21838804914E+02 -0.28420949980E+03  0.56321920005E+02  0.29055831059E+03  0.00000000000E+00 0.  1.
         22    1    1    2    0    0  0.16840589851E+03  0.13324342297E+04 -0.67506806501E+03  0.15031494988E+04  0.00000000000E+00 0.  1.
<mgrwt>
<rscale>  0 0.29079343E+04</rscale>
<asrwt>0</asrwt>
<pdfrwt beam="1">  1        1 0.20598072E+00 0.29079343E+04</pdfrwt>
<pdfrwt beam="2">  1       -1 0.24291589E+00 0.29079343E+04</pdfrwt>
<totfact> 0.56470571E-01</totfact>
</mgrwt>
</event>
<event>
 6    1  0.9364335E-007  0.2748262E+04  0.7818608E-02  0.8319513E-01
         -1   -1    0    0    0  501 -0.00000000000E+00  0.00000000000E+00  0.83063209738E+03  0.83063209738E+03  0.00000000000E+00 0.  1.
          1   -1    0    0  501    0  0.00000000000E+00 -0.00000000000E+00 -0.22732515021E+04  0.22732515021E+04  0.00000000000E+00 0. -1.
         23    2    1    2    0    0  0.67898970451E+03  0.29064849010E+03 -0.20288061710E+04  0.21609528021E+04  0.90327014447E+02 0.  0.
         13    1    3    3    0    0  0.33568030936E+03  0.15005905140E+03 -0.87990007934E+03  0.95363679597E+03  0.00000000000E+00 0.  1.
        -13    1    3    3    0    0  0.34330939515E+03  0.14058943870E+03 -0.11489060917E+04  0.12073160061E+04  0.00000000000E+00 0. -1.
         22    1    1    2    0    0 -0.67898970451E+03 -0.29064849010E+03  0.58618676634E+03  0.94293079738E+03  0.00000000000E+00 0.  1.
<mgrwt>
<rscale>  0 0.27482618E+04</rscale>
<asrwt>0</asrwt>
<pdfrwt beam="1">  1        1 0.34973099E+00 0.27482618E+04</pdfrwt>
<pdfrwt beam="2">  1       -1 0.12778956E+00 0.27482618E+04</pdfrwt>
<totfact> 0.89368900E-01</totfact>
</mgrwt>
</event>
<event>
 6    1  0.1173979E-006  0.2241101E+04  0.7818608E-02  0.8501513E-01
          2   -1    0    0  501    0  0.00000000000E+00  0.00000000000E+00  0.13132220354E+04  0.13132220354E+04  0.00000000000E+00 0. -1.
         -2   -1    0    0    0  501 -0.00000000000E+00 -0.00000000000E+00 -0.95614684004E+03  0.95614684004E+03  0.00000000000E+00 0.  1.
         23    2    1    2    0    0 -0.59755150275E+03  0.89340202326E+03 -0.13539814995E+03  0.10870977688E+04  0.90630714547E+02 0.  0.
         13    1    3    3    0    0 -0.26163849538E+03  0.46036464607E+03 -0.90668570768E+02  0.53722537109E+03  0.00000000000E+00 0.  1.
        -13    1    3    3    0    0 -0.33591300737E+03  0.43303737719E+03 -0.44729579183E+02  0.54987239775E+03  0.00000000000E+00 0. -1.
         22    1    1    2    0    0  0.59755150275E+03 -0.89340202326E+03  0.49247334528E+03  0.11822711066E+04  0.00000000000E+00 0.  1.
<mgrwt>
<rscale>  0 0.22411007E+04</rscale>
<asrwt>0</asrwt>
<pdfrwt beam="1">  1        2 0.20203416E+00 0.22411007E+04</pdfrwt>
<pdfrwt beam="2">  1       -2 0.14709951E+00 0.22411007E+04</pdfrwt>
<totfact> 0.46684966E+00</totfact>
</mgrwt>
</event>
<event>
 6    1  0.9364335E-007  0.4557490E+04  0.7818608E-02  0.7900649E-01
          2   -1    0    0  501    0  0.00000000000E+00  0.00000000000E+00  0.28730685403E+04  0.28730685403E+04  0.00000000000E+00 0. -1.
         -2   -1    0    0    0  501 -0.00000000000E+00 -0.00000000000E+00 -0.18073629945E+04  0.18073629945E+04  0.00000000000E+00 0.  1.
         23    2    1    2    0    0  0.32914270036E+03 -0.22105454147E+04  0.98497382932E+03  0.24440586773E+04  0.91670202825E+02 0.  0.
         13    1    3    3    0    0  0.20220470614E+03 -0.10988998279E+04  0.51989259212E+03  0.12323781409E+04  0.00000000000E+00 0. -1.
        -13    1    3    3    0    0  0.12693799423E+03 -0.11116455868E+04  0.46508123720E+03  0.12116805364E+04  0.00000000000E+00 0.  1.
         22    1    1    2    0    0 -0.32914270036E+03  0.22105454147E+04  0.80731716473E+02  0.22363728575E+04  0.00000000000E+00 0.  1.
<mgrwt>
<rscale>  0 0.45574896E+04</rscale>
<asrwt>0</asrwt>
<pdfrwt beam="1">  1        2 0.44201055E+00 0.45574896E+04</pdfrwt>
<pdfrwt beam="2">  1       -2 0.27805584E+00 0.45574896E+04</pdfrwt>
<totfact> 0.68102946E-02</totfact>
</mgrwt>
</event>
<event>
 6    1  0.9364335E-007  0.1674815E+04  0.7818608E-02  0.8775860E-01
          2   -1    0    0  501    0  0.00000000000E+00  0.00000000000E+00  0.16296911076E+04  0.16296911076E+04  0.00000000000E+00 0. -1.
         -2   -1    0    0    0  501 -0.00000000000E+00 -0.00000000000E+00 -0.43029683490E+03  0.43029683490E+03  0.00000000000E+00 0.  1.
         23    2    1    2    0    0 -0.56632639094E+03 -0.33689925798E+02  0.13548839655E+04  0.14717383044E+04  0.91882993062E+02 0.  0.
         13    1    3    3    0    0 -0.32409088003E+03 -0.40596767160E+02  0.87862062055E+03  0.93736715905E+03  0.00000000000E+00 0. -1.
        -13    1    3    3    0    0 -0.24223551091E+03  0.69068413615E+01  0.47626334495E+03  0.53437114532E+03  0.00000000000E+00 0.  1.
         22    1    1    2    0    0  0.56632639094E+03  0.33689925798E+02 -0.15548969281E+03  0.58824963812E+03  0.00000000000E+00 0.  1.
<mgrwt>
<rscale>  0 0.16748145E+04</rscale>
<asrwt>0</asrwt>
<pdfrwt beam="1">  1        2 0.25072171E+00 0.16748145E+04</pdfrwt>
<pdfrwt beam="2">  1       -2 0.66199514E-01 0.16748145E+04</pdfrwt>
<totfact> 0.21475109E+01</totfact>
</mgrwt>
</event>
<event>
 6    1  0.9364335E-007  0.1107327E+04  0.7818608E-02  0.9198080E-01
          2   -1    0    0  501    0  0.00000000000E+00  0.00000000000E+00  0.40064643054E+03  0.40064643054E+03  0.00000000000E+00 0. -1.
         -2   -1    0    0    0  501 -0.00000000000E+00 -0.00000000000E+00 -0.76512148104E+03  0.76512148104E+03  0.00000000000E+00 0.  1.
         23    2    1    2    0    0 -0.47630548689E+03 -0.25467145739E+03 -0.74499283002E+02  0.55273413290E+03  0.90776706586E+02 0.  0.
         13    1    3    3    0    0 -0.78930366888E+02 -0.81580578808E+02 -0.27176089709E+02  0.11672160686E+03  0.00000000000E+00 0. -1.
        -13    1    3    3    0    0 -0.39737512000E+03 -0.17309087858E+03 -0.47323193293E+02  0.43601252605E+03  0.00000000000E+00 0.  1.
         22    1    1    2    0    0  0.47630548689E+03  0.25467145739E+03 -0.28997576750E+03  0.61303377867E+03  0.00000000000E+00 0. -1.
<mgrwt>
<rscale>  0 0.11073269E+04</rscale>
<asrwt>0</asrwt>
<pdfrwt beam="1">  1        2 0.61637913E-01 0.11073269E+04</pdfrwt>
<pdfrwt beam="2">  1       -2 0.11771100E+00 0.11073269E+04</pdfrwt>
<totfact> 0.43857797E+01</totfact>
</mgrwt>
</event>
<event>
 6    1  0.9364335E-007  0.3912941E+04  0.7818608E-02  0.8022343E-01
         -1   -1    0    0    0  501 -0.00000000000E+00  0.00000000000E+00  0.16277822567E+04  0.16277822567E+04  0.00000000000E+00 0.  1.
          1   -1    0    0  501    0  0.00000000000E+00 -0.00000000000E+00 -0.23515291137E+04  0.23515291137E+04  0.00000000000E+00 0. -1.
         23    2    1    2    0    0  0.19419734478E+04  0.86593857590E+02 -0.57760487232E+03  0.20299225308E+04  0.90546809568E+02 0.  0.
         13    1    3    3    0    0  0.40768581088E+03  0.51665612189E+02 -0.10570792606E+03  0.42432442955E+03  0.00000000000E+00 0. -1.
        -13    1    3    3    0    0  0.15342876369E+04  0.34928245401E+02 -0.47189694626E+03  0.16055981013E+04  0.00000000000E+00 0.  1.
         22    1    1    2    0    0 -0.19419734478E+04 -0.86593857590E+02 -0.14614198465E+03  0.19493888395E+04  0.00000000000E+00 0.  1.
<mgrwt>
<rscale>  0 0.39129413E+04</rscale>
<asrwt>0</asrwt>
<pdfrwt beam="1">  1        1 0.36177371E+00 0.39129413E+04</pdfrwt>
<pdfrwt beam="2">  1       -1 0.25042804E+00 0.39129413E+04</pdfrwt>
<totfact> 0.93679139E-02</totfact>
</mgrwt>
</event>
<event>
 6    1  0.9364335E-007  0.2840672E+04  0.7818608E-02  0.8290751E-01
          2   -1    0    0  501    0  0.00000000000E+00  0.00000000000E+00  0.16424635235E+04  0.16424635235E+04  0.00000000000E+00 0. -1.
         -2   -1    0    0    0  501 -0.00000000000E+00 -0.00000000000E+00 -0.12282493767E+04  0.12282493767E+04  0.00000000000E+00 0.  1.
         23    2    1    2    0    0 -0.10094770481E+04 -0.24658452447E+03 -0.76900475441E+03  0.12959574250E+04  0.91046673941E+02 0.  0.
         13    1    3    3    0    0 -0.11959802831E+03 -0.26983537064E+01 -0.72375431068E+02  0.13981835541E+03  0.00000000000E+00 0.  1.
        -13    1    3    3    0    0 -0.88987901976E+03 -0.24388617077E+03 -0.69662932335E+03  0.11561390696E+04  0.00000000000E+00 0. -1.
         22    1    1    2    0    0  0.10094770481E+04  0.24658452447E+03  0.11832189012E+04  0.15747554752E+04  0.00000000000E+00 0. -1.
<mgrwt>
<rscale>  0 0.28406723E+04</rscale>
<asrwt>0</asrwt>
<pdfrwt beam="1">  1        2 0.25268670E+00 0.28406723E+04</pdfrwt>
<pdfrwt beam="2">  1       -2 0.18896144E+00 0.28406723E+04</pdfrwt>
<totfact> 0.14425728E+00</totfact>
</mgrwt>
</event>
<event>
 6    1  0.9364335E-007  0.6553186E+03  0.7818608E-02  0.9796850E-01
          1   -1    0    0  501    0  0.00000000000E+00  0.00000000000E+00  0.10859003411E+04  0.10859003411E+04  0.00000000000E+00 0. -1.
         -1   -1    0    0    0  501 -0.00000000000E+00 -0.00000000000E+00 -0.98867824160E+02  0.98867824160E+02  0.00000000000E+00 0.  1.
         23    2    1    2    0    0  0.97736393024E+01  0.66355090289E+02  0.10707348934E+04  0.10775086209E+04  0.10026511945E+03 0.  0.
         13    1    3    3    0    0  0.37721636072E+02  0.27583271246E+02  0.86636452554E+03  0.86762391035E+03  0.00000000000E+00 0.  1.
        -13    1    3    3    0    0 -0.27947996769E+02  0.38771819043E+02  0.20437036787E+03  0.20988471058E+03  0.00000000000E+00 0. -1.
         22    1    1    2    0    0 -0.97736393024E+01 -0.66355090289E+02 -0.83702376446E+02  0.10725954435E+03  0.00000000000E+00 0.  1.
<mgrwt>
<rscale>  0 0.65531856E+03</rscale>
<asrwt>0</asrwt>
<pdfrwt beam="1">  1        1 0.16706158E+00 0.65531856E+03</pdfrwt>
<pdfrwt beam="2">  1       -1 0.15210435E-01 0.65531856E+03</pdfrwt>
<totfact> 0.42412054E+02</totfact>
</mgrwt>
</event>
<event>
 6    1  0.9364335E-007  0.3250763E+04  0.7818608E-02  0.8175538E-01
          1   -1    0    0  501    0  0.00000000000E+00  0.00000000000E+00  0.16886595676E+04  0.16886595676E+04  0.00000000000E+00 0. -1.
         -1   -1    0    0    0  501 -0.00000000000E+00 -0.00000000000E+00 -0.15644744102E+04  0.15644744102E+04  0.00000000000E+00 0.  1.
         23    2    1    2    0    0  0.94935139478E+03 -0.11545675879E+04  0.69776790560E+03  0.16521056974E+04  0.90987908412E+02 0.  0.
         13    1    3    3    0    0  0.76077591125E+03 -0.95798904023E+03  0.60138480342E+03  0.13631532086E+04  0.00000000000E+00 0.  1.
        -13    1    3    3    0    0  0.18857548353E+03 -0.19657854763E+03  0.96383102180E+02  0.28895248876E+03  0.00000000000E+00 0. -1.
         22    1    1    2    0    0 -0.94935139478E+03  0.11545675879E+04 -0.57358274820E+03  0.16010282804E+04  0.00000000000E+00 0.  1.
<mgrwt>
<rscale>  0 0.32507628E+04</rscale>
<asrwt>0</asrwt>
<pdfrwt beam="1">  1        1 0.25979378E+00 0.32507628E+04</pdfrwt>
<pdfrwt beam="2">  1       -1 0.24068837E+00 0.32507628E+04</pdfrwt>
<totfact> 0.32429908E-01</totfact>
</mgrwt>
</event>
<event>
 6    1  0.9364335E-007  0.2509243E+04  0.7818608E-02  0.8399700E-01
         -2   -1    0    0    0  501 -0.00000000000E+00  0.00000000000E+00  0.87972708603E+03  0.87972708603E+03  0.00000000000E+00 0.  1.
          2   -1    0    0  501    0  0.00000000000E+00 -0.00000000000E+00 -0.17892772521E+04  0.17892772521E+04  0.00000000000E+00 0. -1.
         23    2    1    2    0    0 -0.55371051727E+03 -0.51742157745E+03  0.60593290840E+03  0.97459902216E+03  0.91477531487E+02 0.  0.
         11    1    3    3    0    0 -0.20912612744E+03 -0.17689618040E+03  0.27334918032E+03  0.38696998617E+03  0.00000000000E+00 0. -1.
        -11    1    3    3    0    0 -0.34458438983E+03 -0.34052539705E+03  0.33258372808E+03  0.58762903599E+03  0.00000000000E+00 0.  1.
         22    1    1    2    0    0  0.55371051727E+03  0.51742157745E+03 -0.15154830744E+04  0.16944053159E+04  0.00000000000E+00 0. -1.
<mgrwt>
<rscale>  0 0.25092434E+04</rscale>
<asrwt>0</asrwt>
<pdfrwt beam="1">  1        2 0.27527342E+00 0.25092434E+04</pdfrwt>
<pdfrwt beam="2">  1       -2 0.13534263E+00 0.25092434E+04</pdfrwt>
<totfact> 0.30561784E+00</totfact>
</mgrwt>
</event>
<event>
 6    1  0.9364335E-007  0.1086497E+04  0.7818608E-02  0.9218454E-01
         -1   -1    0    0    0  501 -0.00000000000E+00  0.00000000000E+00  0.65685087708E+02  0.65685087708E+02  0.00000000000E+00 0.  1.
          1   -1    0    0  501    0  0.00000000000E+00 -0.00000000000E+00 -0.44929325288E+04  0.44929325288E+04  0.00000000000E+00 0. -1.
         23    2    1    2    0    0  0.27138420932E+03 -0.82593649276E+02 -0.41542481141E+04  0.41649175625E+04  0.91048389231E+02 0.  0.
         13    1    3    3    0    0  0.23609545165E+02 -0.14510545826E+02 -0.94230005233E+03  0.94270746003E+03  0.00000000000E+00 0. -1.
        -13    1    3    3    0    0  0.24777466416E+03 -0.68083103450E+02 -0.32119480618E+04  0.32222101025E+04  0.00000000000E+00 0.  1.
         22    1    1    2    0    0 -0.27138420932E+03  0.82593649276E+02 -0.27299932702E+03  0.39370005401E+03  0.00000000000E+00 0.  1.
<mgrwt>
<rscale>  0 0.10864965E+04</rscale>
<asrwt>0</asrwt>
<pdfrwt beam="1">  1        1 0.69122026E+00 0.10864965E+04</pdfrwt>
<pdfrwt beam="2">  1       -1 0.10105400E-01 0.10864965E+04</pdfrwt>
<totfact> 0.21525981E+00</totfact>
</mgrwt>
</event>
<event>
 6    1  0.9364335E-007  0.1674135E+04  0.7818608E-02  0.8776255E-01
          1   -1    0    0  501    0  0.00000000000E+00  0.00000000000E+00  0.65720016378E+03  0.65720016378E+03  0.00000000000E+00 0. -1.
         -1   -1    0    0    0  501 -0.00000000000E+00 -0.00000000000E+00 -0.10661626832E+04  0.10661626832E+04  0.00000000000E+00 0.  1.
         23    2    1    2    0    0 -0.77780814586E+03  0.19040626048E+03  0.36474594891E+02  0.80703633389E+03  0.93472949846E+02 0.  0.
         11    1    3    3    0    0 -0.14583086017E+03  0.64926196582E+02 -0.16858783167E+02  0.16051875077E+03  0.00000000000E+00 0. -1.
        -11    1    3    3    0    0 -0.63197728569E+03  0.12548006389E+03  0.53333378058E+02  0.64651758311E+03  0.00000000000E+00 0.  1.
         22    1    1    2    0    0  0.77780814586E+03 -0.19040626048E+03 -0.44543711431E+03  0.91632651309E+03  0.00000000000E+00 0.  1.
<mgrwt>
<rscale>  0 0.16741353E+04</rscale>
<asrwt>0</asrwt>
<pdfrwt beam="1">  1        1 0.10110772E+00 0.16741353E+04</pdfrwt>
<pdfrwt beam="2">  1       -1 0.16402503E+00 0.16741353E+04</pdfrwt>
<totfact> 0.77866816E+00</totfact>
</mgrwt>
</event>
<event>
 6    1  0.9364335E-007  0.4707449E+03  0.7818608E-02  0.1021710E+00
         -2   -1    0    0    0  501 -0.00000000000E+00  0.00000000000E+00  0.62990637166E+02  0.62990637166E+02  0.00000000000E+00 0.  1.
          2   -1    0    0  501    0  0.00000000000E+00 -0.00000000000E+00 -0.87949869758E+03  0.87949869758E+03  0.00000000000E+00 0. -1.
         23    2    1    2    0    0  0.20137093650E+03 -0.44969262531E+02 -0.23663122313E+03  0.32699795783E+03  0.91437629172E+02 0.  0.
         13    1    3    3    0    0  0.19131680056E+03 -0.63362644266E+02 -0.22806641691E+03  0.30435379641E+03  0.00000000000E+00 0.  1.
        -13    1    3    3    0    0  0.10054135932E+02  0.18393381735E+02 -0.85648062205E+01  0.22644161424E+02  0.00000000000E+00 0. -1.
         22    1    1    2    0    0 -0.20137093650E+03  0.44969262531E+02 -0.57987683728E+03  0.61549137691E+03  0.00000000000E+00 0. -1.
<mgrwt>
<rscale>  0 0.47074487E+03</rscale>
<asrwt>0</asrwt>
<pdfrwt beam="1">  1        2 0.13530747E+00 0.47074487E+03</pdfrwt>
<pdfrwt beam="2">  1       -2 0.96908688E-02 0.47074487E+03</pdfrwt>
<totfact> 0.21921021E+03</totfact>
</mgrwt>
</event>
<event>
 6    1  0.9364335E-007  0.2950150E+04  0.7818608E-02  0.8258111E-01
          2   -1    0    0  501    0  0.00000000000E+00  0.00000000000E+00  0.22666441979E+04  0.22666441979E+04  0.00000000000E+00 0. -1.
         -2   -1    0    0    0  501 -0.00000000000E+00 -0.00000000000E+00 -0.95994177039E+03  0.95994177039E+03  0.00000000000E+00 0.  1.
         23    2    1    2    0    0 -0.99448511783E+03 -0.34179856639E+03 -0.47469355918E+03  0.11579635835E+04  0.98583852591E+02 0.  0.
         13    1    3    3    0    0 -0.74630819805E+03 -0.29126707411E+03 -0.38908300336E+03  0.89061665067E+03  0.00000000000E+00 0. -1.
        -13    1    3    3    0    0 -0.24817691978E+03 -0.50531492274E+02 -0.85610555820E+02  0.26734693282E+03  0.00000000000E+00 0.  1.
         22    1    1    2    0    0  0.99448511783E+03  0.34179856639E+03  0.17813959867E+04  0.20686223848E+04  0.00000000000E+00 0. -1.
<mgrwt>
<rscale>  0 0.29501501E+04</rscale>
<asrwt>0</asrwt>
<pdfrwt beam="1">  1        2 0.34871449E+00 0.29501501E+04</pdfrwt>
<pdfrwt beam="2">  1       -2 0.14768335E+00 0.29501501E+04</pdfrwt>
<totfact> 0.12707141E+00</totfact>
</mgrwt>
</event>
<event>
 6    1  0.9364335E-007  0.2002638E+04  0.7818608E-02  0.8605388E-01
          1   -1    0    0  501    0  0.00000000000E+00  0.00000000000E+00  0.10912348671E+04  0.10912348671E+04  0.00000000000E+00 0. -1.
         -1   -1    0    0    0  501 -0.00000000000E+00 -0.00000000000E+00 -0.91881238597E+03  0.91881238597E+03  0.00000000000E+00 0.  1.
         23    2    1    2    0    0  0.21978166740E+03 -0.67350008096E+03 -0.62065528733E+03  0.94661945242E+03  0.94705129946E+02 0.  0.
         13    1    3    3    0    0  0.13014360719E+02 -0.98997697090E+02 -0.12630861401E+03  0.16100864445E+03  0.00000000000E+00 0.  1.
        -13    1    3    3    0    0  0.20676730668E+03 -0.57450238387E+03 -0.49434667332E+03  0.78561080797E+03  0.00000000000E+00 0. -1.
         22    1    1    2    0    0 -0.21978166740E+03  0.67350008096E+03  0.79307776847E+03  0.10634278007E+04  0.00000000000E+00 0. -1.
<mgrwt>
<rscale>  0 0.20026384E+04</rscale>
<asrwt>0</asrwt>
<pdfrwt beam="1">  1        1 0.16788229E+00 0.20026384E+04</pdfrwt>
<pdfrwt beam="2">  1       -1 0.14135575E+00 0.20026384E+04</pdfrwt>
<totfact> 0.48799726E+00</totfact>
</mgrwt>
</event>
<event>
 6    1  0.9364335E-007  0.1215756E+04  0.7818608E-02  0.9099176E-01
          2   -1    0    0  501    0  0.00000000000E+00  0.00000000000E+00  0.15206400062E+04  0.15206400062E+04  0.00000000000E+00 0. -1.
         -2   -1    0    0    0  501 -0.00000000000E+00 -0.00000000000E+00 -0.24299995442E+03  0.24299995442E+03  0.00000000000E+00 0.  1.
         23    2    1    2    0    0  0.12575956185E+03  0.47051536604E+03  0.11619797385E+04  0.12630628086E+04  0.89053740969E+02 0.  0.
         11    1    3    3    0    0  0.11724669563E+03  0.31721286098E+03  0.86454793166E+03  0.92833933071E+03  0.00000000000E+00 0. -1.
        -11    1    3    3    0    0  0.85128662200E+01  0.15330250506E+03  0.29743180683E+03  0.33472347791E+03  0.00000000000E+00 0.  1.
         22    1    1    2    0    0 -0.12575956185E+03 -0.47051536604E+03  0.11566031334E+03  0.50057715205E+03  0.00000000000E+00 0.  1.
<mgrwt>
<rscale>  0 0.12157557E+04</rscale>
<asrwt>0</asrwt>
<pdfrwt beam="1">  1        2 0.23394461E+00 0.12157557E+04</pdfrwt>
<pdfrwt beam="2">  1       -2 0.37384609E-01 0.12157557E+04</pdfrwt>
<totfact> 0.82149349E+01</totfact>
</mgrwt>
</event>
<event>
 6    1  0.9364335E-007  0.1604426E+04  0.7818608E-02  0.8817833E-01
          2   -1    0    0  501    0  0.00000000000E+00  0.00000000000E+00  0.12226656792E+04  0.12226656792E+04  0.00000000000E+00 0. -1.
         -2   -1    0    0    0  501 -0.00000000000E+00 -0.00000000000E+00 -0.52634670911E+03  0.52634670911E+03  0.00000000000E+00 0.  1.
         23    2    1    2    0    0  0.63425752816E+03 -0.48643434603E+03  0.32359250698E+03  0.86706794487E+03  0.90519199218E+02 0.  0.
         11    1    3    3    0    0  0.24960253919E+02 -0.33606504648E+01  0.89111135906E+00  0.25201236610E+02  0.00000000000E+00 0.  1.
        -11    1    3    3    0    0  0.60929727424E+03 -0.48307369557E+03  0.32270139562E+03  0.84186670826E+03  0.00000000000E+00 0. -1.
         22    1    1    2    0    0 -0.63425752816E+03  0.48643434603E+03  0.37272646312E+03  0.88194444345E+03  0.00000000000E+00 0. -1.
<mgrwt>
<rscale>  0 0.16044264E+04</rscale>
<asrwt>0</asrwt>
<pdfrwt beam="1">  1        2 0.18810241E+00 0.16044264E+04</pdfrwt>
<pdfrwt beam="2">  1       -2 0.80976417E-01 0.16044264E+04</pdfrwt>
<totfact> 0.23675231E+01</totfact>
</mgrwt>
</event>
<event>
 6    1  0.9364335E-007  0.1087677E+04  0.7818608E-02  0.9217287E-01
         -2   -1    0    0    0  501 -0.00000000000E+00  0.00000000000E+00  0.21422367101E+03  0.21422367101E+03  0.00000000000E+00 0.  1.
          2   -1    0    0  501    0  0.00000000000E+00 -0.00000000000E+00 -0.13806137033E+04  0.13806137033E+04  0.00000000000E+00 0. -1.
         23    2    1    2    0    0 -0.36019522160E+03  0.78397580722E+02 -0.11660006149E+04  0.12262089300E+04  0.90244821823E+02 0.  0.
         13    1    3    3    0    0 -0.16656916228E+03  0.64664537522E+01 -0.41245813444E+03  0.44486943423E+03  0.00000000000E+00 0.  1.
        -13    1    3    3    0    0 -0.19362605933E+03  0.71931126970E+02 -0.75354248042E+03  0.78133949579E+03  0.00000000000E+00 0. -1.
         22    1    1    2    0    0  0.36019522160E+03 -0.78397580722E+02 -0.38941747476E+00  0.36862844434E+03  0.00000000000E+00 0.  1.
<mgrwt>
<rscale>  0 0.10876767E+04</rscale>
<asrwt>0</asrwt>
<pdfrwt beam="1">  1        2 0.21240211E+00 0.10876767E+04</pdfrwt>
<pdfrwt beam="2">  1       -2 0.32957487E-01 0.10876767E+04</pdfrwt>
<totfact> 0.12660288E+02</totfact>
</mgrwt>
</event>
<event>
 6    1  0.9364335E-007  0.2899944E+04  0.7818608E-02  0.8272894E-01
          2   -1    0    0  501    0  0.00000000000E+00  0.00000000000E+00  0.29242532928E+04  0.29242532928E+04  0.00000000000E+00 0. -1.
         -2   -1    0    0    0  501 -0.00000000000E+00 -0.00000000000E+00 -0.71895912759E+03  0.71895912759E+03  0.00000000000E+00 0.  1.
         23    2    1    2    0    0  0.12572990159E+02  0.10251274009E+04 -0.18196609262E+03  0.10451254691E+04  0.90173827302E+02 0.  0.
         13    1    3    3    0    0 -0.13682926623E+02  0.56801375128E+03 -0.60300275948E+02  0.57136937912E+03  0.00000000000E+00 0. -1.
        -13    1    3    3    0    0  0.26255916782E+02  0.45711364959E+03 -0.12166581668E+03  0.47375608994E+03  0.00000000000E+00 0.  1.
         22    1    1    2    0    0 -0.12572990159E+02 -0.10251274009E+04  0.23872602579E+04  0.25980869514E+04  0.00000000000E+00 0. -1.
<mgrwt>
<rscale>  0 0.28999439E+04</rscale>
<asrwt>0</asrwt>
<pdfrwt beam="1">  1        2 0.44988511E+00 0.28999439E+04</pdfrwt>
<pdfrwt beam="2">  1       -2 0.11060910E+00 0.28999439E+04</pdfrwt>
<totfact> 0.10854637E+00</totfact>
</mgrwt>
</event>
<event>
 6    1  0.9364335E-007  0.3443778E+04  0.7818608E-02  0.8127245E-01
         -2   -1    0    0    0  501 -0.00000000000E+00  0.00000000000E+00  0.13303229512E+04  0.13303229512E+04  0.00000000000E+00 0.  1.
          2   -1    0    0  501    0  0.00000000000E+00 -0.00000000000E+00 -0.22287080365E+04  0.22287080365E+04  0.00000000000E+00 0. -1.
         23    2    1    2    0    0  0.46344404020E+03 -0.16060635708E+04 -0.87014609363E+03  0.18872002509E+04  0.10074716241E+03 0.  0.
         11    1    3    3    0    0  0.34330960605E+03 -0.10270981099E+04 -0.58179823045E+03  0.12293417727E+04  0.00000000000E+00 0.  1.
        -11    1    3    3    0    0  0.12013443415E+03 -0.57896546090E+03 -0.28834786318E+03  0.65785847823E+03  0.00000000000E+00 0. -1.
         22    1    1    2    0    0 -0.46344404020E+03  0.16060635708E+04 -0.28238991596E+02  0.16718307368E+04  0.00000000000E+00 0.  1.
<mgrwt>
<rscale>  0 0.34437778E+04</rscale>
<asrwt>0</asrwt>
<pdfrwt beam="1">  1        2 0.34287816E+00 0.34437778E+04</pdfrwt>
<pdfrwt beam="2">  1       -2 0.20466507E+00 0.34437778E+04</pdfrwt>
<totfact> 0.50916717E-01</totfact>
</mgrwt>
</event>
<event>
 6    1  0.9364335E-007  0.3659638E+04  0.7818608E-02  0.8076966E-01
          2   -1    0    0  501    0  0.00000000000E+00  0.00000000000E+00  0.35430401533E+04  0.35430401533E+04  0.00000000000E+00 0. -1.
         -2   -1    0    0    0  501 -0.00000000000E+00 -0.00000000000E+00 -0.94501818244E+03  0.94501818244E+03  0.00000000000E+00 0.  1.
         23    2    1    2    0    0  0.11937843210E+04  0.33163968623E+02 -0.39901360454E+03  0.12618464558E+04  0.82606099153E+02 0.  0.
         13    1    3    3    0    0  0.69836344069E+03  0.35796454458E+02 -0.27268123822E+03  0.75056507987E+03  0.00000000000E+00 0. -1.
        -13    1    3    3    0    0  0.49542088030E+03 -0.26324858345E+01 -0.12633236632E+03  0.51128137596E+03  0.00000000000E+00 0.  1.
         22    1    1    2    0    0 -0.11937843210E+04 -0.33163968623E+02  0.29970355754E+04  0.32262118799E+04  0.00000000000E+00 0. -1.
<mgrwt>
<rscale>  0 0.36596379E+04</rscale>
<asrwt>0</asrwt>
<pdfrwt beam="1">  1        2 0.54508310E+00 0.36596379E+04</pdfrwt>
<pdfrwt beam="2">  1       -2 0.14538741E+00 0.36596379E+04</pdfrwt>
<totfact> 0.19972187E-01</totfact>
</mgrwt>
</event>
<event>
 6    1  0.9364335E-007  0.3321406E+04  0.7818608E-02  0.8157470E-01
          1   -1    0    0  501    0  0.00000000000E+00  0.00000000000E+00  0.17091030774E+04  0.17091030774E+04  0.00000000000E+00 0. -1.
         -1   -1    0    0    0  501 -0.00000000000E+00 -0.00000000000E+00 -0.16136737270E+04  0.16136737270E+04  0.00000000000E+00 0.  1.
         23    2    1    2    0    0 -0.10380564890E+03  0.16530317460E+04 -0.53754080453E+02  0.16597839415E+04  0.93293435758E+02 0.  0.
         13    1    3    3    0    0 -0.72286135026E+02  0.88259644513E+03 -0.72137991682E+02  0.88848503652E+03  0.00000000000E+00 0. -1.
        -13    1    3    3    0    0 -0.31519513879E+02  0.77043530089E+03  0.18383911228E+02  0.77129890497E+03  0.00000000000E+00 0.  1.
         22    1    1    2    0    0  0.10380564890E+03 -0.16530317460E+04  0.14918343081E+03  0.16629928629E+04  0.00000000000E+00 0. -1.
<mgrwt>
<rscale>  0 0.33214062E+04</rscale>
<asrwt>0</asrwt>
<pdfrwt beam="1">  1        1 0.26293894E+00 0.33214062E+04</pdfrwt>
<pdfrwt beam="2">  1       -1 0.24825750E+00 0.33214062E+04</pdfrwt>
<totfact> 0.27848523E-01</totfact>
</mgrwt>
</event>
<event>
 6    1  0.9364335E-007  0.4237248E+04  0.7818608E-02  0.7958324E-01
         -1   -1    0    0    0  501 -0.00000000000E+00  0.00000000000E+00  0.20108182426E+04  0.20108182426E+04  0.00000000000E+00 0.  1.
          1   -1    0    0  501    0  0.00000000000E+00 -0.00000000000E+00 -0.22322097934E+04  0.22322097934E+04  0.00000000000E+00 0. -1.
         23    2    1    2    0    0 -0.80721370192E+02  0.64798305416E+03  0.19064446652E+04  0.20172506572E+04  0.91493029949E+02 0.  0.
         11    1    3    3    0    0 -0.20385938674E+02  0.45823822643E+03  0.13915828481E+04  0.14652305900E+04  0.00000000000E+00 0.  1.
        -11    1    3    3    0    0 -0.60335431519E+02  0.18974482772E+03  0.51486181706E+03  0.55202006722E+03  0.00000000000E+00 0. -1.
         22    1    1    2    0    0  0.80721370192E+02 -0.64798305416E+03 -0.21278362159E+04  0.22257773788E+04  0.00000000000E+00 0. -1.
<mgrwt>
<rscale>  0 0.42372482E+04</rscale>
<asrwt>0</asrwt>
<pdfrwt beam="1">  1        1 0.34341689E+00 0.42372482E+04</pdfrwt>
<pdfrwt beam="2">  1       -1 0.30935665E+00 0.42372482E+04</pdfrwt>
<totfact> 0.45646355E-02</totfact>
</mgrwt>
</event>
<event>
 6    1  0.9364335E-007  0.2278400E+04  0.7818608E-02  0.8486487E-01
         -1   -1    0    0    0  501 -0.00000000000E+00  0.00000000000E+00  0.87739496503E+03  0.87739496503E+03  0.00000000000E+00 0.  1.
          1   -1    0    0  501    0  0.00000000000E+00 -0.00000000000E+00 -0.14791243128E+04  0.14791243128E+04  0.00000000000E+00 0. -1.
         23    2    1    2    0    0  0.72421759355E+03  0.55472800643E+03 -0.10038499000E+04  0.13595663088E+04  0.92150107464E+02 0.  0.
         13    1    3    3    0    0  0.12975962508E+03  0.14047530157E+03 -0.18317424878E+03  0.26480875376E+03  0.00000000000E+00 0. -1.
        -13    1    3    3    0    0  0.59445796847E+03  0.41425270487E+03 -0.82067565122E+03  0.10947575550E+04  0.00000000000E+00 0.  1.
         22    1    1    2    0    0 -0.72421759355E+03 -0.55472800643E+03  0.40212055225E+03  0.99695296903E+03  0.00000000000E+00 0.  1.
<mgrwt>
<rscale>  0 0.22783996E+04</rscale>
<asrwt>0</asrwt>
<pdfrwt beam="1">  1        1 0.22755759E+00 0.22783996E+04</pdfrwt>
<pdfrwt beam="2">  1       -1 0.13498384E+00 0.22783996E+04</pdfrwt>
<totfact> 0.28224267E+00</totfact>
</mgrwt>
</event>
<event>
 6    1  0.9364335E-007  0.2786244E+04  0.7818608E-02  0.8307552E-01
         -2   -1    0    0    0  501 -0.00000000000E+00  0.00000000000E+00  0.70216844852E+03  0.70216844852E+03  0.00000000000E+00 0.  1.
          2   -1    0    0  501    0  0.00000000000E+00 -0.00000000000E+00 -0.27639927848E+04  0.27639927848E+04  0.00000000000E+00 0. -1.
         23    2    1    2    0    0  0.11262696246E+04 -0.15686507412E+03 -0.20299620490E+04  0.23285738195E+04  0.91761616034E+02 0.  0.
         11    1    3    3    0    0  0.30891519549E+03 -0.79013631602E+01 -0.59456486579E+03  0.67007343565E+03  0.00000000000E+00 0. -1.
        -11    1    3    3    0    0  0.81735442908E+03 -0.14896371096E+03 -0.14353971832E+04  0.16585003839E+04  0.00000000000E+00 0.  1.
         22    1    1    2    0    0 -0.11262696246E+04  0.15686507412E+03 -0.31862287364E+02  0.11375874138E+04  0.00000000000E+00 0.  1.
<mgrwt>
<rscale>  0 0.27862437E+04</rscale>
<asrwt>0</asrwt>
<pdfrwt beam="1">  1        2 0.42522966E+00 0.27862437E+04</pdfrwt>
<pdfrwt beam="2">  1       -2 0.10802591E+00 0.27862437E+04</pdfrwt>
<totfact> 0.14532712E+00</totfact>
</mgrwt>
</event>
<event>
 6    1  0.9364335E-007  0.6260288E+03  0.7818608E-02  0.9852829E-01
         -1   -1    0    0    0  501 -0.00000000000E+00  0.00000000000E+00  0.93692615070E+03  0.93692615070E+03  0.00000000000E+00 0.  1.
          1   -1    0    0  501    0  0.00000000000E+00 -0.00000000000E+00 -0.10457390043E+03  0.10457390043E+03  0.00000000000E+00 0. -1.
         23    2    1    2    0    0 -0.54702866384E+02  0.35821327858E+02  0.92294295369E+03  0.92977607578E+03  0.91565737041E+02 0.  0.
         13    1    3    3    0    0 -0.26034449178E+02  0.58129092221E+02  0.35469887019E+03  0.36037213047E+03  0.00000000000E+00 0.  1.
        -13    1    3    3    0    0 -0.28668417206E+02 -0.22307764364E+02  0.56824408351E+03  0.56940394531E+03  0.00000000000E+00 0. -1.
         22    1    1    2    0    0  0.54702866384E+02 -0.35821327858E+02 -0.90590703422E+02  0.11172397534E+03  0.00000000000E+00 0. -1.
<mgrwt>
<rscale>  0 0.62602882E+03</rscale>
<asrwt>0</asrwt>
<pdfrwt beam="1">  1        1 0.16088293E-01 0.62602882E+03</pdfrwt>
<pdfrwt beam="2">  1       -1 0.14414248E+00 0.62602882E+03</pdfrwt>
<totfact> 0.13922350E+02</totfact>
</mgrwt>
</event>
<event>
 6    1  0.9364335E-007  0.8802258E+03  0.7818608E-02  0.9450643E-01
          1   -1    0    0  501    0  0.00000000000E+00  0.00000000000E+00  0.59144621219E+03  0.59144621219E+03  0.00000000000E+00 0. -1.
         -1   -1    0    0    0  501 -0.00000000000E+00 -0.00000000000E+00 -0.32750123516E+03  0.32750123516E+03  0.00000000000E+00 0.  1.
         23    2    1    2    0    0 -0.16095472706E+03  0.35567734413E+03 -0.73107506397E+02  0.40317891993E+03  0.69251257697E+02 0.  0.
         13    1    3    3    0    0 -0.95726180134E+02  0.19235641013E+03 -0.74199702449E+02  0.22731054953E+03  0.00000000000E+00 0. -1.
        -13    1    3    3    0    0 -0.65228546925E+02  0.16332093400E+03  0.10921960518E+01  0.17586837040E+03  0.00000000000E+00 0.  1.
         22    1    1    2    0    0  0.16095472706E+03 -0.35567734413E+03  0.33705248343E+03  0.51576852742E+03  0.00000000000E+00 0. -1.
<mgrwt>
<rscale>  0 0.88022580E+03</rscale>
<asrwt>0</asrwt>
<pdfrwt beam="1">  1        1 0.90991725E-01 0.88022580E+03</pdfrwt>
<pdfrwt beam="2">  1       -1 0.50384805E-01 0.88022580E+03</pdfrwt>
<totfact> 0.13948442E+02</totfact>
</mgrwt>
</event>
<event>
 6    1  0.9364335E-007  0.4454504E+04  0.7818608E-02  0.7918651E-01
         -1   -1    0    0    0  501 -0.00000000000E+00  0.00000000000E+00  0.16009652129E+04  0.16009652129E+04  0.00000000000E+00 0.  1.
          1   -1    0    0  501    0  0.00000000000E+00 -0.00000000000E+00 -0.30985379284E+04  0.30985379284E+04  0.00000000000E+00 0. -1.
         23    2    1    2    0    0 -0.11578513418E+04 -0.65063189315E+03 -0.26341609030E+04  0.29514258267E+04  0.90383391097E+02 0.  0.
         13    1    3    3    0    0 -0.34489414901E+03 -0.16671184928E+03 -0.83504701538E+03  0.91872103089E+03  0.00000000000E+00 0. -1.
        -13    1    3    3    0    0 -0.81295719282E+03 -0.48392004387E+03 -0.17991138876E+04  0.20327047958E+04  0.00000000000E+00 0.  1.
         22    1    1    2    0    0  0.11578513418E+04  0.65063189315E+03  0.11365881875E+04  0.17480773147E+04  0.00000000000E+00 0.  1.
<mgrwt>
<rscale>  0 0.44545040E+04</rscale>
<asrwt>0</asrwt>
<pdfrwt beam="1">  1        1 0.47669814E+00 0.44545040E+04</pdfrwt>
<pdfrwt beam="2">  1       -1 0.24630234E+00 0.44545040E+04</pdfrwt>
<totfact> 0.28114608E-02</totfact>
</mgrwt>
</event>
<event>
 6    1  0.9364335E-007  0.4472158E+04  0.7818608E-02  0.7915529E-01
         -3   -1    0    0    0  501 -0.00000000000E+00  0.00000000000E+00  0.23415631275E+04  0.23415631275E+04  0.00000000000E+00 0.  1.
          3   -1    0    0  501    0  0.00000000000E+00 -0.00000000000E+00 -0.21353466449E+04  0.21353466449E+04  0.00000000000E+00 0. -1.
         23    2    1    2    0    0  0.14630258093E+04  0.17842363121E+03  0.17852900227E+04  0.23168744126E+04  0.91471677277E+02 0.  0.
         13    1    3    3    0    0  0.61499652320E+03  0.29670249752E+02  0.74909060427E+03  0.96965858975E+03  0.00000000000E+00 0.  1.
        -13    1    3    3    0    0  0.84802928614E+03  0.14875338146E+03  0.10361994184E+04  0.13472158229E+04  0.00000000000E+00 0. -1.
         22    1    1    2    0    0 -0.14630258093E+04 -0.17842363121E+03 -0.15790735401E+04  0.21600353599E+04  0.00000000000E+00 0. -1.
<mgrwt>
<rscale>  0 0.44721579E+04</rscale>
<asrwt>0</asrwt>
<pdfrwt beam="1">  1        3 0.32851487E+00 0.44721579E+04</pdfrwt>
<pdfrwt beam="2">  1       -3 0.36024048E+00 0.44721579E+04</pdfrwt>
<totfact> 0.92289748E-04</totfact>
</mgrwt>
</event>
<event>
 6    1  0.9364335E-007  0.5521600E+04  0.7818608E-02  0.7752724E-01
         -2   -1    0    0    0  501 -0.00000000000E+00  0.00000000000E+00  0.23611817350E+04  0.23611817350E+04  0.00000000000E+00 0.  1.
          2   -1    0    0  501    0  0.00000000000E+00 -0.00000000000E+00 -0.32280522464E+04  0.32280522464E+04  0.00000000000E+00 0. -1.
         23    2    1    2    0    0 -0.12706171739E+04 -0.18953526810E+04  0.11381892607E+04  0.25516206950E+04  0.91997773175E+02 0.  0.
         13    1    3    3    0    0 -0.58904317893E+03 -0.82569180701E+03  0.46678655237E+03  0.11165251955E+04  0.00000000000E+00 0. -1.
        -13    1    3    3    0    0 -0.68157399499E+03 -0.10696608739E+04  0.67140270836E+03  0.14350954995E+04  0.00000000000E+00 0.  1.
         22    1    1    2    0    0  0.12706171739E+04  0.18953526810E+04 -0.20050597721E+04  0.30376132864E+04  0.00000000000E+00 0. -1.
<mgrwt>
<rscale>  0 0.55216005E+04</rscale>
<asrwt>0</asrwt>
<pdfrwt beam="1">  1        2 0.49662342E+00 0.55216005E+04</pdfrwt>
<pdfrwt beam="2">  1       -2 0.36325873E+00 0.55216005E+04</pdfrwt>
<totfact> 0.11124553E-02</totfact>
</mgrwt>
</event>
<event>
 6    1  0.9364335E-007  0.1626506E+04  0.7818608E-02  0.8804428E-01
         -2   -1    0    0    0  501 -0.00000000000E+00  0.00000000000E+00  0.42059410876E+03  0.42059410876E+03  0.00000000000E+00 0.  1.
          2   -1    0    0  501    0  0.00000000000E+00 -0.00000000000E+00 -0.15724903769E+04  0.15724903769E+04  0.00000000000E+00 0. -1.
         23    2    1    2    0    0 -0.71921716114E+02 -0.64352811334E+03 -0.11757922923E+04  0.13451090340E+04  0.86773456926E+02 0.  0.
         11    1    3    3    0    0 -0.50212954775E+02 -0.18595408698E+03 -0.40494469137E+03  0.44841996650E+03  0.00000000000E+00 0.  1.
        -11    1    3    3    0    0 -0.21708761339E+02 -0.45757402636E+03 -0.77084760098E+03  0.89668906755E+03  0.00000000000E+00 0. -1.
         22    1    1    2    0    0  0.71921716114E+02  0.64352811334E+03  0.23896024212E+02  0.64797545160E+03  0.00000000000E+00 0.  1.
<mgrwt>
<rscale>  0 0.16265057E+04</rscale>
<asrwt>0</asrwt>
<pdfrwt beam="1">  1        2 0.24192160E+00 0.16265057E+04</pdfrwt>
<pdfrwt beam="2">  1       -2 0.64706785E-01 0.16265057E+04</pdfrwt>
<totfact> 0.24374569E+01</totfact>
</mgrwt>
</event>
<event>
 6    1  0.9364335E-007  0.1981564E+04  0.7818608E-02  0.8615289E-01
         -2   -1    0    0    0  501 -0.00000000000E+00  0.00000000000E+00  0.62869383769E+03  0.62869383769E+03  0.00000000000E+00 0.  1.
          2   -1    0    0  501    0  0.00000000000E+00 -0.00000000000E+00 -0.15614094460E+04  0.15614094460E+04  0.00000000000E+00 0. -1.
         23    2    1    2    0    0  0.56524577295E+03 -0.74815337614E+03 -0.12083298807E+03  0.94978491847E+03  0.90854401557E+02 0.  0.
         13    1    3    3    0    0  0.25642379281E+03 -0.38920482397E+03 -0.25572250470E+02  0.46678420765E+03  0.00000000000E+00 0.  1.
        -13    1    3    3    0    0  0.30882198014E+03 -0.35894855217E+03 -0.95260737601E+02  0.48300071082E+03  0.00000000000E+00 0. -1.
         22    1    1    2    0    0 -0.56524577295E+03  0.74815337614E+03 -0.81188262026E+03  0.12403183652E+04  0.00000000000E+00 0. -1.
<mgrwt>
<rscale>  0 0.19815635E+04</rscale>
<asrwt>0</asrwt>
<pdfrwt beam="1">  1        2 0.24021684E+00 0.19815635E+04</pdfrwt>
<pdfrwt beam="2">  1       -2 0.96722130E-01 0.19815635E+04</pdfrwt>
<totfact> 0.97464011E+00</totfact>
</mgrwt>
</event>
<event>
 6    1  0.9364335E-007  0.1379969E+04  0.7818608E-02  0.8968447E-01
          1   -1    0    0  501    0  0.00000000000E+00  0.00000000000E+00  0.20874380060E+04  0.20874380060E+04  0.00000000000E+00 0. -1.
         -1   -1    0    0    0  501 -0.00000000000E+00 -0.00000000000E+00 -0.22806836059E+03  0.22806836059E+03  0.00000000000E+00 0.  1.
         23    2    1    2    0    0  0.45706547397E+03  0.41350096624E+03  0.42476125458E+03  0.75409894647E+03  0.91384906316E+02 0.  0.
         11    1    3    3    0    0  0.20021104434E+03  0.18534516664E+03  0.13372294043E+03  0.30384061261E+03  0.00000000000E+00 0. -1.
        -11    1    3    3    0    0  0.25685442963E+03  0.22815579960E+03  0.29103831415E+03  0.45025833387E+03  0.00000000000E+00 0.  1.
         22    1    1    2    0    0 -0.45706547397E+03 -0.41350096624E+03  0.14346083909E+04  0.15614074201E+04  0.00000000000E+00 0. -1.
<mgrwt>
<rscale>  0 0.13799689E+04</rscale>
<asrwt>0</asrwt>
<pdfrwt beam="1">  1        1 0.32114430E+00 0.13799689E+04</pdfrwt>
<pdfrwt beam="2">  1       -1 0.35087441E-01 0.13799689E+04</pdfrwt>
<totfact> 0.19634170E+01</totfact>
</mgrwt>
</event>
<event>
 6    1  0.9364335E-007  0.4288277E+03  0.7818608E-02  0.1034231E+00
          1   -1    0    0  501    0  0.00000000000E+00  0.00000000000E+00  0.15366464006E+03  0.15366464006E+03  0.00000000000E+00 0. -1.
         -1   -1    0    0    0  501 -0.00000000000E+00 -0.00000000000E+00 -0.29917940831E+03  0.29917940831E+03  0.00000000000E+00 0.  1.
         23    2    1    2    0    0 -0.21914633956E+01 -0.20362482924E+03 -0.95937578631E+02  0.24325928909E+03  0.92212738486E+02 0.  0.
         13    1    3    3    0    0 -0.29637573309E+02 -0.99291716823E+02 -0.86472848628E+02  0.13496215889E+03  0.00000000000E+00 0.  1.
        -13    1    3    3    0    0  0.27446109913E+02 -0.10433311242E+03 -0.94647300025E+01  0.10829713020E+03  0.00000000000E+00 0. -1.
         22    1    1    2    0    0  0.21914633956E+01  0.20362482924E+03 -0.49577189614E+02  0.20958475928E+03  0.00000000000E+00 0.  1.
<mgrwt>
<rscale>  0 0.42882769E+03</rscale>
<asrwt>0</asrwt>
<pdfrwt beam="1">  1        1 0.23640714E-01 0.42882769E+03</pdfrwt>
<pdfrwt beam="2">  1       -1 0.46027601E-01 0.42882769E+03</pdfrwt>
<totfact> 0.98849891E+02</totfact>
</mgrwt>
</event>
<event>
 6    1  0.9364335E-007  0.3140863E+04  0.7818608E-02  0.8204612E-01
         -1   -1    0    0    0  501 -0.00000000000E+00  0.00000000000E+00  0.11229327443E+04  0.11229327443E+04  0.00000000000E+00 0.  1.
          1   -1    0    0  501    0  0.00000000000E+00 -0.00000000000E+00 -0.21962628553E+04  0.21962628553E+04  0.00000000000E+00 0. -1.
         23    2    1    2    0    0 -0.10681039753E+04 -0.85240247694E+03  0.27830514817E+03  0.13971253723E+04  0.84080115269E+02 0.  0.
         11    1    3    3    0    0 -0.27386980216E+03 -0.17476838987E+03  0.76597891099E+02  0.33379019691E+03  0.00000000000E+00 0. -1.
        -11    1    3    3    0    0 -0.79423417312E+03 -0.67763408707E+03  0.20170725707E+03  0.10633351754E+04  0.00000000000E+00 0.  1.
         22    1    1    2    0    0  0.10681039753E+04  0.85240247694E+03 -0.13516352592E+04  0.19220702273E+04  0.00000000000E+00 0. -1.
<mgrwt>
<rscale>  0 0.31408632E+04</rscale>
<asrwt>0</asrwt>
<pdfrwt beam="1">  1        1 0.33788659E+00 0.31408632E+04</pdfrwt>
<pdfrwt beam="2">  1       -1 0.17275888E+00 0.31408632E+04</pdfrwt>
<totfact> 0.43274662E-01</totfact>
</mgrwt>
</event>
<event>
 6    1  0.9364335E-007  0.3888690E+04  0.7818608E-02  0.8027386E-01
          2   -1    0    0  501    0  0.00000000000E+00  0.00000000000E+00  0.20418102531E+04  0.20418102531E+04  0.00000000000E+00 0. -1.
         -2   -1    0    0    0  501 -0.00000000000E+00 -0.00000000000E+00 -0.18515323679E+04  0.18515323679E+04  0.00000000000E+00 0.  1.
         23    2    1    2    0    0  0.17538750079E+04  0.40215096768E+03  0.83028312843E+03  0.19835233480E+04  0.84804804142E+02 0.  0.
         11    1    3    3    0    0  0.82793885814E+03  0.14846540072E+03  0.37365039635E+03  0.92040173116E+03  0.00000000000E+00 0.  1.
        -11    1    3    3    0    0  0.92593614972E+03  0.25368556696E+03  0.45663273207E+03  0.10631216169E+04  0.00000000000E+00 0. -1.
         22    1    1    2    0    0 -0.17538750079E+04 -0.40215096768E+03 -0.64000524324E+03  0.19098192730E+04  0.00000000000E+00 0.  1.
<mgrwt>
<rscale>  0 0.38886902E+04</rscale>
<asrwt>0</asrwt>
<pdfrwt beam="1">  1        2 0.31412465E+00 0.38886902E+04</pdfrwt>
<pdfrwt beam="2">  1       -2 0.28485113E+00 0.38886902E+04</pdfrwt>
<totfact> 0.19829806E-01</totfact>
</mgrwt>
</event>
<event>
 6    1  0.9364335E-007  0.3795137E+04  0.7818608E-02  0.8047199E-01
         -2   -1    0    0    0  501 -0.00000000000E+00  0.00000000000E+00  0.35658444767E+04  0.35658444767E+04  0.00000000000E+00 0.  1.
          2   -1    0    0  501    0  0.00000000000E+00 -0.00000000000E+00 -0.10097932152E+04  0.10097932152E+04  0.00000000000E+00 0. -1.
         23    2    1    2    0    0  0.15223414704E+04 -0.82889143328E+03  0.35101725557E+03  0.17708632753E+04  0.90327545218E+02 0.  0.
         13    1    3    3    0    0  0.12465708271E+04 -0.66071204495E+03  0.25332664418E+03  0.14334063004E+04  0.00000000000E+00 0. -1.
        -13    1    3    3    0    0  0.27577064326E+03 -0.16817938833E+03  0.97690611392E+02  0.33745697488E+03  0.00000000000E+00 0.  1.
         22    1    1    2    0    0 -0.15223414704E+04  0.82889143328E+03  0.22050340060E+04  0.28047744166E+04  0.00000000000E+00 0. -1.
<mgrwt>
<rscale>  0 0.37951367E+04</rscale>
<asrwt>0</asrwt>
<pdfrwt beam="1">  1        2 0.15535280E+00 0.37951367E+04</pdfrwt>
<pdfrwt beam="2">  1       -2 0.54859145E+00 0.37951367E+04</pdfrwt>
<totfact> 0.17271096E-02</totfact>
</mgrwt>
</event>
<event>
 6    1  0.9364335E-007  0.4613381E+04  0.7818608E-02  0.7891082E-01
          1   -1    0    0  501    0  0.00000000000E+00  0.00000000000E+00  0.33252976794E+04  0.33252976794E+04  0.00000000000E+00 0. -1.
         -1   -1    0    0    0  501 -0.00000000000E+00 -0.00000000000E+00 -0.16001037905E+04  0.16001037905E+04  0.00000000000E+00 0.  1.
         23    2    1    2    0    0  0.39654520043E+03 -0.18582021344E+04 -0.53169328235E+03  0.19751975834E+04  0.92436350407E+02 0.  0.
         11    1    3    3    0    0  0.33190732885E+03 -0.14050432246E+04 -0.42853688902E+03  0.15059723779E+04  0.00000000000E+00 0. -1.
        -11    1    3    3    0    0  0.64637871581E+02 -0.45315890979E+03 -0.10315639333E+03  0.46922520547E+03  0.00000000000E+00 0.  1.
         22    1    1    2    0    0 -0.39654520043E+03  0.18582021344E+04  0.22568871712E+04  0.29502038865E+04  0.00000000000E+00 0. -1.
<mgrwt>
<rscale>  0 0.46133812E+04</rscale>
<asrwt>0</asrwt>
<pdfrwt beam="1">  1        1 0.51158426E+00 0.46133812E+04</pdfrwt>
<pdfrwt beam="2">  1       -1 0.24616981E+00 0.46133812E+04</pdfrwt>
<totfact> 0.18769252E-02</totfact>
</mgrwt>
</event>
<event>
 6    1  0.9364335E-007  0.3470542E+04  0.7818608E-02  0.8120807E-01
          2   -1    0    0  501    0  0.00000000000E+00  0.00000000000E+00  0.17926130410E+04  0.17926130410E+04  0.00000000000E+00 0. -1.
         -2   -1    0    0    0  501 -0.00000000000E+00 -0.00000000000E+00 -0.16797629947E+04  0.16797629947E+04  0.00000000000E+00 0.  1.
         23    2    1    2    0    0  0.17077936612E+04  0.28996953509E+03  0.13680356870E+03  0.17399744392E+04  0.90301230821E+02 0.  0.
         11    1    3    3    0    0  0.88952628528E+03  0.18334107684E+03  0.10370164754E+03  0.91412526186E+03  0.00000000000E+00 0. -1.
        -11    1    3    3    0    0  0.81826737588E+03  0.10662845825E+03  0.33101921162E+02  0.82584917735E+03  0.00000000000E+00 0.  1.
         22    1    1    2    0    0 -0.17077936612E+04 -0.28996953509E+03 -0.23953522382E+02  0.17324015965E+04  0.00000000000E+00 0. -1.
<mgrwt>
<rscale>  0 0.34705418E+04</rscale>
<asrwt>0</asrwt>
<pdfrwt beam="1">  1        2 0.27578662E+00 0.34705418E+04</pdfrwt>
<pdfrwt beam="2">  1       -2 0.25842508E+00 0.34705418E+04</pdfrwt>
<totfact> 0.40931194E-01</totfact>
</mgrwt>
</event>
<event>
 6    1  0.9364335E-007  0.1831515E+04  0.7818608E-02  0.8689717E-01
         -1   -1    0    0    0  501 -0.00000000000E+00  0.00000000000E+00  0.12663431502E+04  0.12663431502E+04  0.00000000000E+00 0.  1.
          1   -1    0    0  501    0  0.00000000000E+00 -0.00000000000E+00 -0.66223099764E+03  0.66223099764E+03  0.00000000000E+00 0. -1.
         23    2    1    2    0    0  0.11998744203E+03  0.21942131509E+03 -0.62234017500E+03  0.67688408576E+03  0.91225393262E+02 0.  0.
         13    1    3    3    0    0  0.78761653107E+02  0.17285663117E+03 -0.54783814678E+03  0.57983570777E+03  0.00000000000E+00 0. -1.
        -13    1    3    3    0    0  0.41225788928E+02  0.46564683919E+02 -0.74502028212E+02  0.97048377981E+02  0.00000000000E+00 0.  1.
         22    1    1    2    0    0 -0.11998744203E+03 -0.21942131509E+03  0.12264523276E+04  0.12516900621E+04  0.00000000000E+00 0.  1.
<mgrwt>
<rscale>  0 0.18315149E+04</rscale>
<asrwt>0</asrwt>
<pdfrwt beam="1">  1        1 0.10188169E+00 0.18315149E+04</pdfrwt>
<pdfrwt beam="2">  1       -1 0.19482202E+00 0.18315149E+04</pdfrwt>
<totfact> 0.45566910E+00</totfact>
</mgrwt>
</event>
<event>
 6    1  0.9364335E-007  0.8768549E+03  0.7818608E-02  0.9454986E-01
          2   -1    0    0  501    0  0.00000000000E+00  0.00000000000E+00  0.18678423051E+04  0.18678423051E+04  0.00000000000E+00 0. -1.
         -2   -1    0    0    0  501 -0.00000000000E+00 -0.00000000000E+00 -0.10290945423E+03  0.10290945423E+03  0.00000000000E+00 0.  1.
         23    2    1    2    0    0 -0.17555078883E+03  0.39238531013E+03  0.10191267319E+04  0.11099317560E+04  0.92438607810E+02 0.  0.
         11    1    3    3    0    0 -0.44733976501E+02  0.18360389046E+03  0.52079199412E+03  0.55401788634E+03  0.00000000000E+00 0. -1.
        -11    1    3    3    0    0 -0.13081681233E+03  0.20878141967E+03  0.49833473774E+03  0.55591386961E+03  0.00000000000E+00 0.  1.
         22    1    1    2    0    0  0.17555078883E+03 -0.39238531013E+03  0.74580611905E+03  0.86082000341E+03  0.00000000000E+00 0. -1.
<mgrwt>
<rscale>  0 0.87685491E+03</rscale>
<asrwt>0</asrwt>
<pdfrwt beam="1">  1        2 0.28736033E+00 0.87685491E+03</pdfrwt>
<pdfrwt beam="2">  1       -2 0.15832225E-01 0.87685491E+03</pdfrwt>
<totfact> 0.25569923E+02</totfact>
</mgrwt>
</event>
<event>
 6    1  0.9364335E-007  0.2617426E+04  0.7818608E-02  0.8362306E-01
          2   -1    0    0  501    0  0.00000000000E+00  0.00000000000E+00  0.14539218609E+04  0.14539218609E+04  0.00000000000E+00 0. -1.
         -2   -1    0    0    0  501 -0.00000000000E+00 -0.00000000000E+00 -0.11780068036E+04  0.11780068036E+04  0.00000000000E+00 0.  1.
         23    2    1    2    0    0 -0.20392761970E+03 -0.47944438182E+03  0.13435783706E+04  0.14439226292E+04  0.90864358771E+02 0.  0.
         13    1    3    3    0    0 -0.80961524754E+02 -0.24651316517E+03  0.55831154162E+03  0.61565841715E+03  0.00000000000E+00 0. -1.
        -13    1    3    3    0    0 -0.12296609494E+03 -0.23293121665E+03  0.78526682902E+03  0.82826421205E+03  0.00000000000E+00 0.  1.
         22    1    1    2    0    0  0.20392761970E+03  0.47944438182E+03 -0.10676633133E+04  0.11880060353E+04  0.00000000000E+00 0.  1.
<mgrwt>
<rscale>  0 0.26174261E+04</rscale>
<asrwt>0</asrwt>
<pdfrwt beam="1">  1        2 0.22368029E+00 0.26174261E+04</pdfrwt>
<pdfrwt beam="2">  1       -2 0.18123182E+00 0.26174261E+04</pdfrwt>
<totfact> 0.21175461E+00</totfact>
</mgrwt>
</event>
<event>
 6    1  0.9364335E-007  0.1234131E+04  0.7818608E-02  0.9083496E-01
          1   -1    0    0  501    0  0.00000000000E+00  0.00000000000E+00  0.62204471303E+03  0.62204471303E+03  0.00000000000E+00 0. -1.
         -1   -1    0    0    0  501 -0.00000000000E+00 -0.00000000000E+00 -0.61212570959E+03  0.61212570959E+03  0.00000000000E+00 0.  1.
         23    2    1    2    0    0 -0.37717897068E+03 -0.47839892102E+03 -0.72025274418E+02  0.61947995724E+03  0.86245427187E+02 0.  0.
         11    1    3    3    0    0 -0.76889052892E+02 -0.58306802821E+02  0.84409097234E+01  0.96865157135E+02  0.00000000000E+00 0.  1.
        -11    1    3    3    0    0 -0.30028991778E+03 -0.42009211820E+03 -0.80466184141E+02  0.52261480011E+03  0.00000000000E+00 0. -1.
         22    1    1    2    0    0  0.37717897068E+03  0.47839892102E+03  0.81944277862E+02  0.61469046538E+03  0.00000000000E+00 0. -1.
<mgrwt>
<rscale>  0 0.12341306E+04</rscale>
<asrwt>0</asrwt>
<pdfrwt beam="1">  1        1 0.95699186E-01 0.12341306E+04</pdfrwt>
<pdfrwt beam="2">  1       -1 0.94173186E-01 0.12341306E+04</pdfrwt>
<totfact> 0.35053430E+01</totfact>
</mgrwt>
</event>
<event>
 6    1  0.9364335E-007  0.3044329E+04  0.7818608E-02  0.8231185E-01
         -1   -1    0    0    0  501 -0.00000000000E+00  0.00000000000E+00  0.18106648382E+04  0.18106648382E+04  0.00000000000E+00 0.  1.
          1   -1    0    0  501    0  0.00000000000E+00 -0.00000000000E+00 -0.12796317891E+04  0.12796317891E+04  0.00000000000E+00 0. -1.
         23    2    1    2    0    0  0.62123046553E+03  0.11929196751E+04  0.98631585394E+03  0.16703434327E+04  0.90794144489E+02 0.  0.
         11    1    3    3    0    0  0.27626493417E+03  0.60077174776E+03  0.52368191815E+03  0.84349970845E+03  0.00000000000E+00 0. -1.
        -11    1    3    3    0    0  0.34496553137E+03  0.59214792737E+03  0.46263393579E+03  0.82684372421E+03  0.00000000000E+00 0.  1.
         22    1    1    2    0    0 -0.62123046553E+03 -0.11929196751E+04 -0.45528280475E+03  0.14199531946E+04  0.00000000000E+00 0. -1.
<mgrwt>
<rscale>  0 0.30443287E+04</rscale>
<asrwt>0</asrwt>
<pdfrwt beam="1">  1        1 0.19686643E+00 0.30443287E+04</pdfrwt>
<pdfrwt beam="2">  1       -1 0.27856382E+00 0.30443287E+04</pdfrwt>
<totfact> 0.36062457E-01</totfact>
</mgrwt>
</event>
<event>
 6    1  0.9364335E-007  0.1448554E+04  0.7818608E-02  0.8919404E-01
         -2   -1    0    0    0  501 -0.00000000000E+00  0.00000000000E+00  0.41404570839E+03  0.41404570839E+03  0.00000000000E+00 0.  1.
          2   -1    0    0  501    0  0.00000000000E+00 -0.00000000000E+00 -0.12669542479E+04  0.12669542479E+04  0.00000000000E+00 0. -1.
         23    2    1    2    0    0 -0.41383772934E+03 -0.27298374032E+03 -0.10362816554E+04  0.11524098615E+04  0.91580734183E+02 0.  0.
         13    1    3    3    0    0 -0.20104912934E+03 -0.16143666073E+03 -0.44701231960E+03  0.51604511596E+03  0.00000000000E+00 0. -1.
        -13    1    3    3    0    0 -0.21278860000E+03 -0.11154707960E+03 -0.58926933582E+03  0.63636474556E+03  0.00000000000E+00 0.  1.
         22    1    1    2    0    0  0.41383772934E+03  0.27298374032E+03  0.18337311586E+03  0.52859009481E+03  0.00000000000E+00 0.  1.
<mgrwt>
<rscale>  0 0.14485537E+04</rscale>
<asrwt>0</asrwt>
<pdfrwt beam="1">  1        2 0.19491603E+00 0.14485537E+04</pdfrwt>
<pdfrwt beam="2">  1       -2 0.63699341E-01 0.14485537E+04</pdfrwt>
<totfact> 0.38223606E+01</totfact>
</mgrwt>
</event>
<event>
 6    1  0.9765699E-007  0.4186846E+04  0.7818608E-02  0.7967879E-01
         -1   -1    0    0    0  501 -0.00000000000E+00  0.00000000000E+00  0.19355229030E+04  0.19355229030E+04  0.00000000000E+00 0.  1.
          1   -1    0    0  501    0  0.00000000000E+00 -0.00000000000E+00 -0.22642044464E+04  0.22642044464E+04  0.00000000000E+00 0. -1.
         23    2    1    2    0    0 -0.17036389066E+04 -0.81138942475E+03  0.74257542876E+03  0.20298587306E+04  0.90387365785E+02 0.  0.
         13    1    3    3    0    0 -0.75748504572E+03 -0.36332861123E+03  0.37890022335E+03  0.92160547605E+03  0.00000000000E+00 0.  1.
        -13    1    3    3    0    0 -0.94615386091E+03 -0.44806081352E+03  0.36367520541E+03  0.11082532545E+04  0.00000000000E+00 0. -1.
         22    1    1    2    0    0  0.17036389066E+04  0.81138942475E+03 -0.10712569721E+04  0.21698686188E+04  0.00000000000E+00 0. -1.
<mgrwt>
<rscale>  0 0.41868459E+04</rscale>
<asrwt>0</asrwt>
<pdfrwt beam="1">  1        1 0.34833915E+00 0.41868459E+04</pdfrwt>
<pdfrwt beam="2">  1       -1 0.29777275E+00 0.41868459E+04</pdfrwt>
<totfact> 0.51825748E-02</totfact>
</mgrwt>
</event>
<event>
 6    1  0.9364335E-007  0.2124746E+04  0.7818608E-02  0.8550420E-01
          1   -1    0    0  501    0  0.00000000000E+00  0.00000000000E+00  0.11226474388E+04  0.11226474388E+04  0.00000000000E+00 0. -1.
         -1   -1    0    0    0  501 -0.00000000000E+00 -0.00000000000E+00 -0.10053346622E+04  0.10053346622E+04  0.00000000000E+00 0.  1.
         23    2    1    2    0    0 -0.23805852714E+03  0.40576053582E+03 -0.89295767885E+03  0.10135495692E+04  0.92713743775E+02 0.  0.
         11    1    3    3    0    0 -0.10455994492E+03  0.10576714446E+03 -0.32706655799E+03  0.35929375765E+03  0.00000000000E+00 0. -1.
        -11    1    3    3    0    0 -0.13349858222E+03  0.29999339136E+03 -0.56589112087E+03  0.65425581158E+03  0.00000000000E+00 0.  1.
         22    1    1    2    0    0  0.23805852714E+03 -0.40576053582E+03  0.10102704555E+04  0.11144325318E+04  0.00000000000E+00 0. -1.
<mgrwt>
<rscale>  0 0.21247460E+04</rscale>
<asrwt>0</asrwt>
<pdfrwt beam="1">  1        1 0.17271499E+00 0.21247460E+04</pdfrwt>
<pdfrwt beam="2">  1       -1 0.15466687E+00 0.21247460E+04</pdfrwt>
<totfact> 0.35918670E+00</totfact>
</mgrwt>
</event>
<event>
 6    1  0.1528249E-006  0.3401516E+04  0.7818608E-02  0.8137534E-01
         -2   -1    0    0    0  501 -0.00000000000E+00  0.00000000000E+00  0.14278760618E+04  0.14278760618E+04  0.00000000000E+00 0.  1.
          2   -1    0    0  501    0  0.00000000000E+00 -0.00000000000E+00 -0.20257902541E+04  0.20257902541E+04  0.00000000000E+00 0. -1.
         23    2    1    2    0    0 -0.12205940284E+04  0.25128714998E+03 -0.14725182801E+04  0.19311922360E+04  0.90544758246E+02 0.  0.
         11    1    3    3    0    0 -0.60574216208E+03  0.90317649306E+02 -0.67590462563E+03  0.91210082099E+03  0.00000000000E+00 0.  1.
        -11    1    3    3    0    0 -0.61485186630E+03  0.16096950068E+03 -0.79661365443E+03  0.10190914150E+04  0.00000000000E+00 0. -1.
         22    1    1    2    0    0  0.12205940284E+04 -0.25128714998E+03  0.87460408772E+03  0.15224740800E+04  0.00000000000E+00 0.  1.
<mgrwt>
<rscale>  0 0.34015158E+04</rscale>
<asrwt>0</asrwt>
<pdfrwt beam="1">  1        2 0.31166004E+00 0.34015158E+04</pdfrwt>
<pdfrwt beam="2">  1       -2 0.21967324E+00 0.34015158E+04</pdfrwt>
<totfact> 0.53175474E-01</totfact>
</mgrwt>
</event>
<event>
 6    1  0.9364335E-007  0.2585745E+04  0.7818608E-02  0.8373060E-01
         -2   -1    0    0    0  501 -0.00000000000E+00  0.00000000000E+00  0.82479532016E+03  0.82479532016E+03  0.00000000000E+00 0.  1.
          2   -1    0    0  501    0  0.00000000000E+00 -0.00000000000E+00 -0.20265863985E+04  0.20265863985E+04  0.00000000000E+00 0. -1.
         23    2    1    2    0    0  0.25593957056E+03 -0.10185253664E+04 -0.14301109376E+04  0.17766589898E+04  0.91656350129E+02 0.  0.
         13    1    3    3    0    0  0.22730137032E+03 -0.75826040983E+03 -0.11031023780E+04  0.13577406300E+04  0.00000000000E+00 0.  1.
        -13    1    3    3    0    0  0.28638200244E+02 -0.26026495655E+03 -0.32700855955E+03  0.41891835976E+03  0.00000000000E+00 0. -1.
         22    1    1    2    0    0 -0.25593957056E+03  0.10185253664E+04  0.22831985926E+03  0.10747227288E+04  0.00000000000E+00 0.  1.
<mgrwt>
<rscale>  0 0.25857447E+04</rscale>
<asrwt>0</asrwt>
<pdfrwt beam="1">  1        2 0.31178252E+00 0.25857447E+04</pdfrwt>
<pdfrwt beam="2">  1       -2 0.12689159E+00 0.25857447E+04</pdfrwt>
<totfact> 0.26402788E+00</totfact>
</mgrwt>
</event>
<event>
 6    1  0.9364335E-007  0.3691813E+04  0.7818608E-02  0.8069778E-01
          2   -1    0    0  501    0  0.00000000000E+00  0.00000000000E+00  0.12239051680E+04  0.12239051680E+04  0.00000000000E+00 0. -1.
         -2   -1    0    0    0  501 -0.00000000000E+00 -0.00000000000E+00 -0.27840160967E+04  0.27840160967E+04  0.00000000000E+00 0.  1.
         23    2    1    2    0    0 -0.11208737632E+04  0.95458356315E+02  0.80679036843E+03  0.13872930879E+04  0.90560047630E+02 0.  0.
         13    1    3    3    0    0 -0.55156656533E+03  0.81040243209E+02  0.43594539417E+03  0.70770162053E+03  0.00000000000E+00 0. -1.
        -13    1    3    3    0    0 -0.56930719792E+03  0.14418113106E+02  0.37084497426E+03  0.67959146737E+03  0.00000000000E+00 0.  1.
         22    1    1    2    0    0  0.11208737632E+04 -0.95458356315E+02 -0.23669012971E+04  0.26206281769E+04  0.00000000000E+00 0.  1.
<mgrwt>
<rscale>  0 0.36918135E+04</rscale>
<asrwt>0</asrwt>
<pdfrwt beam="1">  1        2 0.18829311E+00 0.36918135E+04</pdfrwt>
<pdfrwt beam="2">  1       -2 0.42831016E+00 0.36918135E+04</pdfrwt>
<totfact> 0.71576446E-02</totfact>
</mgrwt>
</event>
<event>
 6    1  0.9364335E-007  0.2844656E+04  0.7818608E-02  0.8289537E-01
          3   -1    0    0  501    0  0.00000000000E+00  0.00000000000E+00  0.11997641484E+04  0.11997641484E+04  0.00000000000E+00 0. -1.
         -3   -1    0    0    0  501 -0.00000000000E+00 -0.00000000000E+00 -0.16861791609E+04  0.16861791609E+04  0.00000000000E+00 0.  1.
         23    2    1    2    0    0 -0.13474003136E+04 -0.96807491402E+02  0.20336231476E+03  0.13691532591E+04  0.91461032832E+02 0.  0.
         11    1    3    3    0    0 -0.11431532520E+04 -0.53476641756E+02  0.15521794340E+03  0.11548816903E+04  0.00000000000E+00 0.  1.
        -11    1    3    3    0    0 -0.20424706158E+03 -0.43330849647E+02  0.48144371362E+02  0.21427156878E+03  0.00000000000E+00 0. -1.
         22    1    1    2    0    0  0.13474003136E+04  0.96807491402E+02 -0.68977732724E+03  0.15167900503E+04  0.00000000000E+00 0. -1.
<mgrwt>
<rscale>  0 0.28446563E+04</rscale>
<asrwt>0</asrwt>
<pdfrwt beam="1">  1        3 0.18457910E+00 0.28446563E+04</pdfrwt>
<pdfrwt beam="2">  1       -3 0.25941218E+00 0.28446563E+04</pdfrwt>
<totfact> 0.26896319E-02</totfact>
</mgrwt>
</event>
<event>
 6    1  0.9364335E-007  0.1238968E+04  0.7818608E-02  0.9079415E-01
         -1   -1    0    0    0  501 -0.00000000000E+00  0.00000000000E+00  0.32511944474E+03  0.32511944474E+03  0.00000000000E+00 0.  1.
          1   -1    0    0  501    0  0.00000000000E+00 -0.00000000000E+00 -0.11803683671E+04  0.11803683671E+04  0.00000000000E+00 0. -1.
         23    2    1    2    0    0 -0.24676409539E+03 -0.98200161474E+02  0.24556598884E+03  0.37308803296E+03  0.91412444305E+02 0.  0.
         13    1    3    3    0    0 -0.17465791301E+03 -0.31573406201E+02  0.12249336030E+03  0.21565456145E+03  0.00000000000E+00 0. -1.
        -13    1    3    3    0    0 -0.72106182379E+02 -0.66626755273E+02  0.12307262854E+03  0.15743347151E+03  0.00000000000E+00 0.  1.
         22    1    1    2    0    0  0.24676409539E+03  0.98200161474E+02 -0.11008149112E+04  0.11323997789E+04  0.00000000000E+00 0. -1.
<mgrwt>
<rscale>  0 0.12389685E+04</rscale>
<asrwt>0</asrwt>
<pdfrwt beam="1">  1        1 0.18159513E+00 0.12389685E+04</pdfrwt>
<pdfrwt beam="2">  1       -1 0.50018376E-01 0.12389685E+04</pdfrwt>
<totfact> 0.43717697E+01</totfact>
</mgrwt>
</event>
<event>
 6    1  0.9364335E-007  0.1018954E+04  0.7818608E-02  0.9287998E-01
         -2   -1    0    0    0  501 -0.00000000000E+00  0.00000000000E+00  0.75085028500E+02  0.75085028500E+02  0.00000000000E+00 0.  1.
          2   -1    0    0  501    0  0.00000000000E+00 -0.00000000000E+00 -0.34569701062E+04  0.34569701062E+04  0.00000000000E+00 0. -1.
         23    2    1    2    0    0  0.24604966387E+03 -0.42389774311E+03 -0.12755195066E+04  0.13694165489E+04  0.90121800731E+02 0.  0.
         13    1    3    3    0    0  0.66687483559E+02 -0.56303893854E+02 -0.18029431589E+03  0.20030823565E+03  0.00000000000E+00 0. -1.
        -13    1    3    3    0    0  0.17936218031E+03 -0.36759384925E+03 -0.10952251907E+04  0.11691083132E+04  0.00000000000E+00 0.  1.
         22    1    1    2    0    0 -0.24604966387E+03  0.42389774311E+03 -0.21063655712E+04  0.21626385859E+04  0.00000000000E+00 0. -1.
<mgrwt>
<rscale>  0 0.10189538E+04</rscale>
<asrwt>0</asrwt>
<pdfrwt beam="1">  1        2 0.53184138E+00 0.10189538E+04</pdfrwt>
<pdfrwt beam="2">  1       -2 0.11551547E-01 0.10189538E+04</pdfrwt>
<totfact> 0.48946329E+01</totfact>
</mgrwt>
</event>
<event>
 6    1  0.9364335E-007  0.9487946E+03  0.7818608E-02  0.9366561E-01
          1   -1    0    0  501    0  0.00000000000E+00  0.00000000000E+00  0.30337986466E+03  0.30337986466E+03  0.00000000000E+00 0. -1.
         -1   -1    0    0    0  501 -0.00000000000E+00 -0.00000000000E+00 -0.74181843270E+03  0.74181843270E+03  0.00000000000E+00 0.  1.
         23    2    1    2    0    0 -0.32155591605E+03 -0.28432393404E+03 -0.43221465959E+03  0.61592327637E+03  0.91179294818E+02 0.  0.
         13    1    3    3    0    0 -0.19083636370E+03 -0.22536674294E+03 -0.28485268913E+03  0.41030444921E+03  0.00000000000E+00 0. -1.
        -13    1    3    3    0    0 -0.13071955235E+03 -0.58957191094E+02 -0.14736197046E+03  0.20561882717E+03  0.00000000000E+00 0.  1.
         22    1    1    2    0    0  0.32155591605E+03  0.28432393404E+03 -0.62239084494E+01  0.42927502099E+03  0.00000000000E+00 0. -1.
<mgrwt>
<rscale>  0 0.94879455E+03</rscale>
<asrwt>0</asrwt>
<pdfrwt beam="1">  1        1 0.46673825E-01 0.94879455E+03</pdfrwt>
<pdfrwt beam="2">  1       -1 0.11412591E+00 0.94879455E+03</pdfrwt>
<totfact> 0.60759792E+01</totfact>
</mgrwt>
</event>
<event>
 6    1  0.9364335E-007  0.1430929E+04  0.7818608E-02  0.8931730E-01
         -1   -1    0    0    0  501 -0.00000000000E+00  0.00000000000E+00  0.11268752358E+04  0.11268752358E+04  0.00000000000E+00 0.  1.
          1   -1    0    0  501    0  0.00000000000E+00 -0.00000000000E+00 -0.45425590558E+03  0.45425590558E+03  0.00000000000E+00 0. -1.
         23    2    1    2    0    0 -0.51394680292E+02 -0.29263282373E+03 -0.37773891309E+03  0.48955987849E+03  0.93310264592E+02 0.  0.
         11    1    3    3    0    0 -0.33889184295E+02 -0.12116834306E+03 -0.23168220796E+03  0.26364159318E+03  0.00000000000E+00 0.  1.
        -11    1    3    3    0    0 -0.17505495997E+02 -0.17146448067E+03 -0.14605670513E+03  0.22591828531E+03  0.00000000000E+00 0. -1.
         22    1    1    2    0    0  0.51394680292E+02  0.29263282373E+03  0.10503582434E+04  0.10915712629E+04  0.00000000000E+00 0.  1.
<mgrwt>
<rscale>  0 0.14309294E+04</rscale>
<asrwt>0</asrwt>
<pdfrwt beam="1">  1        1 0.69885524E-01 0.14309294E+04</pdfrwt>
<pdfrwt beam="2">  1       -1 0.17336542E+00 0.14309294E+04</pdfrwt>
<totfact> 0.11430764E+01</totfact>
</mgrwt>
</event>
<event>
 6    1  0.9364335E-007  0.1609608E+04  0.7818608E-02  0.8814667E-01
          1   -1    0    0  501    0  0.00000000000E+00  0.00000000000E+00  0.15664243214E+04  0.15664243214E+04  0.00000000000E+00 0. -1.
         -1   -1    0    0    0  501 -0.00000000000E+00 -0.00000000000E+00 -0.41349559846E+03  0.41349559846E+03  0.00000000000E+00 0.  1.
         23    2    1    2    0    0 -0.60800383294E+02 -0.75658908573E+03  0.89785185716E+03  0.11791778024E+04  0.90546125809E+02 0.  0.
         11    1    3    3    0    0 -0.31545203521E+02 -0.11101273337E+03  0.17434395644E+03  0.20908070686E+03  0.00000000000E+00 0.  1.
        -11    1    3    3    0    0 -0.29255179773E+02 -0.64557635236E+03  0.72350790072E+03  0.97009709549E+03  0.00000000000E+00 0. -1.
         22    1    1    2    0    0  0.60800383294E+02  0.75658908573E+03  0.25507686574E+03  0.80074211747E+03  0.00000000000E+00 0.  1.
<mgrwt>
<rscale>  0 0.16096081E+04</rscale>
<asrwt>0</asrwt>
<pdfrwt beam="1">  1        1 0.24098836E+00 0.16096081E+04</pdfrwt>
<pdfrwt beam="2">  1       -1 0.63614708E-01 0.16096081E+04</pdfrwt>
<totfact> 0.14140218E+01</totfact>
</mgrwt>
</event>
<event>
 6    1  0.9364335E-007  0.2732096E+04  0.7818608E-02  0.8324665E-01
          1   -1    0    0  501    0  0.00000000000E+00  0.00000000000E+00  0.10137533808E+04  0.10137533808E+04  0.00000000000E+00 0. -1.
         -1   -1    0    0    0  501 -0.00000000000E+00 -0.00000000000E+00 -0.18407702097E+04  0.18407702097E+04  0.00000000000E+00 0.  1.
         23    2    1    2    0    0  0.27923121593E+01  0.53183832360E+03 -0.17268719669E+04  0.18092489525E+04  0.91843251000E+02 0.  0.
         11    1    3    3    0    0 -0.13131378662E+02  0.60910297480E+02 -0.12750884448E+03  0.14191900107E+03  0.00000000000E+00 0.  1.
        -11    1    3    3    0    0  0.15923690822E+02  0.47092802612E+03 -0.15993631224E+04  0.16673299514E+04  0.00000000000E+00 0. -1.
         22    1    1    2    0    0 -0.27923121593E+01 -0.53183832360E+03  0.89985513794E+03  0.10452746379E+04  0.00000000000E+00 0. -1.
<mgrwt>
<rscale>  0 0.27320959E+04</rscale>
<asrwt>0</asrwt>
<pdfrwt beam="1">  1        1 0.15596206E+00 0.27320959E+04</pdfrwt>
<pdfrwt beam="2">  1       -1 0.28319541E+00 0.27320959E+04</pdfrwt>
<totfact> 0.54544305E-01</totfact>
</mgrwt>
</event>
<event>
 6    1  0.9364335E-007  0.1928567E+04  0.7818608E-02  0.8640766E-01
         -2   -1    0    0    0  501 -0.00000000000E+00  0.00000000000E+00  0.46905199057E+03  0.46905199057E+03  0.00000000000E+00 0.  1.
          2   -1    0    0  501    0  0.00000000000E+00 -0.00000000000E+00 -0.19823877543E+04  0.19823877543E+04  0.00000000000E+00 0. -1.
         23    2    1    2    0    0 -0.78719317164E+03 -0.82198446617E+02 -0.64134450333E+02  0.80019351221E+03  0.98826894919E+02 0.  0.
         11    1    3    3    0    0 -0.49739523966E+03 -0.96488316255E+02 -0.58023190082E+02  0.50997912721E+03  0.00000000000E+00 0. -1.
        -11    1    3    3    0    0 -0.28979793199E+03  0.14289869638E+02 -0.61112602507E+01  0.29021438500E+03  0.00000000000E+00 0.  1.
         22    1    1    2    0    0  0.78719317164E+03  0.82198446617E+02 -0.14492013134E+04  0.16512462326E+04  0.00000000000E+00 0.  1.
<mgrwt>
<rscale>  0 0.19285673E+04</rscale>
<asrwt>0</asrwt>
<pdfrwt beam="1">  1        2 0.30498274E+00 0.19285673E+04</pdfrwt>
<pdfrwt beam="2">  1       -2 0.72161843E-01 0.19285673E+04</pdfrwt>
<totfact> 0.11103194E+01</totfact>
</mgrwt>
</event>
<event>
 6    1  0.9364335E-007  0.1891985E+04  0.7818608E-02  0.8658856E-01
          1   -1    0    0  501    0  0.00000000000E+00  0.00000000000E+00  0.10002340883E+04  0.10002340883E+04  0.00000000000E+00 0. -1.
         -1   -1    0    0    0  501 -0.00000000000E+00 -0.00000000000E+00 -0.89469263177E+03  0.89469263177E+03  0.00000000000E+00 0.  1.
         23    2    1    2    0    0 -0.66646372376E+03 -0.41041524441E+02  0.72105330606E+03  0.98678953943E+03  0.89316421392E+02 0.  0.
         11    1    3    3    0    0 -0.64246504779E+03 -0.36551792562E+02  0.71438604079E+03  0.96148051798E+03  0.00000000000E+00 0.  1.
        -11    1    3    3    0    0 -0.23998675967E+02 -0.44897318790E+01  0.66672652643E+01  0.25309021447E+02  0.00000000000E+00 0. -1.
         22    1    1    2    0    0  0.66646372376E+03  0.41041524441E+02 -0.61551184958E+03  0.90813718060E+03  0.00000000000E+00 0. -1.
<mgrwt>
<rscale>  0 0.18919853E+04</rscale>
<asrwt>0</asrwt>
<pdfrwt beam="1">  1        1 0.15388217E+00 0.18919853E+04</pdfrwt>
<pdfrwt beam="2">  1       -1 0.13764502E+00 0.18919853E+04</pdfrwt>
<totfact> 0.62049428E+00</totfact>
</mgrwt>
</event>
<event>
 6    1  0.9364335E-007  0.9699970E+03  0.7818608E-02  0.9342078E-01
         -1   -1    0    0    0  501 -0.00000000000E+00  0.00000000000E+00  0.79826931081E+03  0.79826931081E+03  0.00000000000E+00 0.  1.
          1   -1    0    0  501    0  0.00000000000E+00 -0.00000000000E+00 -0.29466689099E+03  0.29466689099E+03  0.00000000000E+00 0. -1.
         23    2    1    2    0    0 -0.25098532389E+02 -0.22746948830E+03 -0.22181134214E+03  0.33228028058E+03  0.94008557739E+02 0.  0.
         11    1    3    3    0    0 -0.43064463112E+01 -0.11777532107E+03 -0.17552090530E+03  0.21141702848E+03  0.00000000000E+00 0. -1.
        -11    1    3    3    0    0 -0.20792086077E+02 -0.10969416722E+03 -0.46290436841E+02  0.12086325210E+03  0.00000000000E+00 0.  1.
         22    1    1    2    0    0  0.25098532389E+02  0.22746948830E+03  0.72541376196E+03  0.76065592121E+03  0.00000000000E+00 0.  1.
<mgrwt>
<rscale>  0 0.96999698E+03</rscale>
<asrwt>0</asrwt>
<pdfrwt beam="1">  1        1 0.45333368E-01 0.96999698E+03</pdfrwt>
<pdfrwt beam="2">  1       -1 0.12281066E+00 0.96999698E+03</pdfrwt>
<totfact> 0.52729955E+01</totfact>
</mgrwt>
</event>
<event>
 6    1  0.9364335E-007  0.1286903E+04  0.7818608E-02  0.9040016E-01
          2   -1    0    0  501    0  0.00000000000E+00  0.00000000000E+00  0.87043561290E+03  0.87043561290E+03  0.00000000000E+00 0. -1.
         -2   -1    0    0    0  501 -0.00000000000E+00 -0.00000000000E+00 -0.47565796380E+03  0.47565796380E+03  0.00000000000E+00 0.  1.
         23    2    1    2    0    0 -0.18758054185E+03 -0.51098906898E+03 -0.15450630554E+03  0.57278306267E+03  0.88949143477E+02 0.  0.
         13    1    3    3    0    0 -0.15969602390E+03 -0.33889682424E+03 -0.79419414030E+02  0.38296386364E+03  0.00000000000E+00 0. -1.
        -13    1    3    3    0    0 -0.27884517947E+02 -0.17209224474E+03 -0.75086891512E+02  0.18981919903E+03  0.00000000000E+00 0.  1.
         22    1    1    2    0    0  0.18758054185E+03  0.51098906898E+03  0.54928395464E+03  0.77331051404E+03  0.00000000000E+00 0. -1.
<mgrwt>
<rscale>  0 0.12869027E+04</rscale>
<asrwt>0</asrwt>
<pdfrwt beam="1">  1        2 0.13391317E+00 0.12869027E+04</pdfrwt>
<pdfrwt beam="2">  1       -2 0.73178148E-01 0.12869027E+04</pdfrwt>
<totfact> 0.50833247E+01</totfact>
</mgrwt>
</event>
<event>
 6    1  0.9364335E-007  0.2568354E+04  0.7818608E-02  0.8379031E-01
         -2   -1    0    0    0  501 -0.00000000000E+00  0.00000000000E+00  0.18076094574E+04  0.18076094574E+04  0.00000000000E+00 0.  1.
          2   -1    0    0  501    0  0.00000000000E+00 -0.00000000000E+00 -0.91231563168E+03  0.91231563168E+03  0.00000000000E+00 0. -1.
         23    2    1    2    0    0 -0.33874956564E+03  0.78108463596E+03  0.14640010387E+04  0.16960733562E+04  0.92310949412E+02 0.  0.
         13    1    3    3    0    0 -0.15922632039E+03  0.25898842745E+03  0.50042938198E+03  0.58554042816E+03  0.00000000000E+00 0.  1.
        -13    1    3    3    0    0 -0.17952324525E+03  0.52209620851E+03  0.96357165675E+03  0.11105329280E+04  0.00000000000E+00 0. -1.
         22    1    1    2    0    0  0.33874956564E+03 -0.78108463596E+03 -0.56870721303E+03  0.10238517329E+04  0.00000000000E+00 0. -1.
<mgrwt>
<rscale>  0 0.25683538E+04</rscale>
<asrwt>0</asrwt>
<pdfrwt beam="1">  1        2 0.14035625E+00 0.25683538E+04</pdfrwt>
<pdfrwt beam="2">  1       -2 0.27809376E+00 0.25683538E+04</pdfrwt>
<totfact> 0.11034902E+00</totfact>
</mgrwt>
</event>
<event>
 6    1  0.9364335E-007  0.1610655E+04  0.7818608E-02  0.8814029E-01
         -2   -1    0    0    0  501 -0.00000000000E+00  0.00000000000E+00  0.19443650950E+04  0.19443650950E+04  0.00000000000E+00 0.  1.
          2   -1    0    0  501    0  0.00000000000E+00 -0.00000000000E+00 -0.33355469744E+03  0.33355469744E+03  0.00000000000E+00 0. -1.
         23    2    1    2    0    0  0.69151319423E+02  0.42290336653E+03 -0.15192368883E+03  0.46384685517E+03  0.91890888690E+02 0.  0.
         11    1    3    3    0    0  0.14274955563E+02  0.14770446441E+03 -0.83339291754E+01  0.14862650349E+03  0.00000000000E+00 0.  1.
        -11    1    3    3    0    0  0.54876363860E+02  0.27519890212E+03 -0.14358975966E+03  0.31522035168E+03  0.00000000000E+00 0. -1.
         22    1    1    2    0    0 -0.69151319423E+02 -0.42290336653E+03  0.17627340864E+04  0.18140729373E+04  0.00000000000E+00 0.  1.
<mgrwt>
<rscale>  0 0.16106547E+04</rscale>
<asrwt>0</asrwt>
<pdfrwt beam="1">  1        2 0.51316109E-01 0.16106547E+04</pdfrwt>
<pdfrwt beam="2">  1       -2 0.29913308E+00 0.16106547E+04</pdfrwt>
<totfact> 0.30148714E+00</totfact>
</mgrwt>
</event>
<event>
 6    1  0.9364335E-007  0.5257446E+04  0.7818608E-02  0.7789976E-01
         -2   -1    0    0    0  501 -0.00000000000E+00  0.00000000000E+00  0.31366879389E+04  0.31366879389E+04  0.00000000000E+00 0.  1.
          2   -1    0    0  501    0  0.00000000000E+00 -0.00000000000E+00 -0.22030194374E+04  0.22030194374E+04  0.00000000000E+00 0. -1.
         23    2    1    2    0    0 -0.93860050732E+03 -0.25350636656E+02 -0.20258983549E+04  0.22347678367E+04  0.91156856799E+02 0.  0.
         11    1    3    3    0    0 -0.40225512391E+03  0.25655014941E+02 -0.93022216783E+03  0.10137951697E+04  0.00000000000E+00 0.  1.
        -11    1    3    3    0    0 -0.53634538342E+03 -0.51005651597E+02 -0.10956761871E+04  0.12209726670E+04  0.00000000000E+00 0. -1.
         22    1    1    2    0    0  0.93860050732E+03  0.25350636656E+02  0.29595668564E+04  0.31049395396E+04  0.00000000000E+00 0.  1.
<mgrwt>
<rscale>  0 0.52574460E+04</rscale>
<asrwt>0</asrwt>
<pdfrwt beam="1">  1        2 0.33892607E+00 0.52574460E+04</pdfrwt>
<pdfrwt beam="2">  1       -2 0.48256738E+00 0.52574460E+04</pdfrwt>
<totfact> 0.78494080E-03</totfact>
</mgrwt>
</event>
<event>
 6    1  0.9364335E-007  0.5101089E+03  0.7818608E-02  0.1011174E+00
         -1   -1    0    0    0  501 -0.00000000000E+00  0.00000000000E+00  0.17907691162E+03  0.17907691162E+03  0.00000000000E+00 0.  1.
          1   -1    0    0  501    0  0.00000000000E+00 -0.00000000000E+00 -0.36326717481E+03  0.36326717481E+03  0.00000000000E+00 0. -1.
         23    2    1    2    0    0  0.19605410501E+03 -0.13546698888E+02  0.63491252704E+02  0.22616872612E+03  0.92197767672E+02 0.  0.
         13    1    3    3    0    0  0.13298444337E+03 -0.42576346780E+02  0.12832685141E+02  0.14022227103E+03  0.00000000000E+00 0.  1.
        -13    1    3    3    0    0  0.63069661642E+02  0.29029647892E+02  0.50658567563E+02  0.85946455098E+02  0.00000000000E+00 0. -1.
         22    1    1    2    0    0 -0.19605410501E+03  0.13546698888E+02 -0.24768151590E+03  0.31617536030E+03  0.00000000000E+00 0. -1.
<mgrwt>
<rscale>  0 0.51010887E+03</rscale>
<asrwt>0</asrwt>
<pdfrwt beam="1">  1        1 0.55887257E-01 0.51010887E+03</pdfrwt>
<pdfrwt beam="2">  1       -1 0.27550294E-01 0.51010887E+03</pdfrwt>
<totfact> 0.81188956E+02</totfact>
</mgrwt>
</event>
<event>
 6    1  0.9364335E-007  0.1718117E+04  0.7818608E-02  0.8751099E-01
          2   -1    0    0  501    0  0.00000000000E+00  0.00000000000E+00  0.17136604896E+04  0.17136604896E+04  0.00000000000E+00 0. -1.
         -2   -1    0    0    0  501 -0.00000000000E+00 -0.00000000000E+00 -0.43064603613E+03  0.43064603613E+03  0.00000000000E+00 0.  1.
         23    2    1    2    0    0  0.42881054337E+03 -0.66786958220E+03  0.10457680169E+04  0.13159260983E+04  0.90013833079E+02 0.  0.
         11    1    3    3    0    0  0.19045191511E+03 -0.25140312596E+03  0.47606347658E+03  0.57106207845E+03  0.00000000000E+00 0.  1.
        -11    1    3    3    0    0  0.23835862826E+03 -0.41646645623E+03  0.56970454029E+03  0.74486401984E+03  0.00000000000E+00 0. -1.
         22    1    1    2    0    0 -0.42881054337E+03  0.66786958220E+03  0.23724643665E+03  0.82838042748E+03  0.00000000000E+00 0. -1.
<mgrwt>
<rscale>  0 0.17181165E+04</rscale>
<asrwt>0</asrwt>
<pdfrwt beam="1">  1        2 0.26364007E+00 0.17181165E+04</pdfrwt>
<pdfrwt beam="2">  1       -2 0.66253237E-01 0.17181165E+04</pdfrwt>
<totfact> 0.19181955E+01</totfact>
</mgrwt>
</event>
<event>
 6    1  0.9364335E-007  0.1642366E+04  0.7818608E-02  0.8794935E-01
          2   -1    0    0  501    0  0.00000000000E+00  0.00000000000E+00  0.84320207721E+03  0.84320207721E+03  0.00000000000E+00 0. -1.
         -2   -1    0    0    0  501 -0.00000000000E+00 -0.00000000000E+00 -0.79973908702E+03  0.79973908702E+03  0.00000000000E+00 0.  1.
         23    2    1    2    0    0 -0.30275280119E+03 -0.75453710286E+03  0.11821257569E+03  0.82650194497E+03  0.90253829666E+02 0.  0.
         11    1    3    3    0    0 -0.16842688567E+03 -0.36450086804E+03  0.17742109151E+02  0.40192447183E+03  0.00000000000E+00 0. -1.
        -11    1    3    3    0    0 -0.13432591552E+03 -0.39003623482E+03  0.10047046654E+03  0.42457747314E+03  0.00000000000E+00 0.  1.
         22    1    1    2    0    0  0.30275280119E+03  0.75453710286E+03 -0.74749585488E+02  0.81643921926E+03  0.00000000000E+00 0. -1.
<mgrwt>
<rscale>  0 0.16423662E+04</rscale>
<asrwt>0</asrwt>
<pdfrwt beam="1">  1        2 0.12972340E+00 0.16423662E+04</pdfrwt>
<pdfrwt beam="2">  1       -2 0.12303678E+00 0.16423662E+04</pdfrwt>
<totfact> 0.15300623E+01</totfact>
</mgrwt>
</event>
<event>
 6    1  0.9364335E-007  0.3054706E+04  0.7818608E-02  0.8228280E-01
         -1   -1    0    0    0  501 -0.00000000000E+00  0.00000000000E+00  0.17362396221E+04  0.17362396221E+04  0.00000000000E+00 0.  1.
          1   -1    0    0  501    0  0.00000000000E+00 -0.00000000000E+00 -0.13435975076E+04  0.13435975076E+04  0.00000000000E+00 0. -1.
         23    2    1    2    0    0  0.35684237362E+03 -0.12741781730E+04  0.96299935801E+03  0.16389436981E+04  0.88894239489E+02 0.  0.
         11    1    3    3    0    0  0.32952349653E+03 -0.11295914276E+04  0.88546990027E+03  0.14726233301E+04  0.00000000000E+00 0.  1.
        -11    1    3    3    0    0  0.27318877094E+02 -0.14458674538E+03  0.77529457739E+02  0.16632036797E+03  0.00000000000E+00 0. -1.
         22    1    1    2    0    0 -0.35684237362E+03  0.12741781730E+04 -0.57035724352E+03  0.14408934317E+04  0.00000000000E+00 0.  1.
<mgrwt>
<rscale>  0 0.30547060E+04</rscale>
<asrwt>0</asrwt>
<pdfrwt beam="1">  1        1 0.20670731E+00 0.30547060E+04</pdfrwt>
<pdfrwt beam="2">  1       -1 0.26711379E+00 0.30547060E+04</pdfrwt>
<totfact> 0.38480070E-01</totfact>
</mgrwt>
</event>
<event>
 6    1  0.9364335E-007  0.5927891E+04  0.7818608E-02  0.7699407E-01
         -2   -1    0    0    0  501 -0.00000000000E+00  0.00000000000E+00  0.19786161608E+04  0.19786161608E+04  0.00000000000E+00 0.  1.
          2   -1    0    0  501    0  0.00000000000E+00 -0.00000000000E+00 -0.44399574840E+04  0.44399574840E+04  0.00000000000E+00 0. -1.
         23    2    1    2    0    0 -0.10315932407E+03  0.18644908429E+04  0.12603766048E+04  0.22546629488E+04  0.89374926207E+02 0.  0.
         13    1    3    3    0    0 -0.26199584725E+01  0.82231088999E+03  0.54042442309E+03  0.98400234809E+03  0.00000000000E+00 0. -1.
        -13    1    3    3    0    0 -0.10053936559E+03  0.10421799529E+04  0.71995218170E+03  0.12706606007E+04  0.00000000000E+00 0.  1.
         22    1    1    2    0    0  0.10315932407E+03 -0.18644908429E+04 -0.37217179279E+04  0.41639106960E+04  0.00000000000E+00 0. -1.
<mgrwt>
<rscale>  0 0.59278906E+04</rscale>
<asrwt>0</asrwt>
<pdfrwt beam="1">  1        2 0.68307038E+00 0.59278906E+04</pdfrwt>
<pdfrwt beam="2">  1       -2 0.30440249E+00 0.59278906E+04</pdfrwt>
<totfact> 0.28136719E-03</totfact>
</mgrwt>
</event>
<event>
 6    1  0.9364335E-007  0.1081778E+04  0.7818608E-02  0.9223137E-01
         -1   -1    0    0    0  501 -0.00000000000E+00  0.00000000000E+00  0.14058669144E+04  0.14058669144E+04  0.00000000000E+00 0.  1.
          1   -1    0    0  501    0  0.00000000000E+00 -0.00000000000E+00 -0.20809987894E+03  0.20809987894E+03  0.00000000000E+00 0. -1.
         23    2    1    2    0    0 -0.45398960376E+03  0.95428230880E+02  0.10070228710E+04  0.11123728900E+04  0.89806882765E+02 0.  0.
         13    1    3    3    0    0 -0.28012072838E+03  0.10265826647E+03  0.65011655825E+03  0.71530265025E+03  0.00000000000E+00 0. -1.
        -13    1    3    3    0    0 -0.17386887538E+03 -0.72300355915E+01  0.35690631271E+03  0.39707023975E+03  0.00000000000E+00 0.  1.
         22    1    1    2    0    0  0.45398960376E+03 -0.95428230880E+02  0.19074416450E+03  0.50159390334E+03  0.00000000000E+00 0. -1.
<mgrwt>
<rscale>  0 0.10817777E+04</rscale>
<asrwt>0</asrwt>
<pdfrwt beam="1">  1        1 0.32015367E-01 0.10817777E+04</pdfrwt>
<pdfrwt beam="2">  1       -1 0.21628721E+00 0.10817777E+04</pdfrwt>
<totfact> 0.16456238E+01</totfact>
</mgrwt>
</event>
<event>
 6    1  0.9364335E-007  0.2302050E+04  0.7818608E-02  0.8477113E-01
          2   -1    0    0  501    0  0.00000000000E+00  0.00000000000E+00  0.18312092428E+04  0.18312092428E+04  0.00000000000E+00 0. -1.
         -2   -1    0    0    0  501 -0.00000000000E+00 -0.00000000000E+00 -0.72348844524E+03  0.72348844524E+03  0.00000000000E+00 0.  1.
         23    2    1    2    0    0 -0.35513377684E+03  0.80983810969E+03  0.13691453121E+04  0.16325802659E+04  0.93817246036E+02 0.  0.
         13    1    3    3    0    0 -0.20499654380E+03  0.38403079490E+03  0.61190453893E+03  0.75095299398E+03  0.00000000000E+00 0.  1.
        -13    1    3    3    0    0 -0.15013723304E+03  0.42580731479E+03  0.75724077315E+03  0.88162727192E+03  0.00000000000E+00 0. -1.
         22    1    1    2    0    0  0.35513377684E+03 -0.80983810969E+03 -0.26142451455E+03  0.92211742211E+03  0.00000000000E+00 0.  1.
<mgrwt>
<rscale>  0 0.23020502E+04</rscale>
<asrwt>0</asrwt>
<pdfrwt beam="1">  1        2 0.28172450E+00 0.23020502E+04</pdfrwt>
<pdfrwt beam="2">  1       -2 0.11130591E+00 0.23020502E+04</pdfrwt>
<totfact> 0.47987729E+00</totfact>
</mgrwt>
</event>
<event>
 6    1  0.9364335E-007  0.2686552E+04  0.7818608E-02  0.8339381E-01
          2   -1    0    0  501    0  0.00000000000E+00  0.00000000000E+00  0.14208656050E+04  0.14208656050E+04  0.00000000000E+00 0. -1.
         -2   -1    0    0    0  501 -0.00000000000E+00 -0.00000000000E+00 -0.12699236840E+04  0.12699236840E+04  0.00000000000E+00 0.  1.
         23    2    1    2    0    0  0.34205977172E+03  0.64680468422E+02 -0.12221254336E+04  0.12742786429E+04  0.94905394425E+02 0.  0.
         11    1    3    3    0    0  0.12064275271E+03  0.87295444447E+00 -0.57032743739E+03  0.58294838680E+03  0.00000000000E+00 0.  1.
        -11    1    3    3    0    0  0.22141701901E+03  0.63807513978E+02 -0.65179799619E+03  0.69133025609E+03  0.00000000000E+00 0. -1.
         22    1    1    2    0    0 -0.34205977172E+03 -0.64680468422E+02  0.13730673546E+04  0.14165106462E+04  0.00000000000E+00 0. -1.
<mgrwt>
<rscale>  0 0.26865524E+04</rscale>
<asrwt>0</asrwt>
<pdfrwt beam="1">  1        2 0.21859471E+00 0.26865524E+04</pdfrwt>
<pdfrwt beam="2">  1       -2 0.19537288E+00 0.26865524E+04</pdfrwt>
<totfact> 0.17645938E+00</totfact>
</mgrwt>
</event>
<event>
 6    1  0.9364335E-007  0.1830453E+04  0.7818608E-02  0.8690271E-01
         -1   -1    0    0    0  501 -0.00000000000E+00  0.00000000000E+00  0.11185808059E+04  0.11185808059E+04  0.00000000000E+00 0.  1.
          1   -1    0    0  501    0  0.00000000000E+00 -0.00000000000E+00 -0.74884101852E+03  0.74884101852E+03  0.00000000000E+00 0. -1.
         23    2    1    2    0    0 -0.13156542160E+03 -0.30708753062E+03  0.10521411059E+04  0.11076298982E+04  0.90724159121E+02 0.  0.
         13    1    3    3    0    0 -0.37627680572E+01 -0.43793947318E+02  0.24843234528E+03  0.25229090040E+03  0.00000000000E+00 0. -1.
        -13    1    3    3    0    0 -0.12780265355E+03 -0.26329358330E+03  0.80370876059E+03  0.85533899777E+03  0.00000000000E+00 0.  1.
         22    1    1    2    0    0  0.13156542160E+03  0.30708753062E+03 -0.68240131852E+03  0.75979192622E+03  0.00000000000E+00 0. -1.
<mgrwt>
<rscale>  0 0.18304526E+04</rscale>
<asrwt>0</asrwt>
<pdfrwt beam="1">  1        1 0.11520631E+00 0.18304526E+04</pdfrwt>
<pdfrwt beam="2">  1       -1 0.17208935E+00 0.18304526E+04</pdfrwt>
<totfact> 0.54883591E+00</totfact>
</mgrwt>
</event>
<event>
 6    1  0.9364335E-007  0.2303458E+04  0.7818608E-02  0.8476559E-01
          2   -1    0    0  501    0  0.00000000000E+00  0.00000000000E+00  0.23980756761E+04  0.23980756761E+04  0.00000000000E+00 0. -1.
         -2   -1    0    0    0  501 -0.00000000000E+00 -0.00000000000E+00 -0.55314333784E+03  0.55314333784E+03  0.00000000000E+00 0.  1.
         23    2    1    2    0    0 -0.17562570304E+03  0.99581447896E+03  0.16254511497E+04  0.19164906166E+04  0.91400105221E+02 0.  0.
         13    1    3    3    0    0 -0.10058593597E+03  0.70658372388E+03  0.12087378524E+04  0.14037183782E+04  0.00000000000E+00 0.  1.
        -13    1    3    3    0    0 -0.75039767071E+02  0.28923075508E+03  0.41671329731E+03  0.51277223841E+03  0.00000000000E+00 0. -1.
         22    1    1    2    0    0  0.17562570304E+03 -0.99581447896E+03  0.21948118848E+03  0.10347283973E+04  0.00000000000E+00 0. -1.
<mgrwt>
<rscale>  0 0.23034579E+04</rscale>
<asrwt>0</asrwt>
<pdfrwt beam="1">  1        2 0.36893471E+00 0.23034579E+04</pdfrwt>
<pdfrwt beam="2">  1       -2 0.85098976E-01 0.23034579E+04</pdfrwt>
<totfact> 0.43406564E+00</totfact>
</mgrwt>
</event>
<event>
 6    1  0.9364335E-007  0.2877775E+04  0.7818608E-02  0.8279521E-01
          2   -1    0    0  501    0  0.00000000000E+00  0.00000000000E+00  0.13280902272E+04  0.13280902272E+04  0.00000000000E+00 0. -1.
         -2   -1    0    0    0  501 -0.00000000000E+00 -0.00000000000E+00 -0.15589285001E+04  0.15589285001E+04  0.00000000000E+00 0.  1.
         23    2    1    2    0    0  0.66872053927E+03  0.12683448930E+04 -0.14182098410E+02  0.14369063781E+04  0.92805603908E+02 0.  0.
         13    1    3    3    0    0  0.61994530320E+03  0.12174964645E+04 -0.17660419631E+02  0.13663607541E+04  0.00000000000E+00 0.  1.
        -13    1    3    3    0    0  0.48775236072E+02  0.50848428525E+02  0.34783212215E+01  0.70545623931E+02  0.00000000000E+00 0. -1.
         22    1    1    2    0    0 -0.66872053927E+03 -0.12683448930E+04 -0.21665617446E+03  0.14501123492E+04  0.00000000000E+00 0. -1.
<mgrwt>
<rscale>  0 0.28777753E+04</rscale>
<asrwt>0</asrwt>
<pdfrwt beam="1">  1        2 0.20432157E+00 0.28777753E+04</pdfrwt>
<pdfrwt beam="2">  1       -2 0.23983515E+00 0.28777753E+04</pdfrwt>
<totfact> 0.10220957E+00</totfact>
</mgrwt>
</event>
<event>
 6    1  0.9364335E-007  0.3242765E+04  0.7818608E-02  0.8177613E-01
         -2   -1    0    0    0  501 -0.00000000000E+00  0.00000000000E+00  0.84450056091E+03  0.84450056091E+03  0.00000000000E+00 0.  1.
          2   -1    0    0  501    0  0.00000000000E+00 -0.00000000000E+00 -0.31129424828E+04  0.31129424828E+04  0.00000000000E+00 0. -1.
         23    2    1    2    0    0  0.74424021634E+02  0.16143791329E+04 -0.99653076176E+03  0.19008641080E+04  0.91934097484E+02 0.  0.
         11    1    3    3    0    0  0.21366050387E+02  0.12290237989E+04 -0.73650413305E+03  0.14329669726E+04  0.00000000000E+00 0. -1.
        -11    1    3    3    0    0  0.53057971247E+02  0.38535533393E+03 -0.26002662871E+03  0.46789713542E+03  0.00000000000E+00 0.  1.
         22    1    1    2    0    0 -0.74424021634E+02 -0.16143791329E+04 -0.12719111601E+04  0.20565789357E+04  0.00000000000E+00 0. -1.
<mgrwt>
<rscale>  0 0.32427653E+04</rscale>
<asrwt>0</asrwt>
<pdfrwt beam="1">  1        2 0.47891424E+00 0.32427653E+04</pdfrwt>
<pdfrwt beam="2">  1       -2 0.12992316E+00 0.32427653E+04</pdfrwt>
<totfact> 0.53837278E-01</totfact>
</mgrwt>
</event>
<event>
 6    1  0.9364335E-007  0.2500717E+04  0.7818608E-02  0.8402730E-01
         -2   -1    0    0    0  501 -0.00000000000E+00  0.00000000000E+00  0.52211207250E+03  0.52211207250E+03  0.00000000000E+00 0.  1.
          2   -1    0    0  501    0  0.00000000000E+00 -0.00000000000E+00 -0.29943686906E+04  0.29943686906E+04  0.00000000000E+00 0. -1.
         23    2    1    2    0    0 -0.11089879125E+04 -0.32934402251E+03 -0.18988537378E+04  0.22253136405E+04  0.89741886040E+02 0.  0.
         13    1    3    3    0    0 -0.84727765908E+03 -0.28781566560E+03 -0.14365448207E+04  0.16924474322E+04  0.00000000000E+00 0.  1.
        -13    1    3    3    0    0 -0.26171025341E+03 -0.41528356909E+02 -0.46230891704E+03  0.53286620830E+03  0.00000000000E+00 0. -1.
         22    1    1    2    0    0  0.11089879125E+04  0.32934402251E+03 -0.57340288034E+03  0.12911671226E+04  0.00000000000E+00 0.  1.
<mgrwt>
<rscale>  0 0.25007167E+04</rscale>
<asrwt>0</asrwt>
<pdfrwt beam="1">  1        2 0.46067211E+00 0.25007167E+04</pdfrwt>
<pdfrwt beam="2">  1       -2 0.80324934E-01 0.25007167E+04</pdfrwt>
<totfact> 0.21446361E+00</totfact>
</mgrwt>
</event>
<event>
 6    1  0.9364335E-007  0.2282981E+04  0.7818608E-02  0.8484662E-01
         -1   -1    0    0    0  501 -0.00000000000E+00  0.00000000000E+00  0.14015423115E+04  0.14015423115E+04  0.00000000000E+00 0.  1.
          1   -1    0    0  501    0  0.00000000000E+00 -0.00000000000E+00 -0.92969067092E+03  0.92969067092E+03  0.00000000000E+00 0. -1.
         23    2    1    2    0    0 -0.40716664465E+03  0.84029364163E+03 -0.43063417740E+03  0.10326342252E+04  0.94918742038E+02 0.  0.
         11    1    3    3    0    0 -0.38960553422E+03  0.77859169197E+03 -0.42324812387E+03  0.96805809198E+03  0.00000000000E+00 0.  1.
        -11    1    3    3    0    0 -0.17561110432E+02  0.61701949664E+02 -0.73860535245E+01  0.64576133197E+02  0.00000000000E+00 0. -1.
         22    1    1    2    0    0  0.40716664465E+03 -0.84029364163E+03  0.90248581803E+03  0.12985987573E+04  0.00000000000E+00 0. -1.
<mgrwt>
<rscale>  0 0.22829812E+04</rscale>
<asrwt>0</asrwt>
<pdfrwt beam="1">  1        1 0.14302933E+00 0.22829812E+04</pdfrwt>
<pdfrwt beam="2">  1       -1 0.21562189E+00 0.22829812E+04</pdfrwt>
<totfact> 0.18346313E+00</totfact>
</mgrwt>
</event>
<event>
 6    1  0.9364335E-007  0.3868469E+03  0.7818608E-02  0.1048432E+00
         -2   -1    0    0    0  501 -0.00000000000E+00  0.00000000000E+00  0.16599183894E+02  0.16599183894E+02  0.00000000000E+00 0.  1.
          2   -1    0    0  501    0  0.00000000000E+00 -0.00000000000E+00 -0.22538833091E+04  0.22538833091E+04  0.00000000000E+00 0. -1.
         23    2    1    2    0    0 -0.93323382750E+02  0.11413674803E+03 -0.18149079190E+04  0.18231145118E+04  0.90107256651E+02 0.  0.
         13    1    3    3    0    0 -0.89386762103E+02  0.12582381303E+03 -0.14899717965E+04  0.14979444514E+04  0.00000000000E+00 0. -1.
        -13    1    3    3    0    0 -0.39366206475E+01 -0.11687064998E+02 -0.32493612248E+03  0.32517006037E+03  0.00000000000E+00 0.  1.
         22    1    1    2    0    0  0.93323382750E+02 -0.11413674803E+03 -0.42237620620E+03  0.44736798118E+03  0.00000000000E+00 0.  1.
<mgrwt>
<rscale>  0 0.38684686E+03</rscale>
<asrwt>0</asrwt>
<pdfrwt beam="1">  1        2 0.34675102E+00 0.38684686E+03</pdfrwt>
<pdfrwt beam="2">  1       -2 0.25537225E-02 0.38684686E+03</pdfrwt>
<totfact> 0.29159324E+03</totfact>
</mgrwt>
</event>
<event>
 6    1  0.9364335E-007  0.3053988E+04  0.7818608E-02  0.8228480E-01
         -2   -1    0    0    0  501 -0.00000000000E+00  0.00000000000E+00  0.11812825620E+04  0.11812825620E+04  0.00000000000E+00 0.  1.
          2   -1    0    0  501    0  0.00000000000E+00 -0.00000000000E+00 -0.19738806357E+04  0.19738806357E+04  0.00000000000E+00 0. -1.
         23    2    1    2    0    0  0.11577106515E+04 -0.85856399438E+03 -0.91359375313E+03  0.17087655900E+04  0.88318802002E+02 0.  0.
         11    1    3    3    0    0  0.38316934220E+03 -0.26987292855E+03 -0.34462150541E+03  0.58173372291E+03  0.00000000000E+00 0.  1.
        -11    1    3    3    0    0  0.77454130929E+03 -0.58869106582E+03 -0.56897224771E+03  0.11270318671E+04  0.00000000000E+00 0. -1.
         22    1    1    2    0    0 -0.11577106515E+04  0.85856399438E+03  0.12099567940E+03  0.14463976077E+04  0.00000000000E+00 0. -1.
<mgrwt>
<rscale>  0 0.30539881E+04</rscale>
<asrwt>0</asrwt>
<pdfrwt beam="1">  1        2 0.30367394E+00 0.30539881E+04</pdfrwt>
<pdfrwt beam="2">  1       -2 0.18173578E+00 0.30539881E+04</pdfrwt>
<totfact> 0.10386687E+00</totfact>
</mgrwt>
</event>
<event>
 6    1  0.9364335E-007  0.4624329E+04  0.7818608E-02  0.7889225E-01
         -2   -1    0    0    0  501 -0.00000000000E+00  0.00000000000E+00  0.25422316649E+04  0.25422316649E+04  0.00000000000E+00 0.  1.
          2   -1    0    0  501    0  0.00000000000E+00 -0.00000000000E+00 -0.21029181241E+04  0.21029181241E+04  0.00000000000E+00 0. -1.
         23    2    1    2    0    0 -0.10040751533E+03  0.70814040803E+03 -0.19879908080E+04  0.21146654661E+04  0.90322058610E+02 0.  0.
         11    1    3    3    0    0 -0.68882659634E+02  0.23399203869E+03 -0.74639919679E+03  0.78524445617E+03  0.00000000000E+00 0.  1.
        -11    1    3    3    0    0 -0.31524855696E+02  0.47414836933E+03 -0.12415916112E+04  0.13294210100E+04  0.00000000000E+00 0. -1.
         22    1    1    2    0    0  0.10040751533E+03 -0.70814040803E+03  0.24273043488E+04  0.25304843229E+04  0.00000000000E+00 0.  1.
<mgrwt>
<rscale>  0 0.46243292E+04</rscale>
<asrwt>0</asrwt>
<pdfrwt beam="1">  1        2 0.32352587E+00 0.46243292E+04</pdfrwt>
<pdfrwt beam="2">  1       -2 0.39111256E+00 0.46243292E+04</pdfrwt>
<totfact> 0.37255458E-02</totfact>
</mgrwt>
</event>
<event>
 6    1  0.9364335E-007  0.1883433E+04  0.7818608E-02  0.8663147E-01
          1   -1    0    0  501    0  0.00000000000E+00  0.00000000000E+00  0.16276423598E+04  0.16276423598E+04  0.00000000000E+00 0. -1.
         -1   -1    0    0    0  501 -0.00000000000E+00 -0.00000000000E+00 -0.54485537239E+03  0.54485537239E+03  0.00000000000E+00 0.  1.
         23    2    1    2    0    0  0.80317647331E+03  0.43095589257E+03  0.80846568531E+03  0.12206218971E+04  0.74064990343E+02 0.  0.
         13    1    3    3    0    0  0.43191145378E+03  0.24196857502E+03  0.48657059980E+03  0.69415217625E+03  0.00000000000E+00 0.  1.
        -13    1    3    3    0    0  0.37126501953E+03  0.18898731754E+03  0.32189508551E+03  0.52646972087E+03  0.00000000000E+00 0. -1.
         22    1    1    2    0    0 -0.80317647331E+03 -0.43095589257E+03  0.27432130212E+03  0.95187583509E+03  0.00000000000E+00 0.  1.
<mgrwt>
<rscale>  0 0.18834327E+04</rscale>
<asrwt>0</asrwt>
<pdfrwt beam="1">  1        1 0.25040651E+00 0.18834327E+04</pdfrwt>
<pdfrwt beam="2">  1       -1 0.83823904E-01 0.18834327E+04</pdfrwt>
<totfact> 0.70613099E+00</totfact>
</mgrwt>
</event>
<event>
 6    1  0.9364335E-007  0.1457451E+04  0.7818608E-02  0.8913251E-01
         -1   -1    0    0    0  501 -0.00000000000E+00  0.00000000000E+00  0.44521831354E+03  0.44521831354E+03  0.00000000000E+00 0.  1.
          1   -1    0    0  501    0  0.00000000000E+00 -0.00000000000E+00 -0.11927648826E+04  0.11927648826E+04  0.00000000000E+00 0. -1.
         23    2    1    2    0    0 -0.35101996446E+03  0.24831460269E+03  0.28212988345E+03  0.52213878305E+03  0.90313234207E+02 0.  0.
         13    1    3    3    0    0 -0.33679294972E+03  0.20620442093E+03  0.25338882453E+03  0.46920747072E+03  0.00000000000E+00 0.  1.
        -13    1    3    3    0    0 -0.14227014744E+02  0.42110181766E+02  0.28741058923E+02  0.52931312329E+02  0.00000000000E+00 0. -1.
         22    1    1    2    0    0  0.35101996446E+03 -0.24831460269E+03 -0.10296764525E+04  0.11158444131E+04  0.00000000000E+00 0. -1.
<mgrwt>
<rscale>  0 0.14574509E+04</rscale>
<asrwt>0</asrwt>
<pdfrwt beam="1">  1        1 0.18350229E+00 0.14574509E+04</pdfrwt>
<pdfrwt beam="2">  1       -1 0.68495126E-01 0.14574509E+04</pdfrwt>
<totfact> 0.22651841E+01</totfact>
</mgrwt>
</event>
<event>
 6    1  0.9364335E-007  0.1385712E+04  0.7818608E-02  0.8964227E-01
         -3   -1    0    0    0  501 -0.00000000000E+00  0.00000000000E+00  0.96846835508E+03  0.96846835508E+03  0.00000000000E+00 0.  1.
          3   -1    0    0  501    0  0.00000000000E+00 -0.00000000000E+00 -0.49567868519E+03  0.49567868519E+03  0.00000000000E+00 0. -1.
         23    2    1    2    0    0  0.43572034273E+03  0.50390696796E+03  0.46770384879E+02  0.67340885312E+03  0.86703893408E+02 0.  0.
         11    1    3    3    0    0  0.27567312485E+02  0.58834481642E+02 -0.14028331405E+02  0.66469895666E+02  0.00000000000E+00 0.  1.
        -11    1    3    3    0    0  0.40815303024E+03  0.44507248632E+03  0.60798716284E+02  0.60693895745E+03  0.00000000000E+00 0. -1.
         22    1    1    2    0    0 -0.43572034273E+03 -0.50390696796E+03  0.42601928501E+03  0.79073818716E+03  0.00000000000E+00 0.  1.
<mgrwt>
<rscale>  0 0.13857115E+04</rscale>
<asrwt>0</asrwt>
<pdfrwt beam="1">  1        3 0.76258259E-01 0.13857115E+04</pdfrwt>
<pdfrwt beam="2">  1       -3 0.14899513E+00 0.13857115E+04</pdfrwt>
<totfact> 0.13555906E+00</totfact>
</mgrwt>
</event>
<event>
 6    1  0.9364335E-007  0.9053901E+03  0.7818608E-02  0.9418869E-01
         -1   -1    0    0    0  501 -0.00000000000E+00  0.00000000000E+00  0.23986659755E+03  0.23986659755E+03  0.00000000000E+00 0.  1.
          1   -1    0    0  501    0  0.00000000000E+00 -0.00000000000E+00 -0.85436156367E+03  0.85436156367E+03  0.00000000000E+00 0. -1.
         23    2    1    2    0    0 -0.66165721340E+02 -0.31700950045E+03  0.64123651774E+02  0.34229987036E+03  0.90467853279E+02 0.  0.
         13    1    3    3    0    0 -0.14467549604E+02 -0.77720228327E+02  0.56863973338E+02  0.97382007304E+02  0.00000000000E+00 0. -1.
        -13    1    3    3    0    0 -0.51698171736E+02 -0.23928927212E+03  0.72596784361E+01  0.24491786305E+03  0.00000000000E+00 0.  1.
         22    1    1    2    0    0  0.66165721340E+02  0.31700950045E+03 -0.67861861790E+03  0.75192829087E+03  0.00000000000E+00 0. -1.
<mgrwt>
<rscale>  0 0.90539008E+03</rscale>
<asrwt>0</asrwt>
<pdfrwt beam="1">  1        1 0.13144024E+00 0.90539008E+03</pdfrwt>
<pdfrwt beam="2">  1       -1 0.36902554E-01 0.90539008E+03</pdfrwt>
<totfact> 0.14095566E+02</totfact>
</mgrwt>
</event>
<event>
 6    1  0.9364335E-007  0.3391567E+04  0.7818608E-02  0.8139979E-01
          2   -1    0    0  501    0  0.00000000000E+00  0.00000000000E+00  0.17665935757E+04  0.17665935757E+04  0.00000000000E+00 0. -1.
         -2   -1    0    0    0  501 -0.00000000000E+00 -0.00000000000E+00 -0.16278115214E+04  0.16278115214E+04  0.00000000000E+00 0.  1.
         23    2    1    2    0    0 -0.15535584362E+04 -0.34896708190E+03  0.64971957812E+03  0.17221673771E+04  0.91668454858E+02 0.  0.
         11    1    3    3    0    0 -0.48167615115E+03 -0.14986488632E+03  0.19175129087E+03  0.53966652323E+03  0.00000000000E+00 0. -1.
        -11    1    3    3    0    0 -0.10718822851E+04 -0.19910219557E+03  0.45796828724E+03  0.11825008539E+04  0.00000000000E+00 0.  1.
         22    1    1    2    0    0  0.15535584362E+04  0.34896708190E+03 -0.51093752376E+03  0.16722377200E+04  0.00000000000E+00 0. -1.
<mgrwt>
<rscale>  0 0.33915668E+04</rscale>
<asrwt>0</asrwt>
<pdfrwt beam="1">  1        2 0.27178363E+00 0.33915668E+04</pdfrwt>
<pdfrwt beam="2">  1       -2 0.25043254E+00 0.33915668E+04</pdfrwt>
<totfact> 0.47683827E-01</totfact>
</mgrwt>
</event>
<event>
 6    1  0.9364335E-007  0.1436500E+04  0.7818608E-02  0.8927814E-01
         -2   -1    0    0    0  501 -0.00000000000E+00  0.00000000000E+00  0.25774289468E+03  0.25774289468E+03  0.00000000000E+00 0.  1.
          2   -1    0    0  501    0  0.00000000000E+00 -0.00000000000E+00 -0.20015404333E+04  0.20015404333E+04  0.00000000000E+00 0. -1.
         23    2    1    2    0    0  0.54873399460E+03 -0.26440998716E+03 -0.14654029636E+04  0.15895631047E+04  0.91013075055E+02 0.  0.
         11    1    3    3    0    0  0.48728302063E+03 -0.22641714872E+03 -0.12059050376E+04  0.13201956019E+04  0.00000000000E+00 0. -1.
        -11    1    3    3    0    0  0.61450973968E+02 -0.37992838446E+02 -0.25949792595E+03  0.26936750277E+03  0.00000000000E+00 0.  1.
         22    1    1    2    0    0 -0.54873399460E+03  0.26440998716E+03 -0.27839457506E+03  0.66972022335E+03  0.00000000000E+00 0.  1.
<mgrwt>
<rscale>  0 0.14364997E+04</rscale>
<asrwt>0</asrwt>
<pdfrwt beam="1">  1        2 0.30792931E+00 0.14364997E+04</pdfrwt>
<pdfrwt beam="2">  1       -2 0.39652752E-01 0.14364997E+04</pdfrwt>
<totfact> 0.38962532E+01</totfact>
</mgrwt>
</event>
<event>
 6    1  0.9364335E-007  0.2507096E+04  0.7818608E-02  0.8400462E-01
         -2   -1    0    0    0  501 -0.00000000000E+00  0.00000000000E+00  0.62796428811E+03  0.62796428811E+03  0.00000000000E+00 0.  1.
          2   -1    0    0  501    0  0.00000000000E+00 -0.00000000000E+00 -0.25023438287E+04  0.25023438287E+04  0.00000000000E+00 0. -1.
         23    2    1    2    0    0  0.63968151250E+03 -0.83041028114E+03 -0.17930229443E+04  0.20789316056E+04  0.90838702153E+02 0.  0.
         13    1    3    3    0    0  0.34184142455E+03 -0.47725726141E+03 -0.10821951283E+04  0.12311686923E+04  0.00000000000E+00 0.  1.
        -13    1    3    3    0    0  0.29784008795E+03 -0.35315301973E+03 -0.71082781593E+03  0.84776291334E+03  0.00000000000E+00 0. -1.
         22    1    1    2    0    0 -0.63968151250E+03  0.83041028114E+03 -0.81356596323E+02  0.10513765112E+04  0.00000000000E+00 0.  1.
<mgrwt>
<rscale>  0 0.25070960E+04</rscale>
<asrwt>0</asrwt>
<pdfrwt beam="1">  1        2 0.38497598E+00 0.25070960E+04</pdfrwt>
<pdfrwt beam="2">  1       -2 0.96609889E-01 0.25070960E+04</pdfrwt>
<totfact> 0.27710820E+00</totfact>
</mgrwt>
</event>
<event>
 6    1  0.9364335E-007  0.1447138E+04  0.7818608E-02  0.8920387E-01
          2   -1    0    0  501    0  0.00000000000E+00  0.00000000000E+00  0.19154080451E+04  0.19154080451E+04  0.00000000000E+00 0. -1.
         -2   -1    0    0    0  501 -0.00000000000E+00 -0.00000000000E+00 -0.27333703292E+03  0.27333703292E+03  0.00000000000E+00 0.  1.
         23    2    1    2    0    0 -0.72249352577E+02 -0.36347136835E+03 -0.11057168378E+03  0.39735237281E+03  0.91276537852E+02 0.  0.
         13    1    3    3    0    0 -0.33014438370E+02 -0.30908101164E+03 -0.68863032092E+02  0.31837578753E+03  0.00000000000E+00 0. -1.
        -13    1    3    3    0    0 -0.39234914206E+02 -0.54390356711E+02 -0.41708651691E+02  0.78976585276E+02  0.00000000000E+00 0.  1.
         22    1    1    2    0    0  0.72249352577E+02  0.36347136835E+03  0.17526426960E+04  0.17913927052E+04  0.00000000000E+00 0. -1.
<mgrwt>
<rscale>  0 0.14471378E+04</rscale>
<asrwt>0</asrwt>
<pdfrwt beam="1">  1        2 0.29467815E+00 0.14471378E+04</pdfrwt>
<pdfrwt beam="2">  1       -2 0.42051852E-01 0.14471378E+04</pdfrwt>
<totfact> 0.38714274E+01</totfact>
</mgrwt>
</event>
<event>
 6    1  0.9364335E-007  0.2173765E+04  0.7818608E-02  0.8529428E-01
         -2   -1    0    0    0  501 -0.00000000000E+00  0.00000000000E+00  0.59241072222E+03  0.59241072222E+03  0.00000000000E+00 0.  1.
          2   -1    0    0  501    0  0.00000000000E+00 -0.00000000000E+00 -0.19940783626E+04  0.19940783626E+04  0.00000000000E+00 0. -1.
         23    2    1    2    0    0  0.47958799024E+02 -0.10729234689E+04 -0.88546265012E+03  0.13948799171E+04  0.90449223000E+02 0.  0.
         11    1    3    3    0    0  0.44411106832E+02 -0.24698371790E+03 -0.18257006776E+03  0.31033068324E+03  0.00000000000E+00 0.  1.
        -11    1    3    3    0    0  0.35476921925E+01 -0.82593975101E+03 -0.70289258236E+03  0.10845492339E+04  0.00000000000E+00 0. -1.
         22    1    1    2    0    0 -0.47958799024E+02  0.10729234689E+04 -0.51620499029E+03  0.11916091677E+04  0.00000000000E+00 0.  1.
<mgrwt>
<rscale>  0 0.21737648E+04</rscale>
<asrwt>0</asrwt>
<pdfrwt beam="1">  1        2 0.30678128E+00 0.21737648E+04</pdfrwt>
<pdfrwt beam="2">  1       -2 0.91140113E-01 0.21737648E+04</pdfrwt>
<totfact> 0.63294437E+00</totfact>
</mgrwt>
</event>
<event>
 6    1  0.9364335E-007  0.1060512E+04  0.7818608E-02  0.9244558E-01
          1   -1    0    0  501    0  0.00000000000E+00  0.00000000000E+00  0.65166942770E+03  0.65166942770E+03  0.00000000000E+00 0. -1.
         -1   -1    0    0    0  501 -0.00000000000E+00 -0.00000000000E+00 -0.43146292867E+03  0.43146292867E+03  0.00000000000E+00 0.  1.
         23    2    1    2    0    0 -0.18664850384E+03  0.12997138934E+03 -0.37394673192E+03  0.44693404777E+03  0.90463576696E+02 0.  0.
         11    1    3    3    0    0 -0.17892018213E+03  0.99680834977E+02 -0.27319710324E+03  0.34144598059E+03  0.00000000000E+00 0. -1.
        -11    1    3    3    0    0 -0.77283217062E+01  0.30290554367E+02 -0.10074962867E+03  0.10548806718E+03  0.00000000000E+00 0.  1.
         22    1    1    2    0    0  0.18664850384E+03 -0.12997138934E+03  0.59415323095E+03  0.63619830861E+03  0.00000000000E+00 0. -1.
<mgrwt>
<rscale>  0 0.10605116E+04</rscale>
<asrwt>0</asrwt>
<pdfrwt beam="1">  1        1 0.10025684E+00 0.10605116E+04</pdfrwt>
<pdfrwt beam="2">  1       -1 0.66378912E-01 0.10605116E+04</pdfrwt>
<totfact> 0.69730042E+01</totfact>
</mgrwt>
</event>
<event>
 6    1  0.9364335E-007  0.2067364E+04  0.7818608E-02  0.8575758E-01
         -2   -1    0    0    0  501 -0.00000000000E+00  0.00000000000E+00  0.79049648524E+03  0.79049648524E+03  0.00000000000E+00 0.  1.
          2   -1    0    0  501    0  0.00000000000E+00 -0.00000000000E+00 -0.13516796775E+04  0.13516796775E+04  0.00000000000E+00 0. -1.
         23    2    1    2    0    0  0.84530190008E+03  0.30918283973E+03  0.24130769999E+03  0.93630678225E+03  0.91168271637E+02 0.  0.
         13    1    3    3    0    0  0.32704445996E+03  0.94036286780E+02  0.52909894350E+02  0.34438402829E+03  0.00000000000E+00 0.  1.
        -13    1    3    3    0    0  0.51825744012E+03  0.21514655295E+03  0.18839780564E+03  0.59192275396E+03  0.00000000000E+00 0. -1.
         22    1    1    2    0    0 -0.84530190008E+03 -0.30918283973E+03 -0.80249089228E+03  0.12058693805E+04  0.00000000000E+00 0. -1.
<mgrwt>
<rscale>  0 0.20673636E+04</rscale>
<asrwt>0</asrwt>
<pdfrwt beam="1">  1        2 0.20795072E+00 0.20673636E+04</pdfrwt>
<pdfrwt beam="2">  1       -2 0.12161485E+00 0.20673636E+04</pdfrwt>
<totfact> 0.73227132E+00</totfact>
</mgrwt>
</event>
<event>
 6    1  0.9364335E-007  0.9592023E+03  0.7818608E-02  0.9354459E-01
         -2   -1    0    0    0  501 -0.00000000000E+00  0.00000000000E+00  0.21170371382E+03  0.21170371382E+03  0.00000000000E+00 0.  1.
          2   -1    0    0  501    0  0.00000000000E+00 -0.00000000000E+00 -0.10865055621E+04  0.10865055621E+04  0.00000000000E+00 0. -1.
         23    2    1    2    0    0  0.34430258663E+03 -0.24672158137E+03 -0.14980445670E+03  0.45854444537E+03  0.91683276884E+02 0.  0.
         11    1    3    3    0    0  0.27855757975E+03 -0.23928152651E+03 -0.12686155701E+03  0.38851490166E+03  0.00000000000E+00 0. -1.
        -11    1    3    3    0    0  0.65745006880E+02 -0.74400548566E+01 -0.22942899693E+02  0.70029543710E+02  0.00000000000E+00 0.  1.
         22    1    1    2    0    0 -0.34430258663E+03  0.24672158137E+03 -0.72499739160E+03  0.83966483058E+03  0.00000000000E+00 0. -1.
<mgrwt>
<rscale>  0 0.95920230E+03</rscale>
<asrwt>0</asrwt>
<pdfrwt beam="1">  1        2 0.16715470E+00 0.95920230E+03</pdfrwt>
<pdfrwt beam="2">  1       -2 0.32569803E-01 0.95920230E+03</pdfrwt>
<totfact> 0.19491035E+02</totfact>
</mgrwt>
</event>
<event>
 6    1  0.9364335E-007  0.8010411E+03  0.7818608E-02  0.9558511E-01
          1   -1    0    0  501    0  0.00000000000E+00  0.00000000000E+00  0.20159199172E+04  0.20159199172E+04  0.00000000000E+00 0. -1.
         -1   -1    0    0    0  501 -0.00000000000E+00 -0.00000000000E+00 -0.79574944479E+02  0.79574944479E+02  0.00000000000E+00 0.  1.
         23    2    1    2    0    0  0.92516685259E+02 -0.28094950747E+03  0.29477463675E+03  0.42748852754E+03  0.91446114768E+02 0.  0.
         13    1    3    3    0    0 -0.13726180334E+02 -0.53462998127E+02  0.30918825788E+02  0.63266689367E+02  0.00000000000E+00 0. -1.
        -13    1    3    3    0    0  0.10624286559E+03 -0.22748650934E+03  0.26385581096E+03  0.36422183817E+03  0.00000000000E+00 0.  1.
         22    1    1    2    0    0 -0.92516685259E+02  0.28094950747E+03  0.16415703360E+04  0.16680063342E+04  0.00000000000E+00 0. -1.
<mgrwt>
<rscale>  0 0.80104111E+03</rscale>
<asrwt>0</asrwt>
<pdfrwt beam="1">  1        1 0.31014149E+00 0.80104111E+03</pdfrwt>
<pdfrwt beam="2">  1       -1 0.12242301E-01 0.80104111E+03</pdfrwt>
<totfact> 0.13618841E+02</totfact>
</mgrwt>
</event>
<event>
 6    1  0.9364335E-007  0.3271890E+04  0.7818608E-02  0.8170085E-01
          1   -1    0    0  501    0  0.00000000000E+00  0.00000000000E+00  0.14072730169E+04  0.14072730169E+04  0.00000000000E+00 0. -1.
         -1   -1    0    0    0  501 -0.00000000000E+00 -0.00000000000E+00 -0.19017748496E+04  0.19017748496E+04  0.00000000000E+00 0.  1.
         23    2    1    2    0    0  0.96875908495E+02  0.62913118876E+03 -0.17702371002E+04  0.18833229747E+04  0.89303090697E+02 0.  0.
         11    1    3    3    0    0  0.10075964942E+03  0.37404701381E+03 -0.10397011131E+04  0.11095233571E+04  0.00000000000E+00 0.  1.
        -11    1    3    3    0    0 -0.38837409250E+01  0.25508417495E+03 -0.73053598708E+03  0.77379961759E+03  0.00000000000E+00 0. -1.
         22    1    1    2    0    0 -0.96875908495E+02 -0.62913118876E+03  0.12757352674E+04  0.14257248917E+04  0.00000000000E+00 0. -1.
<mgrwt>
<rscale>  0 0.32718902E+04</rscale>
<asrwt>0</asrwt>
<pdfrwt beam="1">  1        1 0.21650354E+00 0.32718902E+04</pdfrwt>
<pdfrwt beam="2">  1       -1 0.29258074E+00 0.32718902E+04</pdfrwt>
<totfact> 0.23291428E-01</totfact>
</mgrwt>
</event>
<event>
 6    1  0.9364335E-007  0.5106073E+04  0.7818608E-02  0.7812350E-01
         -1   -1    0    0    0  501 -0.00000000000E+00  0.00000000000E+00  0.19559914581E+04  0.19559914581E+04  0.00000000000E+00 0.  1.
          1   -1    0    0  501    0  0.00000000000E+00 -0.00000000000E+00 -0.33323225838E+04  0.33323225838E+04  0.00000000000E+00 0. -1.
         23    2    1    2    0    0 -0.21542833106E+04 -0.55591065876E+03 -0.19835209807E+04  0.29820935921E+04  0.92484963604E+02 0.  0.
         11    1    3    3    0    0 -0.25461689212E+03 -0.89073638715E+02 -0.26767485903E+03  0.38001803250E+03  0.00000000000E+00 0.  1.
        -11    1    3    3    0    0 -0.18996664185E+04 -0.46683702005E+03 -0.17158461217E+04  0.26020755596E+04  0.00000000000E+00 0. -1.
         22    1    1    2    0    0  0.21542833106E+04  0.55591065876E+03  0.60718985496E+03  0.23062204498E+04  0.00000000000E+00 0.  1.
<mgrwt>
<rscale>  0 0.51060727E+04</rscale>
<asrwt>0</asrwt>
<pdfrwt beam="1">  1        1 0.51266500E+00 0.51060727E+04</pdfrwt>
<pdfrwt beam="2">  1       -1 0.30092177E+00 0.51060727E+04</pdfrwt>
<totfact> 0.78628043E-03</totfact>
</mgrwt>
</event>
<event>
 6    1  0.9364335E-007  0.1229511E+04  0.7818608E-02  0.9087411E-01
          2   -1    0    0  501    0  0.00000000000E+00  0.00000000000E+00  0.90121979219E+03  0.90121979219E+03  0.00000000000E+00 0. -1.
         -2   -1    0    0    0  501 -0.00000000000E+00 -0.00000000000E+00 -0.41934764183E+03  0.41934764183E+03  0.00000000000E+00 0.  1.
         23    2    1    2    0    0  0.21988140094E+03  0.52818906212E+03  0.10420741598E+02  0.57921869917E+03  0.89745160288E+02 0.  0.
         11    1    3    3    0    0  0.14790801855E+03  0.43388596705E+03 -0.11653945318E+02  0.45855166426E+03  0.00000000000E+00 0.  1.
        -11    1    3    3    0    0  0.71973382394E+02  0.94303095074E+02  0.22074686916E+02  0.12066703492E+03  0.00000000000E+00 0. -1.
         22    1    1    2    0    0 -0.21988140094E+03 -0.52818906212E+03  0.47145140877E+03  0.74134873484E+03  0.00000000000E+00 0. -1.
<mgrwt>
<rscale>  0 0.12295111E+04</rscale>
<asrwt>0</asrwt>
<pdfrwt beam="1">  1        2 0.13864920E+00 0.12295111E+04</pdfrwt>
<pdfrwt beam="2">  1       -2 0.64515022E-01 0.12295111E+04</pdfrwt>
<totfact> 0.63963295E+01</totfact>
</mgrwt>
</event>
<event>
 6    1  0.9364335E-007  0.1572292E+04  0.7818608E-02  0.8837753E-01
          3   -1    0    0  501    0  0.00000000000E+00  0.00000000000E+00  0.10341199057E+04  0.10341199057E+04  0.00000000000E+00 0. -1.
         -3   -1    0    0    0  501 -0.00000000000E+00 -0.00000000000E+00 -0.59763403685E+03  0.59763403685E+03  0.00000000000E+00 0.  1.
         23    2    1    2    0    0 -0.93387757329E+01 -0.33818724758E+03 -0.51447301075E+03  0.62240731337E+03  0.90832581112E+02 0.  0.
         11    1    3    3    0    0  0.17214768607E+02 -0.26711588157E+03 -0.34446171683E+03  0.43623516227E+03  0.00000000000E+00 0.  1.
        -11    1    3    3    0    0 -0.26553544340E+02 -0.71071366013E+02 -0.17001129392E+03  0.18617215110E+03  0.00000000000E+00 0. -1.
         22    1    1    2    0    0  0.93387757329E+01  0.33818724758E+03  0.95095887964E+03  0.10093466292E+04  0.00000000000E+00 0. -1.
<mgrwt>
<rscale>  0 0.15722916E+04</rscale>
<asrwt>0</asrwt>
<pdfrwt beam="1">  1        3 0.15909537E+00 0.15722916E+04</pdfrwt>
<pdfrwt beam="2">  1       -3 0.91943698E-01 0.15722916E+04</pdfrwt>
<totfact> 0.74082921E-01</totfact>
</mgrwt>
</event>
<event>
 6    1  0.9364335E-007  0.2235168E+04  0.7818608E-02  0.8503931E-01
         -2   -1    0    0    0  501 -0.00000000000E+00  0.00000000000E+00  0.14093957438E+04  0.14093957438E+04  0.00000000000E+00 0.  1.
          2   -1    0    0  501    0  0.00000000000E+00 -0.00000000000E+00 -0.88619093553E+03  0.88619093553E+03  0.00000000000E+00 0. -1.
         23    2    1    2    0    0 -0.34854190239E+03 -0.10287741283E+04  0.52563716798E+03  0.12093714239E+04  0.80169469475E+02 0.  0.
         11    1    3    3    0    0 -0.29362732360E+02 -0.15981841464E+03  0.96849935878E+02  0.18916660855E+03  0.00000000000E+00 0. -1.
        -11    1    3    3    0    0 -0.31917917003E+03 -0.86895571365E+03  0.42878723211E+03  0.10202048154E+04  0.00000000000E+00 0.  1.
         22    1    1    2    0    0  0.34854190239E+03  0.10287741283E+04 -0.24323596913E+01  0.10862152554E+04  0.00000000000E+00 0. -1.
<mgrwt>
<rscale>  0 0.22351678E+04</rscale>
<asrwt>0</asrwt>
<pdfrwt beam="1">  1        2 0.13633707E+00 0.22351678E+04</pdfrwt>
<pdfrwt beam="2">  1       -2 0.21683011E+00 0.22351678E+04</pdfrwt>
<totfact> 0.28262900E+00</totfact>
</mgrwt>
</event>
<event>
 6    1  0.9364335E-007  0.1411653E+04  0.7818608E-02  0.8945426E-01
          2   -1    0    0  501    0  0.00000000000E+00  0.00000000000E+00  0.54805272682E+03  0.54805272682E+03  0.00000000000E+00 0. -1.
         -2   -1    0    0    0  501 -0.00000000000E+00 -0.00000000000E+00 -0.90902046210E+03  0.90902046210E+03  0.00000000000E+00 0.  1.
         23    2    1    2    0    0  0.11053704206E+03 -0.56688715092E+03  0.23219855317E+03  0.62916877095E+03  0.91420428257E+02 0.  0.
         13    1    3    3    0    0  0.65233620406E+02 -0.12961065339E+03  0.60633692643E+02  0.15726026639E+03  0.00000000000E+00 0. -1.
        -13    1    3    3    0    0  0.45303421656E+02 -0.43727649753E+03  0.17156486053E+03  0.47190850456E+03  0.00000000000E+00 0.  1.
         22    1    1    2    0    0 -0.11053704206E+03  0.56688715092E+03 -0.59316628845E+03  0.82790441797E+03  0.00000000000E+00 0.  1.
<mgrwt>
<rscale>  0 0.14116531E+04</rscale>
<asrwt>0</asrwt>
<pdfrwt beam="1">  1        2 0.84315805E-01 0.14116531E+04</pdfrwt>
<pdfrwt beam="2">  1       -2 0.13984930E+00 0.14116531E+04</pdfrwt>
<totfact> 0.19350859E+01</totfact>
</mgrwt>
</event>
<event>
 6    1  0.9364335E-007  0.4215373E+04  0.7818608E-02  0.7962454E-01
          2   -1    0    0  501    0  0.00000000000E+00  0.00000000000E+00  0.17002024762E+04  0.17002024762E+04  0.00000000000E+00 0. -1.
         -2   -1    0    0    0  501 -0.00000000000E+00 -0.00000000000E+00 -0.26128311766E+04  0.26128311766E+04  0.00000000000E+00 0.  1.
         23    2    1    2    0    0  0.16414190157E+04  0.56589231466E+03  0.76431328607E+03  0.18991933676E+04  0.90940372456E+02 0.  0.
         13    1    3    3    0    0  0.34029145291E+03  0.14972837765E+03  0.18690829579E+03  0.41611485317E+03  0.00000000000E+00 0. -1.
        -13    1    3    3    0    0  0.13011275628E+04  0.41616393701E+03  0.57740499028E+03  0.14830785144E+04  0.00000000000E+00 0.  1.
         22    1    1    2    0    0 -0.16414190157E+04 -0.56589231466E+03 -0.16769419864E+04  0.24138402853E+04  0.00000000000E+00 0.  1.
<mgrwt>
<rscale>  0 0.42153728E+04</rscale>
<asrwt>0</asrwt>
<pdfrwt beam="1">  1        2 0.26156961E+00 0.42153728E+04</pdfrwt>
<pdfrwt beam="2">  1       -2 0.40197402E+00 0.42153728E+04</pdfrwt>
<totfact> 0.54753930E-02</totfact>
</mgrwt>
</event>
<event>
 6    1  0.1119262E-006  0.2261562E+04  0.7818608E-02  0.8493233E-01
          1   -1    0    0  501    0  0.00000000000E+00  0.00000000000E+00  0.15807199144E+04  0.15807199144E+04  0.00000000000E+00 0. -1.
         -1   -1    0    0    0  501 -0.00000000000E+00 -0.00000000000E+00 -0.80891372501E+03  0.80891372501E+03  0.00000000000E+00 0.  1.
         23    2    1    2    0    0 -0.39389480799E+03  0.98312254436E+03 -0.26383423098E+02  0.10634399452E+04  0.92332957925E+02 0.  0.
         13    1    3    3    0    0 -0.28769207487E+03  0.60178189128E+03 -0.27594976365E+02  0.66758494391E+03  0.00000000000E+00 0. -1.
        -13    1    3    3    0    0 -0.10620273312E+03  0.38134065308E+03  0.12115532672E+01  0.39585500132E+03  0.00000000000E+00 0.  1.
         22    1    1    2    0    0  0.39389480799E+03 -0.98312254436E+03  0.79818961248E+03  0.13261936942E+04  0.00000000000E+00 0. -1.
<mgrwt>
<rscale>  0 0.22615623E+04</rscale>
<asrwt>0</asrwt>
<pdfrwt beam="1">  1        1 0.24318768E+00 0.22615623E+04</pdfrwt>
<pdfrwt beam="2">  1       -1 0.12444827E+00 0.22615623E+04</pdfrwt>
<totfact> 0.29521019E+00</totfact>
</mgrwt>
</event>
<event>
 6    1  0.9364335E-007  0.3665938E+04  0.7818608E-02  0.8075553E-01
          1   -1    0    0  501    0  0.00000000000E+00  0.00000000000E+00  0.30550984240E+04  0.30550984240E+04  0.00000000000E+00 0. -1.
         -1   -1    0    0    0  501 -0.00000000000E+00 -0.00000000000E+00 -0.10997274711E+04  0.10997274711E+04  0.00000000000E+00 0.  1.
         23    2    1    2    0    0 -0.36325116465E+03 -0.13476061630E+04  0.23229273084E+04  0.27115340141E+04  0.91824019263E+02 0.  0.
         13    1    3    3    0    0 -0.23791657407E+03 -0.71117637352E+03  0.12654533265E+04  0.14709684742E+04  0.00000000000E+00 0. -1.
        -13    1    3    3    0    0 -0.12533459058E+03 -0.63642978944E+03  0.10574739819E+04  0.12405655399E+04  0.00000000000E+00 0.  1.
         22    1    1    2    0    0  0.36325116465E+03  0.13476061630E+04 -0.36755635550E+03  0.14432918809E+04  0.00000000000E+00 0. -1.
<mgrwt>
<rscale>  0 0.36659382E+04</rscale>
<asrwt>0</asrwt>
<pdfrwt beam="1">  1        1 0.47001514E+00 0.36659382E+04</pdfrwt>
<pdfrwt beam="2">  1       -1 0.16918884E+00 0.36659382E+04</pdfrwt>
<totfact> 0.10924562E-01</totfact>
</mgrwt>
</event>
<event>
 6    1  0.9364335E-007  0.1416770E+04  0.7818608E-02  0.8941768E-01
          1   -1    0    0  501    0  0.00000000000E+00  0.00000000000E+00  0.34909148448E+03  0.34909148448E+03  0.00000000000E+00 0. -1.
         -1   -1    0    0    0  501 -0.00000000000E+00 -0.00000000000E+00 -0.14374731528E+04  0.14374731528E+04  0.00000000000E+00 0.  1.
         23    2    1    2    0    0  0.28780251277E+03 -0.93331969777E+02 -0.13500927040E+04  0.13865223781E+04  0.90293147545E+02 0.  0.
         11    1    3    3    0    0  0.98386519374E+02 -0.76532580618E+02 -0.58758035061E+03  0.60065615082E+03  0.00000000000E+00 0. -1.
        -11    1    3    3    0    0  0.18941599340E+03 -0.16799389159E+02 -0.76251235344E+03  0.78586622728E+03  0.00000000000E+00 0.  1.
         22    1    1    2    0    0 -0.28780251277E+03  0.93331969777E+02  0.26171103570E+03  0.40004225920E+03  0.00000000000E+00 0. -1.
<mgrwt>
<rscale>  0 0.14167705E+04</rscale>
<asrwt>0</asrwt>
<pdfrwt beam="1">  1        1 0.53706381E-01 0.14167705E+04</pdfrwt>
<pdfrwt beam="2">  1       -1 0.22114972E+00 0.14167705E+04</pdfrwt>
<totfact> 0.75673566E+00</totfact>
</mgrwt>
</event>
<event>
 6    1  0.9364335E-007  0.8875163E+03  0.7818608E-02  0.9441323E-01
          1   -1    0    0  501    0  0.00000000000E+00  0.00000000000E+00  0.22858624600E+03  0.22858624600E+03  0.00000000000E+00 0. -1.
         -1   -1    0    0    0  501 -0.00000000000E+00 -0.00000000000E+00 -0.86147490595E+03  0.86147490595E+03  0.00000000000E+00 0.  1.
         23    2    1    2    0    0 -0.21471500746E+03  0.33397287506E+03 -0.55071184555E+03  0.68460653732E+03  0.88103112314E+02 0.  0.
         13    1    3    3    0    0 -0.98376364213E+02  0.89205295773E+02 -0.14413764801E+03  0.19598764095E+03  0.00000000000E+00 0.  1.
        -13    1    3    3    0    0 -0.11633864325E+03  0.24476757929E+03 -0.40657419754E+03  0.48861889637E+03  0.00000000000E+00 0. -1.
         22    1    1    2    0    0  0.21471500746E+03 -0.33397287506E+03 -0.82176814392E+02  0.40545461463E+03  0.00000000000E+00 0. -1.
<mgrwt>
<rscale>  0 0.88751634E+03</rscale>
<asrwt>0</asrwt>
<pdfrwt beam="1">  1        1 0.35167114E-01 0.88751634E+03</pdfrwt>
<pdfrwt beam="2">  1       -1 0.13253460E+00 0.88751634E+03</pdfrwt>
<totfact> 0.60902410E+01</totfact>
</mgrwt>
</event>
<event>
 6    1  0.9364335E-007  0.3712147E+04  0.7818608E-02  0.8065275E-01
          2   -1    0    0  501    0  0.00000000000E+00  0.00000000000E+00  0.88410028624E+03  0.88410028624E+03  0.00000000000E+00 0. -1.
         -2   -1    0    0    0  501 -0.00000000000E+00 -0.00000000000E+00 -0.38966262422E+04  0.38966262422E+04  0.00000000000E+00 0.  1.
         23    2    1    2    0    0 -0.11589324773E+04  0.89279172372E+03 -0.29759826013E+04  0.33173274148E+04  0.89371053141E+02 0.  0.
         11    1    3    3    0    0 -0.43662376239E+03  0.30089082400E+03 -0.11522336534E+04  0.12683918913E+04  0.00000000000E+00 0. -1.
        -11    1    3    3    0    0 -0.72230871491E+03  0.59190089972E+03 -0.18237489478E+04  0.20489355235E+04  0.00000000000E+00 0.  1.
         22    1    1    2    0    0  0.11589324773E+04 -0.89279172372E+03 -0.36543354672E+02  0.14633991136E+04  0.00000000000E+00 0. -1.
<mgrwt>
<rscale>  0 0.37121468E+04</rscale>
<asrwt>0</asrwt>
<pdfrwt beam="1">  1        2 0.13601543E+00 0.37121468E+04</pdfrwt>
<pdfrwt beam="2">  1       -2 0.59948094E+00 0.37121468E+04</pdfrwt>
<totfact> 0.12325703E-02</totfact>
</mgrwt>
</event>
<event>
 6    1  0.9364335E-007  0.3077872E+04  0.7818608E-02  0.8221837E-01
         -2   -1    0    0    0  501 -0.00000000000E+00  0.00000000000E+00  0.21697126112E+04  0.21697126112E+04  0.00000000000E+00 0.  1.
          2   -1    0    0  501    0  0.00000000000E+00 -0.00000000000E+00 -0.10915383382E+04  0.10915383382E+04  0.00000000000E+00 0. -1.
         23    2    1    2    0    0  0.14798962528E+04 -0.25173788220E+03  0.89235705769E+03  0.17486396583E+04  0.89300927797E+02 0.  0.
         13    1    3    3    0    0  0.10851378785E+04 -0.20069954793E+03  0.61322665095E+03  0.12624782966E+04  0.00000000000E+00 0.  1.
        -13    1    3    3    0    0  0.39475837435E+03 -0.51038334273E+02  0.27913040674E+03  0.48616136174E+03  0.00000000000E+00 0. -1.
         22    1    1    2    0    0 -0.14798962528E+04  0.25173788220E+03  0.18581721523E+03  0.15126112911E+04  0.00000000000E+00 0. -1.
<mgrwt>
<rscale>  0 0.30778723E+04</rscale>
<asrwt>0</asrwt>
<pdfrwt beam="1">  1        2 0.16792898E+00 0.30778723E+04</pdfrwt>
<pdfrwt beam="2">  1       -2 0.33380194E+00 0.30778723E+04</pdfrwt>
<totfact> 0.36859918E-01</totfact>
</mgrwt>
</event>
<event>
 6    1  0.9364335E-007  0.1947068E+04  0.7818608E-02  0.8631776E-01
         -1   -1    0    0    0  501 -0.00000000000E+00  0.00000000000E+00  0.86196412751E+03  0.86196412751E+03  0.00000000000E+00 0.  1.
          1   -1    0    0  501    0  0.00000000000E+00 -0.00000000000E+00 -0.10995452917E+04  0.10995452917E+04  0.00000000000E+00 0. -1.
         23    2    1    2    0    0  0.30011660856E+03 -0.46283605091E+03  0.68627858474E+03  0.88549639677E+03  0.94012680298E+02 0.  0.
         13    1    3    3    0    0  0.18328252591E+03 -0.35789544105E+03  0.47758272457E+03  0.62431313444E+03  0.00000000000E+00 0. -1.
        -13    1    3    3    0    0  0.11683408265E+03 -0.10494060986E+03  0.20869586017E+03  0.26118326232E+03  0.00000000000E+00 0.  1.
         22    1    1    2    0    0 -0.30011660856E+03  0.46283605091E+03 -0.92385974892E+03  0.10760130224E+04  0.00000000000E+00 0. -1.
<mgrwt>
<rscale>  0 0.19470682E+04</rscale>
<asrwt>0</asrwt>
<pdfrwt beam="1">  1        1 0.16916081E+00 0.19470682E+04</pdfrwt>
<pdfrwt beam="2">  1       -1 0.13260987E+00 0.19470682E+04</pdfrwt>
<totfact> 0.57020696E+00</totfact>
</mgrwt>
</event>
<event>
 6    1  0.9364335E-007  0.1588935E+04  0.7818608E-02  0.8827375E-01
          1   -1    0    0  501    0  0.00000000000E+00  0.00000000000E+00  0.60855411105E+03  0.60855411105E+03  0.00000000000E+00 0. -1.
         -1   -1    0    0    0  501 -0.00000000000E+00 -0.00000000000E+00 -0.10371770895E+04  0.10371770895E+04  0.00000000000E+00 0.  1.
         23    2    1    2    0    0 -0.66428139608E+03  0.41852578317E+03 -0.10892465975E+03  0.79800446430E+03  0.92265590519E+02 0.  0.
         11    1    3    3    0    0 -0.25911865896E+03  0.21026289692E+03 -0.23613720097E+02  0.33453037683E+03  0.00000000000E+00 0.  1.
        -11    1    3    3    0    0 -0.40516273712E+03  0.20826288624E+03 -0.85310939657E+02  0.46347408747E+03  0.00000000000E+00 0. -1.
         22    1    1    2    0    0  0.66428139608E+03 -0.41852578317E+03 -0.31969831867E+03  0.84772673623E+03  0.00000000000E+00 0.  1.
<mgrwt>
<rscale>  0 0.15889347E+04</rscale>
<asrwt>0</asrwt>
<pdfrwt beam="1">  1        1 0.93623709E-01 0.15889347E+04</pdfrwt>
<pdfrwt beam="2">  1       -1 0.15956571E+00 0.15889347E+04</pdfrwt>
<totfact> 0.94886336E+00</totfact>
</mgrwt>
</event>
<event>
 6    1  0.9364335E-007  0.3235980E+04  0.7818608E-02  0.8179379E-01
          2   -1    0    0  501    0  0.00000000000E+00  0.00000000000E+00  0.24708350855E+04  0.24708350855E+04  0.00000000000E+00 0. -1.
         -2   -1    0    0    0  501 -0.00000000000E+00 -0.00000000000E+00 -0.10595171864E+04  0.10595171864E+04  0.00000000000E+00 0.  1.
         23    2    1    2    0    0 -0.93545132636E+03 -0.10118008895E+04 -0.21642005699E+03  0.13976682640E+04  0.88480003567E+02 0.  0.
         11    1    3    3    0    0 -0.73247840011E+03 -0.78076905472E+03 -0.13141509961E+03  0.10786078304E+04  0.00000000000E+00 0.  1.
        -11    1    3    3    0    0 -0.20297292625E+03 -0.23103183482E+03 -0.85004957375E+02  0.31906043357E+03  0.00000000000E+00 0. -1.
         22    1    1    2    0    0  0.93545132636E+03  0.10118008895E+04  0.16277379561E+04  0.21326840079E+04  0.00000000000E+00 0.  1.
<mgrwt>
<rscale>  0 0.32359804E+04</rscale>
<asrwt>0</asrwt>
<pdfrwt beam="1">  1        2 0.38012847E+00 0.32359804E+04</pdfrwt>
<pdfrwt beam="2">  1       -2 0.16300264E+00 0.32359804E+04</pdfrwt>
<totfact> 0.72731832E-01</totfact>
</mgrwt>
</event>
<event>
 6    1  0.1273579E-006  0.4258313E+04  0.7818608E-02  0.7954372E-01
         -2   -1    0    0    0  501 -0.00000000000E+00  0.00000000000E+00  0.14148385059E+04  0.14148385059E+04  0.00000000000E+00 0.  1.
          2   -1    0    0  501    0  0.00000000000E+00 -0.00000000000E+00 -0.32041171505E+04  0.32041171505E+04  0.00000000000E+00 0. -1.
         23    2    1    2    0    0  0.12360162714E+04 -0.15086028756E+04 -0.18189132918E+04  0.26684436539E+04  0.92342361526E+02 0.  0.
         13    1    3    3    0    0  0.38251652199E+03 -0.44416204725E+03 -0.49290925071E+03  0.76587097037E+03  0.00000000000E+00 0.  1.
        -13    1    3    3    0    0  0.85349974941E+03 -0.10644408283E+04 -0.13260040410E+04  0.19025726835E+04  0.00000000000E+00 0. -1.
         22    1    1    2    0    0 -0.12360162714E+04  0.15086028756E+04  0.29634647192E+02  0.19505120025E+04  0.00000000000E+00 0.  1.
<mgrwt>
<rscale>  0 0.42583134E+04</rscale>
<asrwt>0</asrwt>
<pdfrwt beam="1">  1        2 0.49294109E+00 0.42583134E+04</pdfrwt>
<pdfrwt beam="2">  1       -2 0.21766747E+00 0.42583134E+04</pdfrwt>
<totfact> 0.10172602E-01</totfact>
</mgrwt>
</event>
<event>
 6    1  0.9364335E-007  0.7900876E+03  0.7818608E-02  0.9574477E-01
         -2   -1    0    0    0  501 -0.00000000000E+00  0.00000000000E+00  0.15578787281E+03  0.15578787281E+03  0.00000000000E+00 0.  1.
          2   -1    0    0  501    0  0.00000000000E+00 -0.00000000000E+00 -0.10017441426E+04  0.10017441426E+04  0.00000000000E+00 0. -1.
         23    2    1    2    0    0 -0.31378514211E+03  0.19902292044E+03 -0.60187459059E+03  0.71295682000E+03  0.89348565225E+02 0.  0.
         11    1    3    3    0    0 -0.49059657645E+02  0.71162921203E+02 -0.16686061010E+03  0.18791879780E+03  0.00000000000E+00 0.  1.
        -11    1    3    3    0    0 -0.26472548447E+03  0.12785999924E+03 -0.43501398049E+03  0.52503802220E+03  0.00000000000E+00 0. -1.
         22    1    1    2    0    0  0.31378514211E+03 -0.19902292044E+03 -0.24408167923E+03  0.44457519545E+03  0.00000000000E+00 0.  1.
<mgrwt>
<rscale>  0 0.79008756E+03</rscale>
<asrwt>0</asrwt>
<pdfrwt beam="1">  1        2 0.15411448E+00 0.79008756E+03</pdfrwt>
<pdfrwt beam="2">  1       -2 0.23967365E-01 0.79008756E+03</pdfrwt>
<totfact> 0.39056163E+02</totfact>
</mgrwt>
</event>
<event>
 6    1  0.9364335E-007  0.1450534E+04  0.7818608E-02  0.8918030E-01
          2   -1    0    0  501    0  0.00000000000E+00  0.00000000000E+00  0.24319606317E+03  0.24319606317E+03  0.00000000000E+00 0. -1.
         -2   -1    0    0    0  501 -0.00000000000E+00 -0.00000000000E+00 -0.21629152067E+04  0.21629152067E+04  0.00000000000E+00 0.  1.
         23    2    1    2    0    0  0.69310400584E+03 -0.18658743488E+03 -0.82662452236E+03  0.10984171601E+04  0.89465764244E+02 0.  0.
         13    1    3    3    0    0  0.94758756670E+02 -0.38662162017E+02 -0.77824020184E+02  0.12857123650E+03  0.00000000000E+00 0. -1.
        -13    1    3    3    0    0  0.59834524917E+03 -0.14792527286E+03 -0.74880050217E+03  0.96984592365E+03  0.00000000000E+00 0.  1.
         22    1    1    2    0    0 -0.69310400584E+03  0.18658743488E+03 -0.10930946212E+04  0.13076941098E+04  0.00000000000E+00 0.  1.
<mgrwt>
<rscale>  0 0.14505343E+04</rscale>
<asrwt>0</asrwt>
<pdfrwt beam="1">  1        2 0.37414779E-01 0.14505343E+04</pdfrwt>
<pdfrwt beam="2">  1       -2 0.33275618E+00 0.14505343E+04</pdfrwt>
<totfact> 0.27045475E+00</totfact>
</mgrwt>
</event>
<event>
 6    1  0.9364335E-007  0.3307723E+04  0.7818608E-02  0.8160933E-01
          1   -1    0    0  501    0  0.00000000000E+00  0.00000000000E+00  0.20152519433E+04  0.20152519433E+04  0.00000000000E+00 0. -1.
         -1   -1    0    0    0  501 -0.00000000000E+00 -0.00000000000E+00 -0.13572780223E+04  0.13572780223E+04  0.00000000000E+00 0.  1.
         23    2    1    2    0    0  0.11304549791E+04  0.77169580483E+03 -0.61496194813E+03  0.15033567254E+04  0.91980275470E+02 0.  0.
         13    1    3    3    0    0  0.40307077781E+03  0.23144420179E+03 -0.18197035293E+03  0.49914494870E+03  0.00000000000E+00 0.  1.
        -13    1    3    3    0    0  0.72738420131E+03  0.54025160305E+03 -0.43299159519E+03  0.10042117767E+04  0.00000000000E+00 0. -1.
         22    1    1    2    0    0 -0.11304549791E+04 -0.77169580483E+03  0.12729358691E+04  0.18691732402E+04  0.00000000000E+00 0. -1.
<mgrwt>
<rscale>  0 0.33077226E+04</rscale>
<asrwt>0</asrwt>
<pdfrwt beam="1">  1        1 0.31003876E+00 0.33077226E+04</pdfrwt>
<pdfrwt beam="2">  1       -1 0.20881200E+00 0.33077226E+04</pdfrwt>
<totfact> 0.31598063E-01</totfact>
</mgrwt>
</event>
<event>
 6    1  0.9364335E-007  0.2003152E+04  0.7818608E-02  0.8605148E-01
          2   -1    0    0  501    0  0.00000000000E+00  0.00000000000E+00  0.15807605403E+04  0.15807605403E+04  0.00000000000E+00 0. -1.
         -2   -1    0    0    0  501 -0.00000000000E+00 -0.00000000000E+00 -0.63460240492E+03  0.63460240492E+03  0.00000000000E+00 0.  1.
         23    2    1    2    0    0 -0.42663880077E+03  0.85511568288E+02 -0.52106118963E+03  0.68498212910E+03  0.91448669878E+02 0.  0.
         11    1    3    3    0    0 -0.25034090223E+03  0.55407666657E+02 -0.23610259023E+03  0.34854699821E+03  0.00000000000E+00 0. -1.
        -11    1    3    3    0    0 -0.17629789854E+03  0.30103901631E+02 -0.28495859940E+03  0.33643513089E+03  0.00000000000E+00 0.  1.
         22    1    1    2    0    0  0.42663880077E+03 -0.85511568288E+02  0.14672193250E+04  0.15303808161E+04  0.00000000000E+00 0. -1.
<mgrwt>
<rscale>  0 0.20031520E+04</rscale>
<asrwt>0</asrwt>
<pdfrwt beam="1">  1        2 0.24319393E+00 0.20031520E+04</pdfrwt>
<pdfrwt beam="2">  1       -2 0.97631139E-01 0.20031520E+04</pdfrwt>
<totfact> 0.92826190E+00</totfact>
</mgrwt>
</event>
<event>
 6    1  0.9364335E-007  0.5079122E+04  0.7818608E-02  0.7816417E-01
          2   -1    0    0  501    0  0.00000000000E+00  0.00000000000E+00  0.34852892279E+04  0.34852892279E+04  0.00000000000E+00 0. -1.
         -2   -1    0    0    0  501 -0.00000000000E+00 -0.00000000000E+00 -0.18504547599E+04  0.18504547599E+04  0.00000000000E+00 0.  1.
         23    2    1    2    0    0  0.78611106144E+03 -0.20305830827E+04  0.21891032707E+04  0.30888678981E+04  0.87712630352E+02 0.  0.
         11    1    3    3    0    0  0.67807859825E+03 -0.17650542360E+04  0.18581376451E+04  0.26510153809E+04  0.00000000000E+00 0.  1.
        -11    1    3    3    0    0  0.10803246318E+03 -0.26552884668E+03  0.33096562559E+03  0.43785251723E+03  0.00000000000E+00 0. -1.
         22    1    1    2    0    0 -0.78611106144E+03  0.20305830827E+04 -0.55426880267E+03  0.22468760896E+04  0.00000000000E+00 0.  1.
<mgrwt>
<rscale>  0 0.50791220E+04</rscale>
<asrwt>0</asrwt>
<pdfrwt beam="1">  1        2 0.53619834E+00 0.50791220E+04</pdfrwt>
<pdfrwt beam="2">  1       -2 0.28468535E+00 0.50791220E+04</pdfrwt>
<totfact> 0.23701302E-02</totfact>
</mgrwt>
</event>
<event>
 6    1  0.9443510E-007  0.4332345E+04  0.7818608E-02  0.7940664E-01
         -1   -1    0    0    0  501 -0.00000000000E+00  0.00000000000E+00  0.27403008713E+04  0.27403008713E+04  0.00000000000E+00 0.  1.
          1   -1    0    0  501    0  0.00000000000E+00 -0.00000000000E+00 -0.17123312250E+04  0.17123312250E+04  0.00000000000E+00 0. -1.
         23    2    1    2    0    0 -0.48695133925E+03  0.15627763230E+04  0.19708297196E+04  0.25636173901E+04  0.92589935785E+02 0.  0.
         13    1    3    3    0    0 -0.17016766737E+03  0.43376924510E+03  0.60008585043E+03  0.75974720855E+03  0.00000000000E+00 0. -1.
        -13    1    3    3    0    0 -0.31678367188E+03  0.11290070779E+04  0.13707438692E+04  0.18038701815E+04  0.00000000000E+00 0.  1.
         22    1    1    2    0    0  0.48695133925E+03 -0.15627763230E+04 -0.94286007331E+03  0.18890147063E+04  0.00000000000E+00 0. -1.
<mgrwt>
<rscale>  0 0.43323447E+04</rscale>
<asrwt>0</asrwt>
<pdfrwt beam="1">  1        1 0.26343557E+00 0.43323447E+04</pdfrwt>
<pdfrwt beam="2">  1       -1 0.42158475E+00 0.43323447E+04</pdfrwt>
<totfact> 0.18100952E-02</totfact>
</mgrwt>
</event>
<event>
 6    1  0.9364335E-007  0.2448319E+04  0.7818608E-02  0.8421632E-01
          1   -1    0    0  501    0  0.00000000000E+00  0.00000000000E+00  0.16612519002E+04  0.16612519002E+04  0.00000000000E+00 0. -1.
         -1   -1    0    0    0  501 -0.00000000000E+00 -0.00000000000E+00 -0.90207095439E+03  0.90207095439E+03  0.00000000000E+00 0.  1.
         23    2    1    2    0    0 -0.36243593931E+02 -0.12112054046E+04  0.54877216580E+03  0.13334431917E+04  0.92669980342E+02 0.  0.
         13    1    3    3    0    0 -0.40157628390E+01 -0.75226531654E+03  0.38518591822E+03  0.84515526646E+03  0.00000000000E+00 0.  1.
        -13    1    3    3    0    0 -0.32227831092E+02 -0.45894008810E+03  0.16358624757E+03  0.48828792526E+03  0.00000000000E+00 0. -1.
         22    1    1    2    0    0  0.36243593931E+02  0.12112054046E+04  0.21040877996E+03  0.12298796628E+04  0.00000000000E+00 0. -1.
<mgrwt>
<rscale>  0 0.24483195E+04</rscale>
<asrwt>0</asrwt>
<pdfrwt beam="1">  1        1 0.25557722E+00 0.24483195E+04</pdfrwt>
<pdfrwt beam="2">  1       -1 0.13878015E+00 0.24483195E+04</pdfrwt>
<totfact> 0.19386586E+00</totfact>
</mgrwt>
</event>
<event>
 6    1  0.9364335E-007  0.2644667E+04  0.7818608E-02  0.8353185E-01
         -2   -1    0    0    0  501 -0.00000000000E+00  0.00000000000E+00  0.12396103699E+04  0.12396103699E+04  0.00000000000E+00 0.  1.
          2   -1    0    0  501    0  0.00000000000E+00 -0.00000000000E+00 -0.14105766394E+04  0.14105766394E+04  0.00000000000E+00 0. -1.
         23    2    1    2    0    0 -0.31712286373E+02 -0.30631603556E+03  0.12013846577E+04  0.12437083389E+04  0.93006202418E+02 0.  0.
         13    1    3    3    0    0 -0.71325839818E+01 -0.86695751733E+02  0.52442517838E+03  0.53159081524E+03  0.00000000000E+00 0.  1.
        -13    1    3    3    0    0 -0.24579702391E+02 -0.21962028383E+03  0.67695947931E+03  0.71211752363E+03  0.00000000000E+00 0. -1.
         22    1    1    2    0    0  0.31712286373E+02  0.30631603556E+03 -0.13723509272E+04  0.14064786703E+04  0.00000000000E+00 0. -1.
<mgrwt>
<rscale>  0 0.26446667E+04</rscale>
<asrwt>0</asrwt>
<pdfrwt beam="1">  1        2 0.21701179E+00 0.26446667E+04</pdfrwt>
<pdfrwt beam="2">  1       -2 0.19070929E+00 0.26446667E+04</pdfrwt>
<totfact> 0.19283066E+00</totfact>
</mgrwt>
</event>
<event>
 6    1  0.9364335E-007  0.3163481E+04  0.7818608E-02  0.8198529E-01
          2   -1    0    0  501    0  0.00000000000E+00  0.00000000000E+00  0.10891805360E+04  0.10891805360E+04  0.00000000000E+00 0. -1.
         -2   -1    0    0    0  501 -0.00000000000E+00 -0.00000000000E+00 -0.22970506800E+04  0.22970506800E+04  0.00000000000E+00 0.  1.
         23    2    1    2    0    0  0.29207289930E+03 -0.27455984541E+03  0.10319905550E+04  0.11107827682E+04  0.90245029082E+02 0.  0.
         11    1    3    3    0    0  0.11524621627E+03 -0.10792152318E+03  0.53109007083E+03  0.55406263984E+03  0.00000000000E+00 0. -1.
        -11    1    3    3    0    0  0.17682668303E+03 -0.16663832224E+03  0.50090048421E+03  0.55672012839E+03  0.00000000000E+00 0.  1.
         22    1    1    2    0    0 -0.29207289930E+03  0.27455984541E+03 -0.22398606991E+04  0.22754484478E+04  0.00000000000E+00 0.  1.
<mgrwt>
<rscale>  0 0.31634809E+04</rscale>
<asrwt>0</asrwt>
<pdfrwt beam="1">  1        2 0.16756624E+00 0.31634809E+04</pdfrwt>
<pdfrwt beam="2">  1       -2 0.35339241E+00 0.31634809E+04</pdfrwt>
<totfact> 0.27662310E-01</totfact>
</mgrwt>
</event>
<event>
 6    1  0.9364335E-007  0.1927714E+04  0.7818608E-02  0.8641183E-01
          2   -1    0    0  501    0  0.00000000000E+00  0.00000000000E+00  0.12109087924E+04  0.12109087924E+04  0.00000000000E+00 0. -1.
         -2   -1    0    0    0  501 -0.00000000000E+00 -0.00000000000E+00 -0.76720948830E+03  0.76720948830E+03  0.00000000000E+00 0.  1.
         23    2    1    2    0    0  0.49629166372E+03  0.39468650142E+03 -0.51943435096E+03  0.82498806803E+03  0.93329617780E+02 0.  0.
         13    1    3    3    0    0  0.27557176048E+03  0.22827621612E+03 -0.35123151642E+03  0.50141141206E+03  0.00000000000E+00 0.  1.
        -13    1    3    3    0    0  0.22071990324E+03  0.16641028530E+03 -0.16820283454E+03  0.32357665597E+03  0.00000000000E+00 0. -1.
         22    1    1    2    0    0 -0.49629166372E+03 -0.39468650142E+03  0.96313365507E+03  0.11531302127E+04  0.00000000000E+00 0. -1.
<mgrwt>
<rscale>  0 0.19277144E+04</rscale>
<asrwt>0</asrwt>
<pdfrwt beam="1">  1        2 0.18629366E+00 0.19277144E+04</pdfrwt>
<pdfrwt beam="2">  1       -2 0.11803223E+00 0.19277144E+04</pdfrwt>
<totfact> 0.96476814E+00</totfact>
</mgrwt>
</event>
<event>
 6    1  0.9364335E-007  0.1488701E+04  0.7818608E-02  0.8892002E-01
         -1   -1    0    0    0  501 -0.00000000000E+00  0.00000000000E+00  0.57252354941E+03  0.57252354941E+03  0.00000000000E+00 0.  1.
          1   -1    0    0  501    0  0.00000000000E+00 -0.00000000000E+00 -0.96774661958E+03  0.96774661958E+03  0.00000000000E+00 0. -1.
         23    2    1    2    0    0 -0.67290580453E+03 -0.31048279117E+03 -0.22425015083E+03  0.77972199529E+03  0.92067770766E+02 0.  0.
         13    1    3    3    0    0 -0.52829898495E+03 -0.27795000055E+03 -0.15895605653E+03  0.61775646352E+03  0.00000000000E+00 0. -1.
        -13    1    3    3    0    0 -0.14460681957E+03 -0.32532790622E+02 -0.65294094298E+02  0.16196553177E+03  0.00000000000E+00 0.  1.
         22    1    1    2    0    0  0.67290580453E+03  0.31048279117E+03 -0.17097291935E+03  0.76054817371E+03  0.00000000000E+00 0.  1.
<mgrwt>
<rscale>  0 0.14887011E+04</rscale>
<asrwt>0</asrwt>
<pdfrwt beam="1">  1        1 0.14888410E+00 0.14887011E+04</pdfrwt>
<pdfrwt beam="2">  1       -1 0.88080546E-01 0.14887011E+04</pdfrwt>
<totfact> 0.19681839E+01</totfact>
</mgrwt>
</event>
<event>
 6    1  0.9364335E-007  0.1224100E+04  0.7818608E-02  0.9092020E-01
          1   -1    0    0  501    0  0.00000000000E+00  0.00000000000E+00  0.15462194481E+04  0.15462194481E+04  0.00000000000E+00 0. -1.
         -1   -1    0    0    0  501 -0.00000000000E+00 -0.00000000000E+00 -0.24227152700E+03  0.24227152700E+03  0.00000000000E+00 0.  1.
         23    2    1    2    0    0 -0.14217098954E+03 -0.57137386648E+03  0.88041412312E+03  0.10631899593E+04  0.92537428661E+02 0.  0.
         11    1    3    3    0    0 -0.11245433259E+02 -0.21709326541E+03  0.35074071374E+03  0.41264390693E+03  0.00000000000E+00 0. -1.
        -11    1    3    3    0    0 -0.13092555628E+03 -0.35428060107E+03  0.52967340938E+03  0.65054605232E+03  0.00000000000E+00 0.  1.
         22    1    1    2    0    0  0.14217098954E+03  0.57137386648E+03  0.42353379798E+03  0.72530101585E+03  0.00000000000E+00 0.  1.
<mgrwt>
<rscale>  0 0.12240996E+04</rscale>
<asrwt>0</asrwt>
<pdfrwt beam="1">  1        1 0.23787991E+00 0.12240996E+04</pdfrwt>
<pdfrwt beam="2">  1       -1 0.37272544E-01 0.12240996E+04</pdfrwt>
<totfact> 0.41588903E+01</totfact>
</mgrwt>
</event>
<event>
 6    1  0.9364335E-007  0.1276454E+04  0.7818608E-02  0.9048449E-01
          1   -1    0    0  501    0  0.00000000000E+00  0.00000000000E+00  0.27319892045E+04  0.27319892045E+04  0.00000000000E+00 0. -1.
         -1   -1    0    0    0  501 -0.00000000000E+00 -0.00000000000E+00 -0.14909780785E+03  0.14909780785E+03  0.00000000000E+00 0.  1.
         23    2    1    2    0    0 -0.60752509027E+03 -0.29181116911E+01  0.88051541244E+03  0.10735529899E+04  0.90074302121E+02 0.  0.
         13    1    3    3    0    0 -0.17565959203E+03 -0.88369953000E+01  0.32881333764E+03  0.37289756740E+03  0.00000000000E+00 0. -1.
        -13    1    3    3    0    0 -0.43186549824E+03  0.59188836089E+01  0.55170207479E+03  0.70065542250E+03  0.00000000000E+00 0.  1.
         22    1    1    2    0    0  0.60752509027E+03  0.29181116911E+01  0.17023759842E+04  0.18075340225E+04  0.00000000000E+00 0. -1.
<mgrwt>
<rscale>  0 0.12764538E+04</rscale>
<asrwt>0</asrwt>
<pdfrwt beam="1">  1        1 0.42030599E+00 0.12764538E+04</pdfrwt>
<pdfrwt beam="2">  1       -1 0.22938126E-01 0.12764538E+04</pdfrwt>
<totfact> 0.14988781E+01</totfact>
</mgrwt>
</event>
<event>
 6    1  0.9364335E-007  0.5781217E+03  0.7818608E-02  0.9951866E-01
          2   -1    0    0  501    0  0.00000000000E+00  0.00000000000E+00  0.45944829826E+03  0.45944829826E+03  0.00000000000E+00 0. -1.
         -2   -1    0    0    0  501 -0.00000000000E+00 -0.00000000000E+00 -0.18186195059E+03  0.18186195059E+03  0.00000000000E+00 0.  1.
         23    2    1    2    0    0 -0.38579345191E+02 -0.22763014248E+03 -0.37037764443E+02  0.25106394257E+03  0.91419142537E+02 0.  0.
         11    1    3    3    0    0 -0.21902954131E+02 -0.13446190659E+03  0.24151485805E+02  0.13835836798E+03  0.00000000000E+00 0. -1.
        -11    1    3    3    0    0 -0.16676391060E+02 -0.93168235894E+02 -0.61189250247E+02  0.11270557459E+03  0.00000000000E+00 0.  1.
         22    1    1    2    0    0  0.38579345191E+02  0.22763014248E+03  0.31462411212E+03  0.39024630628E+03  0.00000000000E+00 0. -1.
<mgrwt>
<rscale>  0 0.57812166E+03</rscale>
<asrwt>0</asrwt>
<pdfrwt beam="1">  1        2 0.70684353E-01 0.57812166E+03</pdfrwt>
<pdfrwt beam="2">  1       -2 0.27978762E-01 0.57812166E+03</pdfrwt>
<totfact> 0.79601810E+02</totfact>
</mgrwt>
</event>
<event>
 6    1  0.9364335E-007  0.2216159E+04  0.7818608E-02  0.8511732E-01
         -2   -1    0    0    0  501 -0.00000000000E+00  0.00000000000E+00  0.10053813070E+04  0.10053813070E+04  0.00000000000E+00 0.  1.
          2   -1    0    0  501    0  0.00000000000E+00 -0.00000000000E+00 -0.12212682383E+04  0.12212682383E+04  0.00000000000E+00 0. -1.
         23    2    1    2    0    0  0.33160512306E+03 -0.78090917493E+03 -0.82135761680E+03  0.11843559935E+04  0.91047720498E+02 0.  0.
         13    1    3    3    0    0  0.69745470332E+02 -0.11551671793E+03 -0.17049698592E+03  0.21743450729E+03  0.00000000000E+00 0. -1.
        -13    1    3    3    0    0  0.26185965273E+03 -0.66539245700E+03 -0.65086063088E+03  0.96692148616E+03  0.00000000000E+00 0.  1.
         22    1    1    2    0    0 -0.33160512306E+03  0.78090917493E+03  0.60547068549E+03  0.10422935518E+04  0.00000000000E+00 0.  1.
<mgrwt>
<rscale>  0 0.22161591E+04</rscale>
<asrwt>0</asrwt>
<pdfrwt beam="1">  1        2 0.18788742E+00 0.22161591E+04</pdfrwt>
<pdfrwt beam="2">  1       -2 0.15467405E+00 0.22161591E+04</pdfrwt>
<totfact> 0.46362169E+00</totfact>
</mgrwt>
</event>
<event>
 6    1  0.9364335E-007  0.5334758E+04  0.7818608E-02  0.7778845E-01
          1   -1    0    0  501    0  0.00000000000E+00  0.00000000000E+00  0.37756675388E+04  0.37756675388E+04  0.00000000000E+00 0. -1.
         -1   -1    0    0    0  501 -0.00000000000E+00 -0.00000000000E+00 -0.18844116195E+04  0.18844116195E+04  0.00000000000E+00 0.  1.
         23    2    1    2    0    0  0.82074411395E+03 -0.68048910501E+03  0.35392112325E+04  0.36973150266E+04  0.86231866671E+02 0.  0.
         13    1    3    3    0    0  0.58964558724E+03 -0.44431867523E+03  0.23738066904E+04  0.24859724872E+04  0.00000000000E+00 0. -1.
        -13    1    3    3    0    0  0.23109852671E+03 -0.23617042977E+03  0.11654045421E+04  0.12113425394E+04  0.00000000000E+00 0.  1.
         22    1    1    2    0    0 -0.82074411395E+03  0.68048910501E+03 -0.16479553132E+04  0.19627641317E+04  0.00000000000E+00 0.  1.
<mgrwt>
<rscale>  0 0.53347584E+04</rscale>
<asrwt>0</asrwt>
<pdfrwt beam="1">  1        1 0.58087193E+00 0.53347584E+04</pdfrwt>
<pdfrwt beam="2">  1       -1 0.28990948E+00 0.53347584E+04</pdfrwt>
<totfact> 0.40234812E-03</totfact>
</mgrwt>
</event>
<event>
 6    1  0.9364335E-007  0.2730723E+04  0.7818608E-02  0.8325105E-01
          1   -1    0    0  501    0  0.00000000000E+00  0.00000000000E+00  0.11604286995E+04  0.11604286995E+04  0.00000000000E+00 0. -1.
         -1   -1    0    0    0  501 -0.00000000000E+00 -0.00000000000E+00 -0.16064860510E+04  0.16064860510E+04  0.00000000000E+00 0.  1.
         23    2    1    2    0    0  0.16778458397E+03 -0.13515948906E+04 -0.15256608028E+03  0.13736819841E+04  0.93623553315E+02 0.  0.
         13    1    3    3    0    0  0.80584142676E+02 -0.56477018922E+03 -0.10924201501E+03  0.58085539381E+03  0.00000000000E+00 0.  1.
        -13    1    3    3    0    0  0.87200441299E+02 -0.78682470139E+03 -0.43324065272E+02  0.79282659032E+03  0.00000000000E+00 0. -1.
         22    1    1    2    0    0 -0.16778458397E+03  0.13515948906E+04 -0.29349127130E+03  0.13932327664E+04  0.00000000000E+00 0. -1.
<mgrwt>
<rscale>  0 0.27307234E+04</rscale>
<asrwt>0</asrwt>
<pdfrwt beam="1">  1        1 0.17852749E+00 0.27307234E+04</pdfrwt>
<pdfrwt beam="2">  1       -1 0.24715170E+00 0.27307234E+04</pdfrwt>
<totfact> 0.72419853E-01</totfact>
</mgrwt>
</event>
<event>
 6    1  0.9364335E-007  0.7584475E+04  0.7818608E-02  0.7519989E-01
         -2   -1    0    0    0  501 -0.00000000000E+00  0.00000000000E+00  0.29030092807E+04  0.29030092807E+04  0.00000000000E+00 0.  1.
          2   -1    0    0  501    0  0.00000000000E+00 -0.00000000000E+00 -0.49538480453E+04  0.49538480453E+04  0.00000000000E+00 0. -1.
         23    2    1    2    0    0  0.19489188073E+04  0.12153905106E+04 -0.41508673736E+04  0.47446910757E+04  0.83275687066E+02 0.  0.
         13    1    3    3    0    0  0.43812994211E+03  0.30781971865E+03 -0.10077950175E+04  0.11412105952E+04  0.00000000000E+00 0.  1.
        -13    1    3    3    0    0  0.15107888651E+04  0.90757079199E+03 -0.31430723562E+04  0.36034804805E+04  0.00000000000E+00 0. -1.
         22    1    1    2    0    0 -0.19489188073E+04 -0.12153905106E+04  0.21000286090E+04  0.31121662503E+04  0.00000000000E+00 0.  1.
<mgrwt>
<rscale>  0 0.75844754E+04</rscale>
<asrwt>0</asrwt>
<pdfrwt beam="1">  1        2 0.76213045E+00 0.75844754E+04</pdfrwt>
<pdfrwt beam="2">  1       -2 0.44661682E+00 0.75844754E+04</pdfrwt>
<totfact> 0.83988353E-05</totfact>
</mgrwt>
</event>
<event>
 6    1  0.9364335E-007  0.1353512E+04  0.7818608E-02  0.8988174E-01
          2   -1    0    0  501    0  0.00000000000E+00  0.00000000000E+00  0.36520499795E+03  0.36520499795E+03  0.00000000000E+00 0. -1.
         -2   -1    0    0    0  501 -0.00000000000E+00 -0.00000000000E+00 -0.12540870633E+04  0.12540870633E+04  0.00000000000E+00 0.  1.
         23    2    1    2    0    0 -0.77362222322E+02  0.50174018570E+03 -0.97618210465E+03  0.11041712751E+04  0.92382768697E+02 0.  0.
         13    1    3    3    0    0 -0.94446383608E+02  0.45893123493E+03 -0.86358685974E+03  0.98250713080E+03  0.00000000000E+00 0. -1.
        -13    1    3    3    0    0  0.17084161287E+02  0.42808950774E+02 -0.11259524491E+03  0.12166414431E+03  0.00000000000E+00 0.  1.
         22    1    1    2    0    0  0.77362222322E+02 -0.50174018570E+03  0.87300039345E+02  0.51512078609E+03  0.00000000000E+00 0. -1.
<mgrwt>
<rscale>  0 0.13535123E+04</rscale>
<asrwt>0</asrwt>
<pdfrwt beam="1">  1        2 0.56185384E-01 0.13535123E+04</pdfrwt>
<pdfrwt beam="2">  1       -2 0.19293647E+00 0.13535123E+04</pdfrwt>
<totfact> 0.12731567E+01</totfact>
</mgrwt>
</event>
<event>
 6    1  0.9364335E-007  0.3599357E+04  0.7818608E-02  0.8090639E-01
          2   -1    0    0  501    0  0.00000000000E+00  0.00000000000E+00  0.20578546820E+04  0.20578546820E+04  0.00000000000E+00 0. -1.
         -2   -1    0    0    0  501 -0.00000000000E+00 -0.00000000000E+00 -0.15738926498E+04  0.15738926498E+04  0.00000000000E+00 0.  1.
         23    2    1    2    0    0 -0.17990440877E+03 -0.10619780399E+04  0.16954763900E+04  0.20106581940E+04  0.89124804246E+02 0.  0.
         11    1    3    3    0    0 -0.13753217174E+03 -0.95012641562E+03  0.14770537627E+04  0.17616308131E+04  0.00000000000E+00 0.  1.
        -11    1    3    3    0    0 -0.42372237028E+02 -0.11185162431E+03  0.21842262728E+03  0.24902738090E+03  0.00000000000E+00 0. -1.
         22    1    1    2    0    0  0.17990440877E+03  0.10619780399E+04 -0.12115143578E+04  0.16210891378E+04  0.00000000000E+00 0.  1.
<mgrwt>
<rscale>  0 0.35993568E+04</rscale>
<asrwt>0</asrwt>
<pdfrwt beam="1">  1        2 0.31659303E+00 0.35993568E+04</pdfrwt>
<pdfrwt beam="2">  1       -2 0.24213733E+00 0.35993568E+04</pdfrwt>
<totfact> 0.36331715E-01</totfact>
</mgrwt>
</event>
<event>
 6    1  0.9364335E-007  0.1350054E+04  0.7818608E-02  0.8990787E-01
         -2   -1    0    0    0  501 -0.00000000000E+00  0.00000000000E+00  0.48537865402E+03  0.48537865402E+03  0.00000000000E+00 0.  1.
          2   -1    0    0  501    0  0.00000000000E+00 -0.00000000000E+00 -0.93877552700E+03  0.93877552700E+03  0.00000000000E+00 0. -1.
         23    2    1    2    0    0  0.63988057177E+03 -0.20370309959E+03 -0.20637667824E+03  0.70863962804E+03  0.92933794667E+02 0.  0.
         13    1    3    3    0    0  0.32720042612E+03 -0.64341891479E+02 -0.12987264670E+03  0.35786436287E+03  0.00000000000E+00 0. -1.
        -13    1    3    3    0    0  0.31268014565E+03 -0.13936120811E+03 -0.76504031538E+02  0.35077526516E+03  0.00000000000E+00 0.  1.
         22    1    1    2    0    0 -0.63988057177E+03  0.20370309959E+03 -0.24702019474E+03  0.71551455298E+03  0.00000000000E+00 0. -1.
<mgrwt>
<rscale>  0 0.13500542E+04</rscale>
<asrwt>0</asrwt>
<pdfrwt beam="1">  1        2 0.14442700E+00 0.13500542E+04</pdfrwt>
<pdfrwt beam="2">  1       -2 0.74673640E-01 0.13500542E+04</pdfrwt>
<totfact> 0.43508406E+01</totfact>
</mgrwt>
</event>
<event>
 6    1  0.9364335E-007  0.3327298E+04  0.7818608E-02  0.8155984E-01
          2   -1    0    0  501    0  0.00000000000E+00  0.00000000000E+00  0.42155021251E+04  0.42155021251E+04  0.00000000000E+00 0. -1.
         -2   -1    0    0    0  501 -0.00000000000E+00 -0.00000000000E+00 -0.65655943590E+03  0.65655943590E+03  0.00000000000E+00 0.  1.
         23    2    1    2    0    0 -0.43192792034E+03  0.10324051012E+04 -0.18853782057E+02  0.11233218246E+04  0.95259829427E+02 0.  0.
         11    1    3    3    0    0 -0.15947639654E+03  0.29614714635E+03 -0.34443776895E+02  0.33811570078E+03  0.00000000000E+00 0.  1.
        -11    1    3    3    0    0 -0.27245152380E+03  0.73625795490E+03  0.15589994838E+02  0.78520612383E+03  0.00000000000E+00 0. -1.
         22    1    1    2    0    0  0.43192792034E+03 -0.10324051012E+04  0.35777964713E+04  0.37487397364E+04  0.00000000000E+00 0. -1.
<mgrwt>
<rscale>  0 0.33272978E+04</rscale>
<asrwt>0</asrwt>
<pdfrwt beam="1">  1        2 0.64853877E+00 0.33272978E+04</pdfrwt>
<pdfrwt beam="2">  1       -2 0.10100915E+00 0.33272978E+04</pdfrwt>
<totfact> 0.15109550E-01</totfact>
</mgrwt>
</event>
<event>
 6    1  0.9364335E-007  0.3534650E+04  0.7818608E-02  0.8105627E-01
          2   -1    0    0  501    0  0.00000000000E+00  0.00000000000E+00  0.37692221884E+04  0.37692221884E+04  0.00000000000E+00 0. -1.
         -2   -1    0    0    0  501 -0.00000000000E+00 -0.00000000000E+00 -0.82866904858E+03  0.82866904858E+03  0.00000000000E+00 0.  1.
         23    2    1    2    0    0  0.88857346128E+01  0.15968754137E+04  0.24527201740E+04  0.29281394453E+04  0.89857197708E+02 0.  0.
         13    1    3    3    0    0  0.17024885478E+02  0.10970104726E+04  0.17572350258E+04  0.20716169432E+04  0.00000000000E+00 0. -1.
        -13    1    3    3    0    0 -0.81391508648E+01  0.49986494112E+03  0.69548514822E+03  0.85652250206E+03  0.00000000000E+00 0.  1.
         22    1    1    2    0    0 -0.88857346128E+01 -0.15968754137E+04  0.48783296585E+03  0.16697517917E+04  0.00000000000E+00 0.  1.
<mgrwt>
<rscale>  0 0.35346501E+04</rscale>
<asrwt>0</asrwt>
<pdfrwt beam="1">  1        2 0.57988033E+00 0.35346501E+04</pdfrwt>
<pdfrwt beam="2">  1       -2 0.12748755E+00 0.35346501E+04</pdfrwt>
<totfact> 0.19331336E-01</totfact>
</mgrwt>
</event>
<event>
 6    1  0.9364335E-007  0.1705720E+04  0.7818608E-02  0.8758109E-01
          2   -1    0    0  501    0  0.00000000000E+00  0.00000000000E+00  0.12998578324E+04  0.12998578324E+04  0.00000000000E+00 0. -1.
         -2   -1    0    0    0  501 -0.00000000000E+00 -0.00000000000E+00 -0.55957640646E+03  0.55957640646E+03  0.00000000000E+00 0.  1.
         23    2    1    2    0    0  0.26941326461E+03 -0.61740933058E+03 -0.19441129249E+03  0.70729350678E+03  0.93223202372E+02 0.  0.
         11    1    3    3    0    0  0.91556519311E+02 -0.26867917417E+03 -0.40801331761E+02  0.28676792627E+03  0.00000000000E+00 0.  1.
        -11    1    3    3    0    0  0.17785674529E+03 -0.34873015641E+03 -0.15360996073E+03  0.42052558052E+03  0.00000000000E+00 0. -1.
         22    1    1    2    0    0 -0.26941326461E+03  0.61740933058E+03  0.93469271844E+03  0.11521407321E+04  0.00000000000E+00 0. -1.
<mgrwt>
<rscale>  0 0.17057195E+04</rscale>
<asrwt>0</asrwt>
<pdfrwt beam="1">  1        2 0.19997813E+00 0.17057195E+04</pdfrwt>
<pdfrwt beam="2">  1       -2 0.86088678E-01 0.17057195E+04</pdfrwt>
<totfact> 0.18408289E+01</totfact>
</mgrwt>
</event>
<event>
 6    1  0.9364335E-007  0.1879860E+04  0.7818608E-02  0.8664947E-01
          2   -1    0    0  501    0  0.00000000000E+00  0.00000000000E+00  0.16014378117E+04  0.16014378117E+04  0.00000000000E+00 0. -1.
         -2   -1    0    0    0  501 -0.00000000000E+00 -0.00000000000E+00 -0.55167186122E+03  0.55167186122E+03  0.00000000000E+00 0.  1.
         23    2    1    2    0    0 -0.45431685581E+03 -0.42344560128E+03  0.13308945153E+04  0.14713888704E+04  0.89414843512E+02 0.  0.
         11    1    3    3    0    0 -0.13284759802E+03 -0.97112483226E+02  0.43701421866E+03  0.46696974849E+03  0.00000000000E+00 0. -1.
        -11    1    3    3    0    0 -0.32146925779E+03 -0.32633311806E+03  0.89388029664E+03  0.10044191219E+04  0.00000000000E+00 0.  1.
         22    1    1    2    0    0  0.45431685581E+03  0.42344560128E+03 -0.28112856480E+03  0.68172080258E+03  0.00000000000E+00 0.  1.
<mgrwt>
<rscale>  0 0.18798598E+04</rscale>
<asrwt>0</asrwt>
<pdfrwt beam="1">  1        2 0.24637505E+00 0.18798598E+04</pdfrwt>
<pdfrwt beam="2">  1       -2 0.84872595E-01 0.18798598E+04</pdfrwt>
<totfact> 0.12624474E+01</totfact>
</mgrwt>
</event>
<event>
 6    1  0.9364335E-007  0.7104732E+03  0.7818608E-02  0.9699487E-01
         -2   -1    0    0    0  501 -0.00000000000E+00  0.00000000000E+00  0.11595420005E+03  0.11595420005E+03  0.00000000000E+00 0.  1.
          2   -1    0    0  501    0  0.00000000000E+00 -0.00000000000E+00 -0.10883006474E+04  0.10883006474E+04  0.00000000000E+00 0. -1.
         23    2    1    2    0    0 -0.61206876526E+01 -0.26036411346E+03 -0.99107076707E+02  0.29300629034E+03  0.90573390857E+02 0.  0.
         13    1    3    3    0    0  0.18403203730E+02 -0.17053118447E+03 -0.10251788367E+03  0.19982362036E+03  0.00000000000E+00 0. -1.
        -13    1    3    3    0    0 -0.24523891382E+02 -0.89832928989E+02  0.34108069641E+01  0.93182669974E+02  0.00000000000E+00 0.  1.
         22    1    1    2    0    0  0.61206876526E+01  0.26036411346E+03 -0.87323937064E+03  0.91124855711E+03  0.00000000000E+00 0. -1.
<mgrwt>
<rscale>  0 0.71047317E+03</rscale>
<asrwt>0</asrwt>
<pdfrwt beam="1">  1        2 0.16743087E+00 0.71047317E+03</pdfrwt>
<pdfrwt beam="2">  1       -2 0.17839108E-01 0.71047317E+03</pdfrwt>
<totfact> 0.58138897E+02</totfact>
</mgrwt>
</event>
<event>
 6    1  0.9364335E-007  0.1047768E+04  0.7818608E-02  0.9257652E-01
          1   -1    0    0  501    0  0.00000000000E+00  0.00000000000E+00  0.13354475772E+03  0.13354475772E+03  0.00000000000E+00 0. -1.
         -1   -1    0    0    0  501 -0.00000000000E+00 -0.00000000000E+00 -0.20551476184E+04  0.20551476184E+04  0.00000000000E+00 0.  1.
         23    2    1    2    0    0  0.99629592765E+02  0.38489579345E+03 -0.27102016225E+03  0.49090143730E+03  0.97270063345E+02 0.  0.
         13    1    3    3    0    0 -0.59215549583E+00  0.64047478185E+02 -0.89443515021E+01  0.64671721284E+02  0.00000000000E+00 0. -1.
        -13    1    3    3    0    0  0.10022174826E+03  0.32084831527E+03 -0.26207581075E+03  0.42622971601E+03  0.00000000000E+00 0.  1.
         22    1    1    2    0    0 -0.99629592765E+02 -0.38489579345E+03 -0.16505826984E+04  0.16977909388E+04  0.00000000000E+00 0.  1.
<mgrwt>
<rscale>  0 0.10477675E+04</rscale>
<asrwt>0</asrwt>
<pdfrwt beam="1">  1        1 0.20545347E-01 0.10477675E+04</pdfrwt>
<pdfrwt beam="2">  1       -1 0.31617656E+00 0.10477675E+04</pdfrwt>
<totfact> 0.66462148E+00</totfact>
</mgrwt>
</event>
<event>
 6    1  0.9364335E-007  0.1444098E+04  0.7818608E-02  0.8922502E-01
          2   -1    0    0  501    0  0.00000000000E+00  0.00000000000E+00  0.64329001049E+03  0.64329001049E+03  0.00000000000E+00 0. -1.
         -2   -1    0    0    0  501 -0.00000000000E+00 -0.00000000000E+00 -0.81045060380E+03  0.81045060380E+03  0.00000000000E+00 0.  1.
         23    2    1    2    0    0 -0.10867413208E+03  0.41816375608E+03 -0.66271909276E+03  0.79628398435E+03  0.90557130804E+02 0.  0.
         11    1    3    3    0    0 -0.84643924949E+02  0.24476727210E+03 -0.32204113269E+03  0.41326275258E+03  0.00000000000E+00 0.  1.
        -11    1    3    3    0    0 -0.24030207132E+02  0.17339648398E+03 -0.34067796007E+03  0.38302123177E+03  0.00000000000E+00 0. -1.
         22    1    1    2    0    0  0.10867413208E+03 -0.41816375608E+03  0.49555849945E+03  0.65745662994E+03  0.00000000000E+00 0. -1.
<mgrwt>
<rscale>  0 0.14440980E+04</rscale>
<asrwt>0</asrwt>
<pdfrwt beam="1">  1        2 0.98967694E-01 0.14440980E+04</pdfrwt>
<pdfrwt beam="2">  1       -2 0.12468471E+00 0.14440980E+04</pdfrwt>
<totfact> 0.21315706E+01</totfact>
</mgrwt>
</event>
<event>
 6    1  0.9364335E-007  0.3518158E+04  0.7818608E-02  0.8109500E-01
          2   -1    0    0  501    0  0.00000000000E+00  0.00000000000E+00  0.24784002651E+04  0.24784002651E+04  0.00000000000E+00 0. -1.
         -2   -1    0    0    0  501 -0.00000000000E+00 -0.00000000000E+00 -0.12485308783E+04  0.12485308783E+04  0.00000000000E+00 0.  1.
         23    2    1    2    0    0  0.91606380344E+03  0.10668801011E+04  0.17326893200E+04  0.22335343685E+04  0.95170656000E+02 0.  0.
         11    1    3    3    0    0  0.35864273562E+03  0.35040448746E+03  0.59692508079E+03  0.77956877100E+03  0.00000000000E+00 0.  1.
        -11    1    3    3    0    0  0.55742106782E+03  0.71647561366E+03  0.11357642392E+04  0.14539655975E+04  0.00000000000E+00 0. -1.
         22    1    1    2    0    0 -0.91606380344E+03 -0.10668801011E+04 -0.50281993317E+03  0.14933967749E+04  0.00000000000E+00 0.  1.
<mgrwt>
<rscale>  0 0.35181582E+04</rscale>
<asrwt>0</asrwt>
<pdfrwt beam="1">  1        2 0.38129235E+00 0.35181582E+04</pdfrwt>
<pdfrwt beam="2">  1       -2 0.19208167E+00 0.35181582E+04</pdfrwt>
<totfact> 0.44121917E-01</totfact>
</mgrwt>
</event>
<event>
 6    1  0.9364335E-007  0.1079411E+04  0.7818608E-02  0.9225495E-01
         -2   -1    0    0    0  501 -0.00000000000E+00  0.00000000000E+00  0.50208520498E+03  0.50208520498E+03  0.00000000000E+00 0.  1.
          2   -1    0    0  501    0  0.00000000000E+00 -0.00000000000E+00 -0.58014445209E+03  0.58014445209E+03  0.00000000000E+00 0. -1.
         23    2    1    2    0    0 -0.44272693063E+03  0.15286213543E+03 -0.29845017950E+03  0.56459452434E+03  0.10158986029E+03 0.  0.
         11    1    3    3    0    0 -0.17812901565E+03  0.11277532277E+02 -0.12597323475E+03  0.21846369223E+03  0.00000000000E+00 0.  1.
        -11    1    3    3    0    0 -0.26459791498E+03  0.14158460316E+03 -0.17247694475E+03  0.34613083211E+03  0.00000000000E+00 0. -1.
         22    1    1    2    0    0  0.44272693063E+03 -0.15286213543E+03  0.22039093239E+03  0.51763513273E+03  0.00000000000E+00 0.  1.
<mgrwt>
<rscale>  0 0.10794109E+04</rscale>
<asrwt>0</asrwt>
<pdfrwt beam="1">  1        2 0.89252993E-01 0.10794109E+04</pdfrwt>
<pdfrwt beam="2">  1       -2 0.77243878E-01 0.10794109E+04</pdfrwt>
<totfact> 0.76831255E+01</totfact>
</mgrwt>
</event>
<event>
 6    1  0.9364335E-007  0.4710744E+04  0.7818608E-02  0.7874746E-01
         -2   -1    0    0    0  501 -0.00000000000E+00  0.00000000000E+00  0.13557442245E+04  0.13557442245E+04  0.00000000000E+00 0.  1.
          2   -1    0    0  501    0  0.00000000000E+00 -0.00000000000E+00 -0.40920535975E+04  0.40920535975E+04  0.00000000000E+00 0. -1.
         23    2    1    2    0    0 -0.67415272643E+03 -0.73320542505E+03  0.10985241377E+04  0.14857251133E+04  0.92475603747E+02 0.  0.
         11    1    3    3    0    0 -0.17739120920E+03 -0.19962989969E+03  0.23613522629E+03  0.35648223385E+03  0.00000000000E+00 0.  1.
        -11    1    3    3    0    0 -0.49676151724E+03 -0.53357552536E+03  0.86238891144E+03  0.11292428795E+04  0.00000000000E+00 0. -1.
         22    1    1    2    0    0  0.67415272643E+03  0.73320542505E+03 -0.38348335108E+04  0.39620727087E+04  0.00000000000E+00 0. -1.
<mgrwt>
<rscale>  0 0.47107443E+04</rscale>
<asrwt>0</asrwt>
<pdfrwt beam="1">  1        2 0.62954670E+00 0.47107443E+04</pdfrwt>
<pdfrwt beam="2">  1       -2 0.20857604E+00 0.47107443E+04</pdfrwt>
<totfact> 0.24908691E-02</totfact>
</mgrwt>
</event>
<event>
 6    1  0.9364335E-007  0.1810515E+04  0.7818608E-02  0.8700728E-01
          1   -1    0    0  501    0  0.00000000000E+00  0.00000000000E+00  0.31721010271E+04  0.31721010271E+04  0.00000000000E+00 0. -1.
         -1   -1    0    0    0  501 -0.00000000000E+00 -0.00000000000E+00 -0.25834331963E+03  0.25834331963E+03  0.00000000000E+00 0.  1.
         23    2    1    2    0    0 -0.40916171174E+03  0.56181041516E+03  0.25530937843E+04  0.26474228181E+04  0.86691736226E+02 0.  0.
         11    1    3    3    0    0 -0.23956681179E+03  0.38451933318E+03  0.15582657515E+04  0.16227875792E+04  0.00000000000E+00 0. -1.
        -11    1    3    3    0    0 -0.16959489995E+03  0.17729108198E+03  0.99482803284E+03  0.10246352389E+04  0.00000000000E+00 0.  1.
         22    1    1    2    0    0  0.40916171174E+03 -0.56181041516E+03  0.36066392320E+03  0.78302152872E+03  0.00000000000E+00 0.  1.
<mgrwt>
<rscale>  0 0.18105150E+04</rscale>
<asrwt>0</asrwt>
<pdfrwt beam="1">  1        1 0.48801552E+00 0.18105150E+04</pdfrwt>
<pdfrwt beam="2">  1       -1 0.39745128E-01 0.18105150E+04</pdfrwt>
<totfact> 0.26019913E+00</totfact>
</mgrwt>
</event>
<event>
 6    1  0.9364335E-007  0.2551550E+04  0.7818608E-02  0.8384847E-01
         -2   -1    0    0    0  501 -0.00000000000E+00  0.00000000000E+00  0.13342018652E+04  0.13342018652E+04  0.00000000000E+00 0.  1.
          2   -1    0    0  501    0  0.00000000000E+00 -0.00000000000E+00 -0.12199071977E+04  0.12199071977E+04  0.00000000000E+00 0. -1.
         23    2    1    2    0    0 -0.45143897715E+03  0.27363128312E+03 -0.11034811882E+04  0.12268377027E+04  0.93748530119E+02 0.  0.
         11    1    3    3    0    0 -0.20368334962E+03  0.10749213385E+03 -0.38105256663E+03  0.44524434223E+03  0.00000000000E+00 0. -1.
        -11    1    3    3    0    0 -0.24775562753E+03  0.16613914927E+03 -0.72242862153E+03  0.78159336045E+03  0.00000000000E+00 0.  1.
         22    1    1    2    0    0  0.45143897715E+03 -0.27363128312E+03  0.12177758556E+04  0.13272713603E+04  0.00000000000E+00 0.  1.
<mgrwt>
<rscale>  0 0.25515505E+04</rscale>
<asrwt>0</asrwt>
<pdfrwt beam="1">  1        2 0.18767803E+00 0.25515505E+04</pdfrwt>
<pdfrwt beam="2">  1       -2 0.20526183E+00 0.25515505E+04</pdfrwt>
<totfact> 0.20111490E+00</totfact>
</mgrwt>
</event>
<event>
 6    1  0.9364335E-007  0.6571382E+04  0.7818608E-02  0.7623330E-01
         -1   -1    0    0    0  501 -0.00000000000E+00  0.00000000000E+00  0.37527663582E+04  0.37527663582E+04  0.00000000000E+00 0.  1.
          1   -1    0    0  501    0  0.00000000000E+00 -0.00000000000E+00 -0.28767488629E+04  0.28767488629E+04  0.00000000000E+00 0. -1.
         23    2    1    2    0    0  0.64824123906E+03  0.29399268287E+04 -0.88819077455E+03  0.31401288450E+04  0.90221111965E+02 0.  0.
         11    1    3    3    0    0  0.37750447654E+03  0.18536801103E+04 -0.52544150425E+03  0.19633462138E+04  0.00000000000E+00 0. -1.
        -11    1    3    3    0    0  0.27073676252E+03  0.10862467184E+04 -0.36274927030E+03  0.11767826311E+04  0.00000000000E+00 0.  1.
         22    1    1    2    0    0 -0.64824123906E+03 -0.29399268287E+04  0.17642082699E+04  0.34893863761E+04  0.00000000000E+00 0. -1.
<mgrwt>
<rscale>  0 0.65713823E+04</rscale>
<asrwt>0</asrwt>
<pdfrwt beam="1">  1        1 0.44257675E+00 0.65713823E+04</pdfrwt>
<pdfrwt beam="2">  1       -1 0.57734867E+00 0.65713823E+04</pdfrwt>
<totfact> 0.26488589E-04</totfact>
</mgrwt>
</event>
<event>
 6    1  0.9364335E-007  0.2537868E+04  0.7818608E-02  0.8389618E-01
          2   -1    0    0  501    0  0.00000000000E+00  0.00000000000E+00  0.13450186177E+04  0.13450186177E+04  0.00000000000E+00 0. -1.
         -2   -1    0    0    0  501 -0.00000000000E+00 -0.00000000000E+00 -0.11971535599E+04  0.11971535599E+04  0.00000000000E+00 0.  1.
         23    2    1    2    0    0 -0.12060250213E+03 -0.12517033699E+04 -0.83396722174E+02  0.12635837759E+04  0.91556844326E+02 0.  0.
         13    1    3    3    0    0 -0.39268953918E+02 -0.64213294236E+03 -0.26913891416E+01  0.64333817700E+03  0.00000000000E+00 0.  1.
        -13    1    3    3    0    0 -0.81333548210E+02 -0.60957042756E+03 -0.80705333032E+02  0.62024559894E+03  0.00000000000E+00 0. -1.
         22    1    1    2    0    0  0.12060250213E+03  0.12517033699E+04  0.23126178001E+03  0.12785884016E+04  0.00000000000E+00 0.  1.
<mgrwt>
<rscale>  0 0.25378683E+04</rscale>
<asrwt>0</asrwt>
<pdfrwt beam="1">  1        2 0.20692594E+00 0.25378683E+04</pdfrwt>
<pdfrwt beam="2">  1       -2 0.18417747E+00 0.25378683E+04</pdfrwt>
<totfact> 0.23490460E+00</totfact>
</mgrwt>
</event>
<event>
 6    1  0.9364335E-007  0.4780240E+03  0.7818608E-02  0.1019680E+00
          2   -1    0    0  501    0  0.00000000000E+00  0.00000000000E+00  0.21110075906E+03  0.21110075906E+03  0.00000000000E+00 0. -1.
         -2   -1    0    0    0  501 -0.00000000000E+00 -0.00000000000E+00 -0.27061360343E+03  0.27061360343E+03  0.00000000000E+00 0.  1.
         23    2    1    2    0    0 -0.99693645246E+01 -0.23210271552E+03 -0.28777714554E+02  0.24737335671E+03  0.79964754574E+02 0.  0.
         13    1    3    3    0    0 -0.38359129754E+02 -0.12375304813E+03 -0.37910845660E+02  0.13499434053E+03  0.00000000000E+00 0. -1.
        -13    1    3    3    0    0  0.28389765229E+02 -0.10834966739E+03  0.91331311064E+01  0.11237901618E+03  0.00000000000E+00 0.  1.
         22    1    1    2    0    0  0.99693645246E+01  0.23210271552E+03 -0.30735129811E+02  0.23434100577E+03  0.00000000000E+00 0.  1.
<mgrwt>
<rscale>  0 0.47802400E+03</rscale>
<asrwt>0</asrwt>
<pdfrwt beam="1">  1        2 0.32477040E-01 0.47802400E+03</pdfrwt>
<pdfrwt beam="2">  1       -2 0.41632862E-01 0.47802400E+03</pdfrwt>
<totfact> 0.89168724E+02</totfact>
</mgrwt>
</event>
<event>
 6    1  0.9364335E-007  0.2570615E+04  0.7818608E-02  0.8378252E-01
          1   -1    0    0  501    0  0.00000000000E+00  0.00000000000E+00  0.12493748539E+04  0.12493748539E+04  0.00000000000E+00 0. -1.
         -1   -1    0    0    0  501 -0.00000000000E+00 -0.00000000000E+00 -0.13222734377E+04  0.13222734377E+04  0.00000000000E+00 0.  1.
         23    2    1    2    0    0  0.52116908961E+02  0.46599557906E+03 -0.12319359620E+04  0.13213540478E+04  0.91881734821E+02 0.  0.
         13    1    3    3    0    0  0.55760705274E+02  0.19437492174E+03 -0.44324163618E+03  0.48718991625E+03  0.00000000000E+00 0. -1.
        -13    1    3    3    0    0 -0.36437963125E+01  0.27162065732E+03 -0.78869432584E+03  0.83416413154E+03  0.00000000000E+00 0.  1.
         22    1    1    2    0    0 -0.52116908961E+02 -0.46599557906E+03  0.11590373782E+04  0.12502942437E+04  0.00000000000E+00 0. -1.
<mgrwt>
<rscale>  0 0.25706149E+04</rscale>
<asrwt>0</asrwt>
<pdfrwt beam="1">  1        1 0.19221152E+00 0.25706149E+04</pdfrwt>
<pdfrwt beam="2">  1       -1 0.20342668E+00 0.25706149E+04</pdfrwt>
<totfact> 0.12382080E+00</totfact>
</mgrwt>
</event>
<event>
 6    1  0.9364335E-007  0.7210896E+03  0.7818608E-02  0.9681831E-01
         -1   -1    0    0    0  501 -0.00000000000E+00  0.00000000000E+00  0.25206625881E+03  0.25206625881E+03  0.00000000000E+00 0.  1.
          1   -1    0    0  501    0  0.00000000000E+00 -0.00000000000E+00 -0.51570788261E+03  0.51570788261E+03  0.00000000000E+00 0. -1.
         23    2    1    2    0    0 -0.15528077424E+02 -0.26820008763E+03  0.11427725988E+03  0.30409851036E+03  0.85112887918E+02 0.  0.
         13    1    3    3    0    0 -0.11442531269E+02 -0.15967517146E+03  0.11217818312E+03  0.19547643508E+03  0.00000000000E+00 0. -1.
        -13    1    3    3    0    0 -0.40855461551E+01 -0.10852491616E+03  0.20990767542E+01  0.10862207528E+03  0.00000000000E+00 0.  1.
         22    1    1    2    0    0  0.15528077424E+02  0.26820008763E+03 -0.37791888367E+03  0.46367563105E+03  0.00000000000E+00 0. -1.
<mgrwt>
<rscale>  0 0.72108961E+03</rscale>
<asrwt>0</asrwt>
<pdfrwt beam="1">  1        1 0.79339674E-01 0.72108961E+03</pdfrwt>
<pdfrwt beam="2">  1       -1 0.38779424E-01 0.72108961E+03</pdfrwt>
<totfact> 0.27705087E+02</totfact>
</mgrwt>
</event>
<event>
 6    1  0.9364335E-007  0.5112234E+03  0.7818608E-02  0.1010890E+00
          1   -1    0    0  501    0  0.00000000000E+00  0.00000000000E+00  0.52899754132E+03  0.52899754132E+03  0.00000000000E+00 0. -1.
         -1   -1    0    0    0  501 -0.00000000000E+00 -0.00000000000E+00 -0.12351160484E+03  0.12351160484E+03  0.00000000000E+00 0.  1.
         23    2    1    2    0    0 -0.41711898925E+02  0.20509142877E+03  0.37558461731E+03  0.44109375987E+03  0.98476005040E+02 0.  0.
         11    1    3    3    0    0 -0.58220330863E+02  0.17162664360E+03  0.24165923031E+03  0.30206703779E+03  0.00000000000E+00 0. -1.
        -11    1    3    3    0    0  0.16508431938E+02  0.33464785168E+02  0.13392538700E+03  0.13902672209E+03  0.00000000000E+00 0.  1.
         22    1    1    2    0    0  0.41711898925E+02 -0.20509142877E+03  0.29901319164E+02  0.21141538628E+03  0.00000000000E+00 0.  1.
<mgrwt>
<rscale>  0 0.51122338E+03</rscale>
<asrwt>0</asrwt>
<pdfrwt beam="1">  1        1 0.81384236E-01 0.51122338E+03</pdfrwt>
<pdfrwt beam="2">  1       -1 0.19001786E-01 0.51122338E+03</pdfrwt>
<totfact> 0.91762653E+02</totfact>
</mgrwt>
</event>
<event>
 6    1  0.9364335E-007  0.2269865E+04  0.7818608E-02  0.8489898E-01
         -1   -1    0    0    0  501 -0.00000000000E+00  0.00000000000E+00  0.22208166141E+04  0.22208166141E+04  0.00000000000E+00 0.  1.
          1   -1    0    0  501    0  0.00000000000E+00 -0.00000000000E+00 -0.57999930840E+03  0.57999930840E+03  0.00000000000E+00 0. -1.
         23    2    1    2    0    0  0.60999742277E+03 -0.63219235730E+03 -0.56854011391E+02  0.88931077386E+03  0.12600492640E+03 0.  0.
         13    1    3    3    0    0  0.47375358575E+03 -0.43440052400E+03 -0.81340495933E+02  0.64789084848E+03  0.00000000000E+00 0. -1.
        -13    1    3    3    0    0  0.13624383702E+03 -0.19779183330E+03  0.24486484542E+02  0.24141992538E+03  0.00000000000E+00 0.  1.
         22    1    1    2    0    0 -0.60999742277E+03  0.63219235730E+03  0.16976713170E+04  0.19115051486E+04  0.00000000000E+00 0.  1.
<mgrwt>
<rscale>  0 0.22698653E+04</rscale>
<asrwt>0</asrwt>
<pdfrwt beam="1">  1        1 0.89230664E-01 0.22698653E+04</pdfrwt>
<pdfrwt beam="2">  1       -1 0.34166409E+00 0.22698653E+04</pdfrwt>
<totfact> 0.57537244E-01</totfact>
</mgrwt>
</event>
<event>
 6    1  0.9364335E-007  0.2302477E+04  0.7818608E-02  0.8476945E-01
         -2   -1    0    0    0  501 -0.00000000000E+00  0.00000000000E+00  0.21027382100E+04  0.21027382100E+04  0.00000000000E+00 0.  1.
          2   -1    0    0  501    0  0.00000000000E+00 -0.00000000000E+00 -0.63029727561E+03  0.63029727561E+03  0.00000000000E+00 0. -1.
         23    2    1    2    0    0  0.74083613214E+03  0.57940989960E+03 -0.46803421319E+02  0.94623459610E+03  0.92818878284E+02 0.  0.
         11    1    3    3    0    0  0.31113731204E+03  0.22600194336E+03  0.24430772176E+02  0.38533124448E+03  0.00000000000E+00 0.  1.
        -11    1    3    3    0    0  0.42969882010E+03  0.35340795624E+03 -0.71234193496E+02  0.56090335161E+03  0.00000000000E+00 0. -1.
         22    1    1    2    0    0 -0.74083613214E+03 -0.57940989960E+03  0.15192443557E+04  0.17868008895E+04  0.00000000000E+00 0.  1.
<mgrwt>
<rscale>  0 0.23024771E+04</rscale>
<asrwt>0</asrwt>
<pdfrwt beam="1">  1        2 0.96968812E-01 0.23024771E+04</pdfrwt>
<pdfrwt beam="2">  1       -2 0.32349818E+00 0.23024771E+04</pdfrwt>
<totfact> 0.96504852E-01</totfact>
</mgrwt>
</event>
<event>
 6    1  0.9364335E-007  0.4005028E+04  0.7818608E-02  0.8003533E-01
         -2   -1    0    0    0  501 -0.00000000000E+00  0.00000000000E+00  0.99970566765E+03  0.99970566765E+03  0.00000000000E+00 0.  1.
          2   -1    0    0  501    0  0.00000000000E+00 -0.00000000000E+00 -0.40112420526E+04  0.40112420526E+04  0.00000000000E+00 0. -1.
         23    2    1    2    0    0 -0.97994868803E+03 -0.14652537463E+04 -0.26925594766E+04  0.32195755534E+04  0.92315961427E+02 0.  0.
         13    1    3    3    0    0 -0.42303830766E+03 -0.59681806545E+03 -0.11922698308E+04  0.13988068353E+04  0.00000000000E+00 0.  1.
        -13    1    3    3    0    0 -0.55691038036E+03 -0.86843568086E+03 -0.15002896457E+04  0.18207687181E+04  0.00000000000E+00 0. -1.
         22    1    1    2    0    0  0.97994868803E+03  0.14652537463E+04 -0.31897690839E+03  0.17913721669E+04  0.00000000000E+00 0.  1.
<mgrwt>
<rscale>  0 0.40050275E+04</rscale>
<asrwt>0</asrwt>
<pdfrwt beam="1">  1        2 0.61711416E+00 0.40050275E+04</pdfrwt>
<pdfrwt beam="2">  1       -2 0.15380087E+00 0.40050275E+04</pdfrwt>
<totfact> 0.73770357E-02</totfact>
</mgrwt>
</event>
<event>
 6    1  0.9364335E-007  0.2471575E+04  0.7818608E-02  0.8413183E-01
         -2   -1    0    0    0  501 -0.00000000000E+00  0.00000000000E+00  0.13680496850E+04  0.13680496850E+04  0.00000000000E+00 0.  1.
          2   -1    0    0  501    0  0.00000000000E+00 -0.00000000000E+00 -0.11163120017E+04  0.11163120017E+04  0.00000000000E+00 0. -1.
         23    2    1    2    0    0  0.59265873960E+03  0.78398439611E+03 -0.62427337522E+03  0.11678240725E+04  0.90663677618E+02 0.  0.
         13    1    3    3    0    0  0.49786480847E+03  0.69808054746E+03 -0.52004628708E+03  0.10028130229E+04  0.00000000000E+00 0. -1.
        -13    1    3    3    0    0  0.94793931138E+02  0.85903848647E+02 -0.10422708815E+03  0.16501104962E+03  0.00000000000E+00 0.  1.
         22    1    1    2    0    0 -0.59265873960E+03 -0.78398439611E+03  0.87601105849E+03  0.13165376142E+04  0.00000000000E+00 0.  1.
<mgrwt>
<rscale>  0 0.24715746E+04</rscale>
<asrwt>0</asrwt>
<pdfrwt beam="1">  1        2 0.17174031E+00 0.24715746E+04</pdfrwt>
<pdfrwt beam="2">  1       -2 0.21046918E+00 0.24715746E+04</pdfrwt>
<totfact> 0.21638401E+00</totfact>
</mgrwt>
</event>
<event>
 6    1  0.9364335E-007  0.4855310E+04  0.7818608E-02  0.7851223E-01
          2   -1    0    0  501    0  0.00000000000E+00  0.00000000000E+00  0.24400908911E+04  0.24400908911E+04  0.00000000000E+00 0. -1.
         -2   -1    0    0    0  501 -0.00000000000E+00 -0.00000000000E+00 -0.24152823255E+04  0.24152823255E+04  0.00000000000E+00 0.  1.
         23    2    1    2    0    0  0.14472766399E+04  0.99997763497E+03  0.16841759420E+04  0.24370959305E+04  0.91777055505E+02 0.  0.
         11    1    3    3    0    0  0.80471711429E+03  0.54078884092E+03  0.86718824524E+03  0.13007834782E+04  0.00000000000E+00 0. -1.
        -11    1    3    3    0    0  0.64255952560E+03  0.45918879404E+03  0.81698769679E+03  0.11363124523E+04  0.00000000000E+00 0.  1.
         22    1    1    2    0    0 -0.14472766399E+04 -0.99997763497E+03 -0.16593673765E+04  0.24182772862E+04  0.00000000000E+00 0.  1.
<mgrwt>
<rscale>  0 0.48553098E+04</rscale>
<asrwt>0</asrwt>
<pdfrwt beam="1">  1        2 0.37539860E+00 0.48553098E+04</pdfrwt>
<pdfrwt beam="2">  1       -2 0.37158190E+00 0.48553098E+04</pdfrwt>
<totfact> 0.31496022E-02</totfact>
</mgrwt>
</event>
<event>
 6    1  0.9364335E-007  0.3119237E+04  0.7818608E-02  0.8210478E-01
         -2   -1    0    0    0  501 -0.00000000000E+00  0.00000000000E+00  0.18005527519E+04  0.18005527519E+04  0.00000000000E+00 0.  1.
          2   -1    0    0  501    0  0.00000000000E+00 -0.00000000000E+00 -0.13509237086E+04  0.13509237086E+04  0.00000000000E+00 0. -1.
         23    2    1    2    0    0  0.15046529915E+04  0.53088141753E+02  0.63124342557E+03  0.16349729956E+04  0.88709967704E+02 0.  0.
         11    1    3    3    0    0  0.40450101079E+03  0.53356940311E+02  0.17629271369E+03  0.44446276752E+03  0.00000000000E+00 0.  1.
        -11    1    3    3    0    0  0.11001519807E+04 -0.26879855826E+00  0.45495071187E+03  0.11905102280E+04  0.00000000000E+00 0. -1.
         22    1    1    2    0    0 -0.15046529915E+04 -0.53088141753E+02 -0.18161438231E+03  0.15165034650E+04  0.00000000000E+00 0. -1.
<mgrwt>
<rscale>  0 0.31192367E+04</rscale>
<asrwt>0</asrwt>
<pdfrwt beam="1">  1        2 0.20783442E+00 0.31192367E+04</pdfrwt>
<pdfrwt beam="2">  1       -2 0.27700812E+00 0.31192367E+04</pdfrwt>
<totfact> 0.57491924E-01</totfact>
</mgrwt>
</event>
<event>
 6    1  0.9364335E-007  0.9432183E+03  0.7818608E-02  0.9373113E-01
          2   -1    0    0  501    0  0.00000000000E+00  0.00000000000E+00  0.49273582702E+03  0.49273582702E+03  0.00000000000E+00 0. -1.
         -2   -1    0    0    0  501 -0.00000000000E+00 -0.00000000000E+00 -0.45138835096E+03  0.45138835096E+03  0.00000000000E+00 0.  1.
         23    2    1    2    0    0 -0.92754418476E+02 -0.40468482269E+03  0.23866551650E+03  0.48444211726E+03  0.73141973901E+02 0.  0.
         11    1    3    3    0    0 -0.89003513744E+02 -0.25828201314E+03  0.17714578252E+03  0.32559461303E+03  0.00000000000E+00 0.  1.
        -11    1    3    3    0    0 -0.37509047326E+01 -0.14640280955E+03  0.61519733982E+02  0.15884750423E+03  0.00000000000E+00 0. -1.
         22    1    1    2    0    0  0.92754418476E+02  0.40468482269E+03 -0.19731804044E+03  0.45968206072E+03  0.00000000000E+00 0.  1.
<mgrwt>
<rscale>  0 0.94321835E+03</rscale>
<asrwt>0</asrwt>
<pdfrwt beam="1">  1        2 0.75805512E-01 0.94321835E+03</pdfrwt>
<pdfrwt beam="2">  1       -2 0.69444362E-01 0.94321835E+03</pdfrwt>
<totfact> 0.11872595E+02</totfact>
</mgrwt>
</event>
<event>
 6    1  0.9364335E-007  0.7733090E+03  0.7818608E-02  0.9599475E-01
         -1   -1    0    0    0  501 -0.00000000000E+00  0.00000000000E+00  0.13024245747E+04  0.13024245747E+04  0.00000000000E+00 0.  1.
          1   -1    0    0  501    0  0.00000000000E+00 -0.00000000000E+00 -0.11478723801E+03  0.11478723801E+03  0.00000000000E+00 0. -1.
         23    2    1    2    0    0  0.17151917047E+03  0.26114742348E+03  0.10023460564E+04  0.10539630534E+04  0.92323877591E+02 0.  0.
         11    1    3    3    0    0  0.33629542267E+02  0.12239991383E+03  0.32406884477E+03  0.34804209684E+03  0.00000000000E+00 0.  1.
        -11    1    3    3    0    0  0.13788962820E+03  0.13874750964E+03  0.67827721168E+03  0.70592095654E+03  0.00000000000E+00 0. -1.
         22    1    1    2    0    0 -0.17151917047E+03 -0.26114742348E+03  0.18529128024E+03  0.36324875933E+03  0.00000000000E+00 0. -1.
<mgrwt>
<rscale>  0 0.77330904E+03</rscale>
<asrwt>0</asrwt>
<pdfrwt beam="1">  1        1 0.17659576E-01 0.77330904E+03</pdfrwt>
<pdfrwt beam="2">  1       -1 0.20037300E+00 0.77330904E+03</pdfrwt>
<totfact> 0.47315789E+01</totfact>
</mgrwt>
</event>
<event>
 6    1  0.9364335E-007  0.2273177E+04  0.7818608E-02  0.8488573E-01
          2   -1    0    0  501    0  0.00000000000E+00  0.00000000000E+00  0.82972916671E+03  0.82972916671E+03  0.00000000000E+00 0. -1.
         -2   -1    0    0    0  501 -0.00000000000E+00 -0.00000000000E+00 -0.15569343935E+04  0.15569343935E+04  0.00000000000E+00 0.  1.
         23    2    1    2    0    0 -0.29635191590E+03  0.74865491184E+03  0.47523123739E+03  0.93954155933E+03  0.92655154393E+02 0.  0.
         13    1    3    3    0    0 -0.26628136480E+02  0.16957156387E+03  0.10349636220E+03  0.20043719693E+03  0.00000000000E+00 0. -1.
        -13    1    3    3    0    0 -0.26972377942E+03  0.57908334797E+03  0.37173487519E+03  0.73910436240E+03  0.00000000000E+00 0.  1.
         22    1    1    2    0    0  0.29635191590E+03 -0.74865491184E+03 -0.12024364642E+04  0.14471220009E+04  0.00000000000E+00 0.  1.
<mgrwt>
<rscale>  0 0.22731774E+04</rscale>
<asrwt>0</asrwt>
<pdfrwt beam="1">  1        2 0.12765064E+00 0.22731774E+04</pdfrwt>
<pdfrwt beam="2">  1       -2 0.23952837E+00 0.22731774E+04</pdfrwt>
<totfact> 0.22218412E+00</totfact>
</mgrwt>
</event>
<event>
 6    1  0.9364335E-007  0.1064047E+04  0.7818608E-02  0.9240960E-01
         -2   -1    0    0    0  501 -0.00000000000E+00  0.00000000000E+00  0.40863029600E+03  0.40863029600E+03  0.00000000000E+00 0.  1.
          2   -1    0    0  501    0  0.00000000000E+00 -0.00000000000E+00 -0.69267809684E+03  0.69267809684E+03  0.00000000000E+00 0. -1.
         23    2    1    2    0    0 -0.40917738966E+03 -0.11544013168E+03 -0.46724952354E+03  0.63836624590E+03  0.91851981160E+02 0.  0.
         13    1    3    3    0    0 -0.10781756600E+03 -0.55176582190E+01 -0.74044225596E+02  0.13091073079E+03  0.00000000000E+00 0. -1.
        -13    1    3    3    0    0 -0.30135982366E+03 -0.10992247346E+03 -0.39320529794E+03  0.50745551511E+03  0.00000000000E+00 0.  1.
         22    1    1    2    0    0  0.40917738966E+03  0.11544013168E+03  0.18320172270E+03  0.46294214694E+03  0.00000000000E+00 0.  1.
<mgrwt>
<rscale>  0 0.10640475E+04</rscale>
<asrwt>0</asrwt>
<pdfrwt beam="1">  1        2 0.10656586E+00 0.10640475E+04</pdfrwt>
<pdfrwt beam="2">  1       -2 0.62866200E-01 0.10640475E+04</pdfrwt>
<totfact> 0.96936432E+01</totfact>
</mgrwt>
</event>
<event>
 6    1  0.9364335E-007  0.1060400E+04  0.7818608E-02  0.9244672E-01
         -2   -1    0    0    0  501 -0.00000000000E+00  0.00000000000E+00  0.78396848926E+02  0.78396848926E+02  0.00000000000E+00 0.  1.
          2   -1    0    0  501    0  0.00000000000E+00 -0.00000000000E+00 -0.35857589524E+04  0.35857589524E+04  0.00000000000E+00 0. -1.
         23    2    1    2    0    0 -0.39754219488E+03 -0.28556276364E+02 -0.29537462017E+04  0.29819931930E+04  0.93869701471E+02 0.  0.
         11    1    3    3    0    0 -0.16505292311E+03  0.25532529778E+02 -0.14191035983E+04  0.14288979671E+04  0.00000000000E+00 0.  1.
        -11    1    3    3    0    0 -0.23248927177E+03 -0.54088806142E+02 -0.15346426034E+04  0.15530952259E+04  0.00000000000E+00 0. -1.
         22    1    1    2    0    0  0.39754219488E+03  0.28556276364E+02 -0.55361590177E+03  0.68216260841E+03  0.00000000000E+00 0.  1.
<mgrwt>
<rscale>  0 0.10604003E+04</rscale>
<asrwt>0</asrwt>
<pdfrwt beam="1">  1        2 0.55165517E+00 0.10604003E+04</pdfrwt>
<pdfrwt beam="2">  1       -2 0.12061055E-01 0.10604003E+04</pdfrwt>
<totfact> 0.36933281E+01</totfact>
</mgrwt>
</event>
<event>
 6    1  0.9364335E-007  0.1928011E+04  0.7818608E-02  0.8641038E-01
         -1   -1    0    0    0  501 -0.00000000000E+00  0.00000000000E+00  0.10157292006E+04  0.10157292006E+04  0.00000000000E+00 0.  1.
          1   -1    0    0  501    0  0.00000000000E+00 -0.00000000000E+00 -0.91491583000E+03  0.91491583000E+03  0.00000000000E+00 0. -1.
         23    2    1    2    0    0  0.20938926015E+02 -0.74155941176E+03 -0.56033683575E+03  0.93693058712E+03  0.11624437956E+03 0.  0.
         11    1    3    3    0    0 -0.56281685848E+00 -0.16366625215E+03 -0.18742462148E+03  0.24882714400E+03  0.00000000000E+00 0. -1.
        -11    1    3    3    0    0  0.21501742873E+02 -0.57789315961E+03 -0.37291221427E+03  0.68810344311E+03  0.00000000000E+00 0.  1.
         22    1    1    2    0    0 -0.20938926015E+02  0.74155941176E+03  0.66115020630E+03  0.99371444344E+03  0.00000000000E+00 0.  1.
<mgrwt>
<rscale>  0 0.19280111E+04</rscale>
<asrwt>0</asrwt>
<pdfrwt beam="1">  1        1 0.14075628E+00 0.19280111E+04</pdfrwt>
<pdfrwt beam="2">  1       -1 0.15626603E+00 0.19280111E+04</pdfrwt>
<totfact> 0.51534762E+00</totfact>
</mgrwt>
</event>
<event>
 6    1  0.9364335E-007  0.1119142E+04  0.7818608E-02  0.9186733E-01
          1   -1    0    0  501    0  0.00000000000E+00  0.00000000000E+00  0.82528112366E+03  0.82528112366E+03  0.00000000000E+00 0. -1.
         -1   -1    0    0    0  501 -0.00000000000E+00 -0.00000000000E+00 -0.37940987337E+03  0.37940987337E+03  0.00000000000E+00 0.  1.
         23    2    1    2    0    0 -0.31846049358E+03  0.36353951408E+03 -0.71366767309E+02  0.49679748024E+03  0.90202309399E+02 0.  0.
         11    1    3    3    0    0 -0.22862802775E+03  0.30508202319E+03 -0.79023223113E+02  0.38934622862E+03  0.00000000000E+00 0.  1.
        -11    1    3    3    0    0 -0.89832465833E+02  0.58457490889E+02  0.76564558044E+01  0.10745125162E+03  0.00000000000E+00 0. -1.
         22    1    1    2    0    0  0.31846049358E+03 -0.36353951408E+03  0.51723801760E+03  0.70789351679E+03  0.00000000000E+00 0. -1.
<mgrwt>
<rscale>  0 0.11191422E+04</rscale>
<asrwt>0</asrwt>
<pdfrwt beam="1">  1        1 0.12696633E+00 0.11191422E+04</pdfrwt>
<pdfrwt beam="2">  1       -1 0.58370750E-01 0.11191422E+04</pdfrwt>
<totfact> 0.62224642E+01</totfact>
</mgrwt>
</event>
<event>
 6    1  0.9364335E-007  0.3488591E+04  0.7818608E-02  0.8116499E-01
          2   -1    0    0  501    0  0.00000000000E+00  0.00000000000E+00  0.18390116438E+04  0.18390116438E+04  0.00000000000E+00 0. -1.
         -2   -1    0    0    0  501 -0.00000000000E+00 -0.00000000000E+00 -0.16544580096E+04  0.16544580096E+04  0.00000000000E+00 0.  1.
         23    2    1    2    0    0 -0.50844365469E+02  0.54880557843E+03  0.17483134297E+04  0.18354233905E+04  0.91686758156E+02 0.  0.
         11    1    3    3    0    0 -0.74717295993E+02  0.43717591819E+03  0.13428089818E+04  0.14141574946E+04  0.00000000000E+00 0. -1.
        -11    1    3    3    0    0  0.23872930524E+02  0.11162966023E+03  0.40550444782E+03  0.42126589591E+03  0.00000000000E+00 0.  1.
         22    1    1    2    0    0  0.50844365469E+02 -0.54880557843E+03 -0.15637597954E+04  0.16580462630E+04  0.00000000000E+00 0.  1.
<mgrwt>
<rscale>  0 0.34885914E+04</rscale>
<asrwt>0</asrwt>
<pdfrwt beam="1">  1        2 0.28292487E+00 0.34885914E+04</pdfrwt>
<pdfrwt beam="2">  1       -2 0.25453200E+00 0.34885914E+04</pdfrwt>
<totfact> 0.40694263E-01</totfact>
</mgrwt>
</event>
<event>
 6    1  0.9364335E-007  0.3905303E+04  0.7818608E-02  0.8023927E-01
         -2   -1    0    0    0  501 -0.00000000000E+00  0.00000000000E+00  0.29964474034E+04  0.29964474034E+04  0.00000000000E+00 0.  1.
          2   -1    0    0  501    0  0.00000000000E+00 -0.00000000000E+00 -0.12724558593E+04  0.12724558593E+04  0.00000000000E+00 0. -1.
         23    2    1    2    0    0  0.17400739625E+04  0.68911031442E+03  0.25891185505E+03  0.18921010169E+04  0.10139274773E+03 0.  0.
         13    1    3    3    0    0  0.16780307360E+04  0.65478150174E+03  0.26619780170E+03  0.18208204842E+04  0.00000000000E+00 0. -1.
        -13    1    3    3    0    0  0.62043226440E+02  0.34328812686E+02 -0.72859466487E+01  0.71280532729E+02  0.00000000000E+00 0.  1.
         22    1    1    2    0    0 -0.17400739625E+04 -0.68911031442E+03  0.14650796891E+04  0.23768022458E+04  0.00000000000E+00 0.  1.
<mgrwt>
<rscale>  0 0.39053026E+04</rscale>
<asrwt>0</asrwt>
<pdfrwt beam="1">  1        2 0.19576244E+00 0.39053026E+04</pdfrwt>
<pdfrwt beam="2">  1       -2 0.46099191E+00 0.39053026E+04</pdfrwt>
<totfact> 0.40056274E-02</totfact>
</mgrwt>
</event>
<event>
 6    1  0.9364335E-007  0.2661306E+04  0.7818608E-02  0.8347670E-01
         -1   -1    0    0    0  501 -0.00000000000E+00  0.00000000000E+00  0.89432633785E+03  0.89432633785E+03  0.00000000000E+00 0.  1.
          1   -1    0    0  501    0  0.00000000000E+00 -0.00000000000E+00 -0.19798555420E+04  0.19798555420E+04  0.00000000000E+00 0. -1.
         23    2    1    2    0    0 -0.40233451607E+03  0.11051119626E+04 -0.12121419698E+04  0.16913140490E+04  0.90053010903E+02 0.  0.
         11    1    3    3    0    0 -0.27662370255E+03  0.84036025294E+03 -0.87018928681E+03  0.12409494036E+04  0.00000000000E+00 0.  1.
        -11    1    3    3    0    0 -0.12571081352E+03  0.26475170970E+03 -0.34195268299E+03  0.45036464540E+03  0.00000000000E+00 0. -1.
         22    1    1    2    0    0  0.40233451607E+03 -0.11051119626E+04  0.12661276562E+03  0.11828678308E+04  0.00000000000E+00 0.  1.
<mgrwt>
<rscale>  0 0.26613057E+04</rscale>
<asrwt>0</asrwt>
<pdfrwt beam="1">  1        1 0.30459316E+00 0.26613057E+04</pdfrwt>
<pdfrwt beam="2">  1       -1 0.13758867E+00 0.26613057E+04</pdfrwt>
<totfact> 0.11815262E+00</totfact>
</mgrwt>
</event>
<event>
 6    1  0.9364335E-007  0.2503669E+04  0.7818608E-02  0.8401680E-01
         -2   -1    0    0    0  501 -0.00000000000E+00  0.00000000000E+00  0.55809834340E+03  0.55809834340E+03  0.00000000000E+00 0.  1.
          2   -1    0    0  501    0  0.00000000000E+00 -0.00000000000E+00 -0.28079090046E+04  0.28079090046E+04  0.00000000000E+00 0. -1.
         23    2    1    2    0    0  0.89781070058E+03 -0.52624677095E+03 -0.19523302904E+03  0.10629031461E+04  0.92991636438E+02 0.  0.
         11    1    3    3    0    0  0.70282861039E+03 -0.37597178034E+03 -0.17380179903E+03  0.81580015969E+03  0.00000000000E+00 0.  1.
        -11    1    3    3    0    0  0.19498209019E+03 -0.15027499061E+03 -0.21431230002E+02  0.24710298646E+03  0.00000000000E+00 0. -1.
         22    1    1    2    0    0 -0.89781070058E+03  0.52624677095E+03 -0.20545776322E+04  0.23031042019E+04  0.00000000000E+00 0. -1.
<mgrwt>
<rscale>  0 0.25036688E+04</rscale>
<asrwt>0</asrwt>
<pdfrwt beam="1">  1        2 0.43198599E+00 0.25036688E+04</pdfrwt>
<pdfrwt beam="2">  1       -2 0.85861286E-01 0.25036688E+04</pdfrwt>
<totfact> 0.24009791E+00</totfact>
</mgrwt>
</event>
<event>
 6    1  0.9364335E-007  0.1872192E+04  0.7818608E-02  0.8668824E-01
         -2   -1    0    0    0  501 -0.00000000000E+00  0.00000000000E+00  0.16049058536E+04  0.16049058536E+04  0.00000000000E+00 0.  1.
          2   -1    0    0  501    0  0.00000000000E+00 -0.00000000000E+00 -0.54599797717E+03  0.54599797717E+03  0.00000000000E+00 0. -1.
         23    2    1    2    0    0  0.15732087162E+03  0.53133887971E+03 -0.33290398188E+03  0.65283470331E+03  0.91089115448E+02 0.  0.
         11    1    3    3    0    0  0.55637866630E+02  0.34353503582E+03 -0.20577573676E+03  0.40429636021E+03  0.00000000000E+00 0.  1.
        -11    1    3    3    0    0  0.10168300499E+03  0.18780384389E+03 -0.12712824512E+03  0.24853834310E+03  0.00000000000E+00 0. -1.
         22    1    1    2    0    0 -0.15732087162E+03 -0.53133887971E+03  0.13918118583E+04  0.14980691275E+04  0.00000000000E+00 0.  1.
<mgrwt>
<rscale>  0 0.18721916E+04</rscale>
<asrwt>0</asrwt>
<pdfrwt beam="1">  1        2 0.83999689E-01 0.18721916E+04</pdfrwt>
<pdfrwt beam="2">  1       -2 0.24690859E+00 0.18721916E+04</pdfrwt>
<totfact> 0.34990338E+00</totfact>
</mgrwt>
</event>
<event>
 6    1  0.9364335E-007  0.9489080E+03  0.7818608E-02  0.9366428E-01
          1   -1    0    0  501    0  0.00000000000E+00  0.00000000000E+00  0.16262802941E+03  0.16262802941E+03  0.00000000000E+00 0. -1.
         -1   -1    0    0    0  501 -0.00000000000E+00 -0.00000000000E+00 -0.13841807796E+04  0.13841807796E+04  0.00000000000E+00 0.  1.
         23    2    1    2    0    0  0.26410282498E+03  0.12632446093E+03 -0.12159948658E+04  0.12539964772E+04  0.90307694488E+02 0.  0.
         11    1    3    3    0    0  0.98890567096E+02  0.86629296481E+02 -0.42114302163E+03  0.44118638231E+03  0.00000000000E+00 0. -1.
        -11    1    3    3    0    0  0.16521225789E+03  0.39695164445E+02 -0.79485184413E+03  0.81281009489E+03  0.00000000000E+00 0.  1.
         22    1    1    2    0    0 -0.26410282498E+03 -0.12632446093E+03 -0.55578844541E+01  0.29281233183E+03  0.00000000000E+00 0. -1.
<mgrwt>
<rscale>  0 0.94890799E+03</rscale>
<asrwt>0</asrwt>
<pdfrwt beam="1">  1        1 0.25019697E-01 0.94890799E+03</pdfrwt>
<pdfrwt beam="2">  1       -1 0.21295089E+00 0.94890799E+03</pdfrwt>
<totfact> 0.24176986E+01</totfact>
</mgrwt>
</event>
<event>
 6    1  0.9364335E-007  0.1192243E+04  0.7818608E-02  0.9119674E-01
         -2   -1    0    0    0  501 -0.00000000000E+00  0.00000000000E+00  0.26114264657E+03  0.26114264657E+03  0.00000000000E+00 0.  1.
          2   -1    0    0  501    0  0.00000000000E+00 -0.00000000000E+00 -0.13607916962E+04  0.13607916962E+04  0.00000000000E+00 0. -1.
         23    2    1    2    0    0 -0.82097220276E+02  0.41672227225E+03  0.92916658317E+01  0.43443827282E+03  0.90845319453E+02 0.  0.
         11    1    3    3    0    0 -0.30685901918E+02  0.26374039871E+02  0.42676806638E+01  0.40686946971E+02  0.00000000000E+00 0. -1.
        -11    1    3    3    0    0 -0.51411318359E+02  0.39034823238E+03  0.50239851679E+01  0.39375132584E+03  0.00000000000E+00 0.  1.
         22    1    1    2    0    0  0.82097220276E+02 -0.41672227225E+03 -0.11089407155E+04  0.11874960700E+04  0.00000000000E+00 0. -1.
<mgrwt>
<rscale>  0 0.11922428E+04</rscale>
<asrwt>0</asrwt>
<pdfrwt beam="1">  1        2 0.20935257E+00 0.11922428E+04</pdfrwt>
<pdfrwt beam="2">  1       -2 0.40175792E-01 0.11922428E+04</pdfrwt>
<totfact> 0.88175065E+01</totfact>
</mgrwt>
</event>
<event>
 6    1  0.9364335E-007  0.6013451E+04  0.7818608E-02  0.7688736E-01
         -2   -1    0    0    0  501 -0.00000000000E+00  0.00000000000E+00  0.20575845160E+04  0.20575845160E+04  0.00000000000E+00 0.  1.
          2   -1    0    0  501    0  0.00000000000E+00 -0.00000000000E+00 -0.43936943262E+04  0.43936943262E+04  0.00000000000E+00 0. -1.
         23    2    1    2    0    0 -0.72321462928E+03  0.28653416023E+04 -0.57787434517E+03  0.30125852169E+04  0.92244418251E+02 0.  0.
         13    1    3    3    0    0 -0.59282544826E+03  0.24489876622E+04 -0.51455270683E+03  0.25717206438E+04  0.00000000000E+00 0.  1.
        -13    1    3    3    0    0 -0.13038918102E+03  0.41635394010E+03 -0.63321638345E+02  0.44086457314E+03  0.00000000000E+00 0. -1.
         22    1    1    2    0    0  0.72321462928E+03 -0.28653416023E+04 -0.17582354650E+04  0.34386936252E+04  0.00000000000E+00 0. -1.
<mgrwt>
<rscale>  0 0.60134507E+04</rscale>
<asrwt>0</asrwt>
<pdfrwt beam="1">  1        2 0.67595296E+00 0.60134507E+04</pdfrwt>
<pdfrwt beam="2">  1       -2 0.31655147E+00 0.60134507E+04</pdfrwt>
<totfact> 0.26041067E-03</totfact>
</mgrwt>
</event>
<event>
 6    1  0.9364335E-007  0.9724622E+03  0.7818608E-02  0.9339274E-01
          1   -1    0    0  501    0  0.00000000000E+00  0.00000000000E+00  0.13740516844E+04  0.13740516844E+04  0.00000000000E+00 0. -1.
         -1   -1    0    0    0  501 -0.00000000000E+00 -0.00000000000E+00 -0.17206099549E+03  0.17206099549E+03  0.00000000000E+00 0.  1.
         23    2    1    2    0    0  0.16707155432E+03 -0.36413146893E+02  0.13226888556E+04  0.13368117746E+04  0.91220010586E+02 0.  0.
         13    1    3    3    0    0  0.75635540872E+02  0.25299470566E+02  0.43009929004E+03  0.43743136324E+03  0.00000000000E+00 0.  1.
        -13    1    3    3    0    0  0.91436013450E+02 -0.61712617460E+02  0.89258956560E+03  0.89938041136E+03  0.00000000000E+00 0. -1.
         22    1    1    2    0    0 -0.16707155432E+03  0.36413146893E+02 -0.12069816669E+03  0.20930090533E+03  0.00000000000E+00 0.  1.
<mgrwt>
<rscale>  0 0.97246224E+03</rscale>
<asrwt>0</asrwt>
<pdfrwt beam="1">  1        1 0.21139256E+00 0.97246224E+03</pdfrwt>
<pdfrwt beam="2">  1       -1 0.26470923E-01 0.97246224E+03</pdfrwt>
<totfact> 0.10207257E+02</totfact>
</mgrwt>
</event>
<event>
 6    1  0.9364335E-007  0.1836435E+04  0.7818608E-02  0.8687160E-01
          1   -1    0    0  501    0  0.00000000000E+00  0.00000000000E+00  0.63082788264E+03  0.63082788264E+03  0.00000000000E+00 0. -1.
         -1   -1    0    0    0  501 -0.00000000000E+00 -0.00000000000E+00 -0.13365352784E+04  0.13365352784E+04  0.00000000000E+00 0.  1.
         23    2    1    2    0    0  0.75555867087E+03  0.42062779484E+03 -0.30176435143E+02  0.87003061088E+03  0.90807487102E+02 0.  0.
         11    1    3    3    0    0  0.32315798756E+03  0.22968884035E+03 -0.13689477383E+01  0.39647184304E+03  0.00000000000E+00 0. -1.
        -11    1    3    3    0    0  0.43240068331E+03  0.19093895449E+03 -0.28807487405E+02  0.47355876784E+03  0.00000000000E+00 0.  1.
         22    1    1    2    0    0 -0.75555867087E+03 -0.42062779484E+03 -0.67553096064E+03  0.10973325502E+04  0.00000000000E+00 0. -1.
<mgrwt>
<rscale>  0 0.18364354E+04</rscale>
<asrwt>0</asrwt>
<pdfrwt beam="1">  1        1 0.97050444E-01 0.18364354E+04</pdfrwt>
<pdfrwt beam="2">  1       -1 0.20562081E+00 0.18364354E+04</pdfrwt>
<totfact> 0.41227614E+00</totfact>
</mgrwt>
</event>
<event>
 6    1  0.9364335E-007  0.5529640E+04  0.7818608E-02  0.7751624E-01
          2   -1    0    0  501    0  0.00000000000E+00  0.00000000000E+00  0.21921828371E+04  0.21921828371E+04  0.00000000000E+00 0. -1.
         -2   -1    0    0    0  501 -0.00000000000E+00 -0.00000000000E+00 -0.34870406266E+04  0.34870406266E+04  0.00000000000E+00 0.  1.
         23    2    1    2    0    0 -0.20550950282E+04 -0.64898868676E+03  0.11299641622E+04  0.24350959402E+04  0.90946904918E+02 0.  0.
         13    1    3    3    0    0 -0.12308863519E+04 -0.35450432907E+03  0.63675313773E+03  0.14304576502E+04  0.00000000000E+00 0. -1.
        -13    1    3    3    0    0 -0.82420867638E+03 -0.29448435768E+03  0.49321102451E+03  0.10046382900E+04  0.00000000000E+00 0.  1.
         22    1    1    2    0    0  0.20550950282E+04  0.64898868676E+03 -0.24248219518E+04  0.32441275235E+04  0.00000000000E+00 0.  1.
<mgrwt>
<rscale>  0 0.55296404E+04</rscale>
<asrwt>0</asrwt>
<pdfrwt beam="1">  1        2 0.33725890E+00 0.55296404E+04</pdfrwt>
<pdfrwt beam="2">  1       -2 0.53646778E+00 0.55296404E+04</pdfrwt>
<totfact> 0.37193447E-03</totfact>
</mgrwt>
</event>
<event>
 6    1  0.9364335E-007  0.1763721E+04  0.7818608E-02  0.8725834E-01
          2   -1    0    0  501    0  0.00000000000E+00  0.00000000000E+00  0.16994782159E+04  0.16994782159E+04  0.00000000000E+00 0. -1.
         -2   -1    0    0    0  501 -0.00000000000E+00 -0.00000000000E+00 -0.45759801927E+03  0.45759801927E+03  0.00000000000E+00 0.  1.
         23    2    1    2    0    0  0.60526887248E+03 -0.22448370901E+03  0.13531757891E+04  0.15019960473E+04  0.90355223609E+02 0.  0.
         11    1    3    3    0    0  0.33744107650E+03 -0.94457229503E+02  0.65116596056E+03  0.73946315426E+03  0.00000000000E+00 0.  1.
        -11    1    3    3    0    0  0.26782779598E+03 -0.13002647951E+03  0.70200982854E+03  0.76253289309E+03  0.00000000000E+00 0. -1.
         22    1    1    2    0    0 -0.60526887248E+03  0.22448370901E+03 -0.11129559245E+03  0.65508018784E+03  0.00000000000E+00 0.  1.
<mgrwt>
<rscale>  0 0.17637209E+04</rscale>
<asrwt>0</asrwt>
<pdfrwt beam="1">  1        2 0.26145818E+00 0.17637209E+04</pdfrwt>
<pdfrwt beam="2">  1       -2 0.70399696E-01 0.17637209E+04</pdfrwt>
<totfact> 0.17056234E+01</totfact>
</mgrwt>
</event>
<event>
 6    1  0.9364335E-007  0.2131076E+04  0.7818608E-02  0.8547676E-01
         -1   -1    0    0    0  501 -0.00000000000E+00  0.00000000000E+00  0.10973014664E+04  0.10973014664E+04  0.00000000000E+00 0.  1.
          1   -1    0    0  501    0  0.00000000000E+00 -0.00000000000E+00 -0.10346943353E+04  0.10346943353E+04  0.00000000000E+00 0. -1.
         23    2    1    2    0    0 -0.50291738147E+03  0.89971172232E+03  0.29371490099E+03  0.10756729926E+04  0.91634426321E+02 0.  0.
         13    1    3    3    0    0 -0.21220953107E+03  0.46192839938E+03  0.12149279966E+03  0.52265785329E+03  0.00000000000E+00 0. -1.
        -13    1    3    3    0    0 -0.29070785040E+03  0.43778332293E+03  0.17222210133E+03  0.55301513931E+03  0.00000000000E+00 0.  1.
         22    1    1    2    0    0  0.50291738147E+03 -0.89971172232E+03 -0.23110776991E+03  0.10563228092E+04  0.00000000000E+00 0. -1.
<mgrwt>
<rscale>  0 0.21310764E+04</rscale>
<asrwt>0</asrwt>
<pdfrwt beam="1">  1        1 0.15918375E+00 0.21310764E+04</pdfrwt>
<pdfrwt beam="2">  1       -1 0.16881561E+00 0.21310764E+04</pdfrwt>
<totfact> 0.32745911E+00</totfact>
</mgrwt>
</event>
<event>
 6    1  0.9364335E-007  0.1533189E+04  0.7818608E-02  0.8862678E-01
          2   -1    0    0  501    0  0.00000000000E+00  0.00000000000E+00  0.21127528890E+04  0.21127528890E+04  0.00000000000E+00 0. -1.
         -2   -1    0    0    0  501 -0.00000000000E+00 -0.00000000000E+00 -0.27815214656E+03  0.27815214656E+03  0.00000000000E+00 0.  1.
         23    2    1    2    0    0  0.31574845029E+03 -0.66362385646E+03  0.12462267738E+04  0.14494818397E+04  0.88446170968E+02 0.  0.
         11    1    3    3    0    0  0.95511815126E+02 -0.20515017967E+03  0.30717897025E+03  0.38153377676E+03  0.00000000000E+00 0.  1.
        -11    1    3    3    0    0  0.22023663517E+03 -0.45847367679E+03  0.93904780355E+03  0.10679480629E+04  0.00000000000E+00 0. -1.
         22    1    1    2    0    0 -0.31574845029E+03  0.66362385646E+03  0.58837396866E+03  0.94142319587E+03  0.00000000000E+00 0.  1.
<mgrwt>
<rscale>  0 0.15331885E+04</rscale>
<asrwt>0</asrwt>
<pdfrwt beam="1">  1        2 0.32503889E+00 0.15331885E+04</pdfrwt>
<pdfrwt beam="2">  1       -2 0.42792639E-01 0.15331885E+04</pdfrwt>
<totfact> 0.28859427E+01</totfact>
</mgrwt>
</event>
<event>
 6    1  0.9364335E-007  0.4572457E+04  0.7818608E-02  0.7898073E-01
         -2   -1    0    0    0  501 -0.00000000000E+00  0.00000000000E+00  0.45046329262E+04  0.45046329262E+04  0.00000000000E+00 0.  1.
          2   -1    0    0  501    0  0.00000000000E+00 -0.00000000000E+00 -0.11603253405E+04  0.11603253405E+04  0.00000000000E+00 0. -1.
         23    2    1    2    0    0 -0.10149843808E+04  0.12702610110E+04  0.36624226744E+04  0.40081681355E+04  0.91190058726E+02 0.  0.
         11    1    3    3    0    0 -0.50589813636E+03  0.66683368663E+03  0.17850809453E+04  0.19715765446E+04  0.00000000000E+00 0. -1.
        -11    1    3    3    0    0 -0.50908624440E+03  0.60342732434E+03  0.18773417292E+04  0.20365915909E+04  0.00000000000E+00 0.  1.
         22    1    1    2    0    0  0.10149843808E+04 -0.12702610110E+04 -0.31811508869E+03  0.16567901312E+04  0.00000000000E+00 0. -1.
<mgrwt>
<rscale>  0 0.45724566E+04</rscale>
<asrwt>0</asrwt>
<pdfrwt beam="1">  1        2 0.17851159E+00 0.45724566E+04</pdfrwt>
<pdfrwt beam="2">  1       -2 0.69302044E+00 0.45724566E+04</pdfrwt>
<totfact> 0.36471514E-03</totfact>
</mgrwt>
</event>
<event>
 6    1  0.9364335E-007  0.8078487E+03  0.7818608E-02  0.9548725E-01
         -1   -1    0    0    0  501 -0.00000000000E+00  0.00000000000E+00  0.49594930580E+03  0.49594930580E+03  0.00000000000E+00 0.  1.
          1   -1    0    0  501    0  0.00000000000E+00 -0.00000000000E+00 -0.32897489283E+03  0.32897489283E+03  0.00000000000E+00 0. -1.
         23    2    1    2    0    0  0.23235581000E+03  0.30463902311E+03 -0.28491269000E+02  0.39480678481E+03  0.90920229227E+02 0.  0.
         13    1    3    3    0    0  0.89885329444E+02  0.17840384845E+03  0.12257950142E+02  0.20014385559E+03  0.00000000000E+00 0.  1.
        -13    1    3    3    0    0  0.14247048055E+03  0.12623517467E+03 -0.40749219142E+02  0.19466292922E+03  0.00000000000E+00 0. -1.
         22    1    1    2    0    0 -0.23235581000E+03 -0.30463902311E+03  0.19546568197E+03  0.43011741382E+03  0.00000000000E+00 0.  1.
<mgrwt>
<rscale>  0 0.80784867E+03</rscale>
<asrwt>0</asrwt>
<pdfrwt beam="1">  1        1 0.50611522E-01 0.80784867E+03</pdfrwt>
<pdfrwt beam="2">  1       -1 0.76299893E-01 0.80784867E+03</pdfrwt>
<totfact> 0.13563918E+02</totfact>
</mgrwt>
</event>
<event>
 6    1  0.9364335E-007  0.4358389E+04  0.7818608E-02  0.7935909E-01
          2   -1    0    0  501    0  0.00000000000E+00  0.00000000000E+00  0.25806324420E+04  0.25806324420E+04  0.00000000000E+00 0. -1.
         -2   -1    0    0    0  501 -0.00000000000E+00 -0.00000000000E+00 -0.18402035938E+04  0.18402035938E+04  0.00000000000E+00 0.  1.
         23    2    1    2    0    0  0.18536709934E+04 -0.98363408900E+03 -0.22209730856E+03  0.21121375334E+04  0.90363558783E+02 0.  0.
         11    1    3    3    0    0  0.12109991730E+04 -0.59407874271E+03 -0.14886854928E+03  0.13570594661E+04  0.00000000000E+00 0.  1.
        -11    1    3    3    0    0  0.64267182042E+03 -0.38955534630E+03 -0.73228759281E+02  0.75507806733E+03  0.00000000000E+00 0. -1.
         22    1    1    2    0    0 -0.18536709934E+04  0.98363408900E+03  0.96252615677E+03  0.23086985025E+04  0.00000000000E+00 0.  1.
<mgrwt>
<rscale>  0 0.43583892E+04</rscale>
<asrwt>0</asrwt>
<pdfrwt beam="1">  1        2 0.39702037E+00 0.43583892E+04</pdfrwt>
<pdfrwt beam="2">  1       -2 0.28310825E+00 0.43583892E+04</pdfrwt>
<totfact> 0.96517176E-02</totfact>
</mgrwt>
</event>
<event>
 6    1  0.9364335E-007  0.1688896E+04  0.7818608E-02  0.8767723E-01
          2   -1    0    0  501    0  0.00000000000E+00  0.00000000000E+00  0.13181079351E+04  0.13181079351E+04  0.00000000000E+00 0. -1.
         -2   -1    0    0    0  501 -0.00000000000E+00 -0.00000000000E+00 -0.54099727049E+03  0.54099727049E+03  0.00000000000E+00 0.  1.
         23    2    1    2    0    0  0.74780470137E+03 -0.31406977576E+03  0.14211362648E+03  0.82902126051E+03  0.96063895948E+02 0.  0.
         13    1    3    3    0    0  0.17260886871E+03 -0.97399290114E+02  0.17023386633E+00  0.19819301767E+03  0.00000000000E+00 0. -1.
        -13    1    3    3    0    0  0.57519583266E+03 -0.21667048565E+03  0.14194339261E+03  0.63082824284E+03  0.00000000000E+00 0.  1.
         22    1    1    2    0    0 -0.74780470137E+03  0.31406977576E+03  0.63499703809E+03  0.10300839450E+04  0.00000000000E+00 0. -1.
<mgrwt>
<rscale>  0 0.16888964E+04</rscale>
<asrwt>0</asrwt>
<pdfrwt beam="1">  1        2 0.20278584E+00 0.16888964E+04</pdfrwt>
<pdfrwt beam="2">  1       -2 0.83230350E-01 0.16888964E+04</pdfrwt>
<totfact> 0.19423841E+01</totfact>
</mgrwt>
</event>
<event>
 6    1  0.9364335E-007  0.2653003E+04  0.7818608E-02  0.8350417E-01
         -1   -1    0    0    0  501 -0.00000000000E+00  0.00000000000E+00  0.15072954550E+04  0.15072954550E+04  0.00000000000E+00 0.  1.
          1   -1    0    0  501    0  0.00000000000E+00 -0.00000000000E+00 -0.11673932376E+04  0.11673932376E+04  0.00000000000E+00 0. -1.
         23    2    1    2    0    0  0.47027636650E+03 -0.15955684803E+03  0.14084924477E+04  0.14963409813E+04  0.92558676673E+02 0.  0.
         13    1    3    3    0    0  0.87559568465E+02 -0.33010735194E+02  0.38792467142E+03  0.39905129666E+03  0.00000000000E+00 0. -1.
        -13    1    3    3    0    0  0.38271679804E+03 -0.12654611284E+03  0.10205677762E+04  0.10972896847E+04  0.00000000000E+00 0.  1.
         22    1    1    2    0    0 -0.47027636650E+03  0.15955684803E+03 -0.10685902303E+04  0.11783477113E+04  0.00000000000E+00 0. -1.
<mgrwt>
<rscale>  0 0.26530032E+04</rscale>
<asrwt>0</asrwt>
<pdfrwt beam="1">  1        1 0.17959896E+00 0.26530032E+04</pdfrwt>
<pdfrwt beam="2">  1       -1 0.23189161E+00 0.26530032E+04</pdfrwt>
<totfact> 0.90786445E-01</totfact>
</mgrwt>
</event>
<event>
 6    1  0.9364335E-007  0.3474084E+04  0.7818608E-02  0.8119959E-01
         -1   -1    0    0    0  501 -0.00000000000E+00  0.00000000000E+00  0.26033202867E+04  0.26033202867E+04  0.00000000000E+00 0.  1.
          1   -1    0    0  501    0  0.00000000000E+00 -0.00000000000E+00 -0.11590258766E+04  0.11590258766E+04  0.00000000000E+00 0. -1.
         23    2    1    2    0    0 -0.88274668681E+03  0.34256389640E+03  0.22982240228E+04  0.24872824317E+04  0.90269042642E+02 0.  0.
         13    1    3    3    0    0 -0.65438052014E+03  0.28617097896E+03  0.16618745886E+04  0.18088490380E+04  0.00000000000E+00 0. -1.
        -13    1    3    3    0    0 -0.22836616667E+03  0.56392917438E+02  0.63634943424E+03  0.67843339369E+03  0.00000000000E+00 0.  1.
         22    1    1    2    0    0  0.88274668681E+03 -0.34256389640E+03 -0.85392961271E+03  0.12750637316E+04  0.00000000000E+00 0. -1.
<mgrwt>
<rscale>  0 0.34740844E+04</rscale>
<asrwt>0</asrwt>
<pdfrwt beam="1">  1        1 0.17831167E+00 0.34740844E+04</pdfrwt>
<pdfrwt beam="2">  1       -1 0.40051081E+00 0.34740844E+04</pdfrwt>
<totfact> 0.66401697E-02</totfact>
</mgrwt>
</event>
<event>
 6    1  0.9364335E-007  0.2323626E+04  0.7818608E-02  0.8468664E-01
          2   -1    0    0  501    0  0.00000000000E+00  0.00000000000E+00  0.29394889994E+04  0.29394889994E+04  0.00000000000E+00 0. -1.
         -2   -1    0    0    0  501 -0.00000000000E+00 -0.00000000000E+00 -0.45919867381E+03  0.45919867381E+03  0.00000000000E+00 0.  1.
         23    2    1    2    0    0 -0.86276285167E+03  0.15107229271E+03  0.12995044021E+03  0.89044523025E+03  0.93930907175E+02 0.  0.
         13    1    3    3    0    0 -0.71012540491E+03  0.14699790123E+03  0.13514227171E+03  0.73766517287E+03  0.00000000000E+00 0. -1.
        -13    1    3    3    0    0 -0.15263744676E+03  0.40743914817E+01 -0.51918314975E+01  0.15278005738E+03  0.00000000000E+00 0.  1.
         22    1    1    2    0    0  0.86276285167E+03 -0.15107229271E+03  0.23503398854E+04  0.25082424429E+04  0.00000000000E+00 0. -1.
<mgrwt>
<rscale>  0 0.23236260E+04</rscale>
<asrwt>0</asrwt>
<pdfrwt beam="1">  1        2 0.45222907E+00 0.23236260E+04</pdfrwt>
<pdfrwt beam="2">  1       -2 0.70645952E-01 0.23236260E+04</pdfrwt>
<totfact> 0.31329253E+00</totfact>
</mgrwt>
</event>
<event>
 6    1  0.9364335E-007  0.1996241E+04  0.7818608E-02  0.8608380E-01
         -1   -1    0    0    0  501 -0.00000000000E+00  0.00000000000E+00  0.53894649328E+03  0.53894649328E+03  0.00000000000E+00 0.  1.
          1   -1    0    0  501    0  0.00000000000E+00 -0.00000000000E+00 -0.18485029091E+04  0.18485029091E+04  0.00000000000E+00 0. -1.
         23    2    1    2    0    0  0.67899794542E+03  0.10600527663E+03  0.20638766910E+03  0.72300901681E+03  0.88717754008E+02 0.  0.
         11    1    3    3    0    0  0.40450592800E+03  0.28824779588E+02  0.14978136935E+03  0.43230819135E+03  0.00000000000E+00 0.  1.
        -11    1    3    3    0    0  0.27449201742E+03  0.77180497046E+02  0.56606299744E+02  0.29070082545E+03  0.00000000000E+00 0. -1.
         22    1    1    2    0    0 -0.67899794542E+03 -0.10600527663E+03 -0.15159440849E+04  0.16644403856E+04  0.00000000000E+00 0. -1.
<mgrwt>
<rscale>  0 0.19962406E+04</rscale>
<asrwt>0</asrwt>
<pdfrwt beam="1">  1        1 0.28438506E+00 0.19962406E+04</pdfrwt>
<pdfrwt beam="2">  1       -1 0.82914845E-01 0.19962406E+04</pdfrwt>
<totfact> 0.50618296E+00</totfact>
</mgrwt>
</event>
<event>
 6    1  0.9364335E-007  0.6390907E+03  0.7818608E-02  0.9827468E-01
          1   -1    0    0  501    0  0.00000000000E+00  0.00000000000E+00  0.34164239081E+03  0.34164239081E+03  0.00000000000E+00 0. -1.
         -1   -1    0    0    0  501 -0.00000000000E+00 -0.00000000000E+00 -0.29887752626E+03  0.29887752626E+03  0.00000000000E+00 0.  1.
         23    2    1    2    0    0 -0.31105557676E+03 -0.11357503704E+02 -0.11695000952E+02  0.32452871201E+03  0.91090873002E+02 0.  0.
         13    1    3    3    0    0 -0.20823638107E+03 -0.35447012411E+02 -0.40473086919E+02  0.21507429380E+03  0.00000000000E+00 0. -1.
        -13    1    3    3    0    0 -0.10281919569E+03  0.24089508707E+02  0.28778085967E+02  0.10945441821E+03  0.00000000000E+00 0.  1.
         22    1    1    2    0    0  0.31105557676E+03  0.11357503704E+02  0.54459865493E+02  0.31599120506E+03  0.00000000000E+00 0. -1.
<mgrwt>
<rscale>  0 0.63909071E+03</rscale>
<asrwt>0</asrwt>
<pdfrwt beam="1">  1        1 0.52560368E-01 0.63909071E+03</pdfrwt>
<pdfrwt beam="2">  1       -1 0.45981158E-01 0.63909071E+03</pdfrwt>
<totfact> 0.35237354E+02</totfact>
</mgrwt>
</event>
<event>
 6    1  0.1194254E-006  0.1537404E+04  0.7818608E-02  0.8859954E-01
          2   -1    0    0  501    0  0.00000000000E+00  0.00000000000E+00  0.18322737791E+04  0.18322737791E+04  0.00000000000E+00 0. -1.
         -2   -1    0    0    0  501 -0.00000000000E+00 -0.00000000000E+00 -0.32249689682E+03  0.32249689682E+03  0.00000000000E+00 0.  1.
         23    2    1    2    0    0 -0.33227284382E+03  0.67301428239E+03  0.53727741863E+03  0.92631283219E+03  0.77685078778E+02 0.  0.
         13    1    3    3    0    0 -0.21457366260E+03  0.38283685717E+03  0.27558518372E+03  0.51822110086E+03  0.00000000000E+00 0. -1.
        -13    1    3    3    0    0 -0.11769918122E+03  0.29017742522E+03  0.26169223491E+03  0.40809173133E+03  0.00000000000E+00 0.  1.
         22    1    1    2    0    0  0.33227284382E+03 -0.67301428239E+03  0.97249946369E+03  0.12284578438E+04  0.00000000000E+00 0.  1.
<mgrwt>
<rscale>  0 0.15374038E+04</rscale>
<asrwt>0</asrwt>
<pdfrwt beam="1">  1        2 0.28188827E+00 0.15374038E+04</pdfrwt>
<pdfrwt beam="2">  1       -2 0.49614908E-01 0.15374038E+04</pdfrwt>
<totfact> 0.30669864E+01</totfact>
</mgrwt>
</event>
<event>
 6    1  0.9364335E-007  0.2427878E+04  0.7818608E-02  0.8429140E-01
          2   -1    0    0  501    0  0.00000000000E+00  0.00000000000E+00  0.12126431027E+04  0.12126431027E+04  0.00000000000E+00 0. -1.
         -2   -1    0    0    0  501 -0.00000000000E+00 -0.00000000000E+00 -0.12152362032E+04  0.12152362032E+04  0.00000000000E+00 0.  1.
         23    2    1    2    0    0  0.10741295365E+04  0.55272162838E+03  0.11016215491E+03  0.12146319250E+04  0.62765860868E+02 0.  0.
         11    1    3    3    0    0  0.42455321864E+03  0.19358731531E+03  0.21371056610E+02  0.46709550005E+03  0.00000000000E+00 0. -1.
        -11    1    3    3    0    0  0.64957631786E+03  0.35913431307E+03  0.88791098300E+02  0.74753642499E+03  0.00000000000E+00 0.  1.
         22    1    1    2    0    0 -0.10741295365E+04 -0.55272162838E+03 -0.11275525543E+03  0.12132473809E+04  0.00000000000E+00 0.  1.
<mgrwt>
<rscale>  0 0.24278779E+04</rscale>
<asrwt>0</asrwt>
<pdfrwt beam="1">  1        2 0.18656048E+00 0.24278779E+04</pdfrwt>
<pdfrwt beam="2">  1       -2 0.18695942E+00 0.24278779E+04</pdfrwt>
<totfact> 0.27137068E+00</totfact>
</mgrwt>
</event>
<event>
 6    1  0.9364335E-007  0.2784621E+04  0.7818608E-02  0.8308059E-01
          2   -1    0    0  501    0  0.00000000000E+00  0.00000000000E+00  0.13166534758E+04  0.13166534758E+04  0.00000000000E+00 0. -1.
         -2   -1    0    0    0  501 -0.00000000000E+00 -0.00000000000E+00 -0.14723144971E+04  0.14723144971E+04  0.00000000000E+00 0.  1.
         23    2    1    2    0    0  0.11224699066E+04 -0.81892435253E+03 -0.13967582690E+03  0.13994244102E+04  0.91123855308E+02 0.  0.
         13    1    3    3    0    0  0.67252748700E+03 -0.46543057822E+03 -0.12228774199E+03  0.82696622407E+03  0.00000000000E+00 0.  1.
        -13    1    3    3    0    0  0.44994241955E+03 -0.35349377431E+03 -0.17388084914E+02  0.57245818615E+03  0.00000000000E+00 0. -1.
         22    1    1    2    0    0 -0.11224699066E+04  0.81892435253E+03 -0.15985194344E+02  0.13895435627E+04  0.00000000000E+00 0. -1.
<mgrwt>
<rscale>  0 0.27846206E+04</rscale>
<asrwt>0</asrwt>
<pdfrwt beam="1">  1        2 0.20256207E+00 0.27846206E+04</pdfrwt>
<pdfrwt beam="2">  1       -2 0.22650992E+00 0.27846206E+04</pdfrwt>
<totfact> 0.12664837E+00</totfact>
</mgrwt>
</event>
<event>
 6    1  0.9364335E-007  0.2403633E+04  0.7818608E-02  0.8438145E-01
         -2   -1    0    0    0  501 -0.00000000000E+00  0.00000000000E+00  0.12452202694E+04  0.12452202694E+04  0.00000000000E+00 0.  1.
          2   -1    0    0  501    0  0.00000000000E+00 -0.00000000000E+00 -0.11599255082E+04  0.11599255082E+04  0.00000000000E+00 0. -1.
         23    2    1    2    0    0 -0.83206319692E+03  0.16460887199E+03  0.89234520952E+03  0.12343530245E+04  0.89006582701E+02 0.  0.
         11    1    3    3    0    0 -0.10604869908E+03  0.49872023827E+02  0.10681759754E+03  0.15856716079E+03  0.00000000000E+00 0. -1.
        -11    1    3    3    0    0 -0.72601449784E+03  0.11473684816E+03  0.78552761198E+03  0.10757858637E+04  0.00000000000E+00 0.  1.
         22    1    1    2    0    0  0.83206319692E+03 -0.16460887199E+03 -0.80705044831E+03  0.11707927530E+04  0.00000000000E+00 0. -1.
<mgrwt>
<rscale>  0 0.24036329E+04</rscale>
<asrwt>0</asrwt>
<pdfrwt beam="1">  1        2 0.17845008E+00 0.24036329E+04</pdfrwt>
<pdfrwt beam="2">  1       -2 0.19157235E+00 0.24036329E+04</pdfrwt>
<totfact> 0.27229528E+00</totfact>
</mgrwt>
</event>
<event>
 6    1  0.9364335E-007  0.2304722E+04  0.7818608E-02  0.8476062E-01
          2   -1    0    0  501    0  0.00000000000E+00  0.00000000000E+00  0.93056840503E+03  0.93056840503E+03  0.00000000000E+00 0. -1.
         -2   -1    0    0    0  501 -0.00000000000E+00 -0.00000000000E+00 -0.14270158246E+04  0.14270158246E+04  0.00000000000E+00 0.  1.
         23    2    1    2    0    0  0.65405963155E+03 -0.48634669036E+03  0.58186713811E+03  0.10058855242E+04  0.94388646538E+02 0.  0.
         13    1    3    3    0    0  0.28074842784E+03 -0.16834573351E+03  0.19289867459E+03  0.37996034580E+03  0.00000000000E+00 0.  1.
        -13    1    3    3    0    0  0.37331120371E+03 -0.31800095685E+03  0.38896846352E+03  0.62592517843E+03  0.00000000000E+00 0. -1.
         22    1    1    2    0    0 -0.65405963155E+03  0.48634669036E+03 -0.10783145577E+04  0.13516987054E+04  0.00000000000E+00 0.  1.
<mgrwt>
<rscale>  0 0.23047220E+04</rscale>
<asrwt>0</asrwt>
<pdfrwt beam="1">  1        2 0.14316437E+00 0.23047220E+04</pdfrwt>
<pdfrwt beam="2">  1       -2 0.21954090E+00 0.23047220E+04</pdfrwt>
<totfact> 0.25212070E+00</totfact>
</mgrwt>
</event>
<event>
 6    1  0.9364335E-007  0.5963494E+04  0.7818608E-02  0.7694945E-01
          1   -1    0    0  501    0  0.00000000000E+00  0.00000000000E+00  0.23419803351E+04  0.23419803351E+04  0.00000000000E+00 0. -1.
         -1   -1    0    0    0  501 -0.00000000000E+00 -0.00000000000E+00 -0.37962814380E+04  0.37962814380E+04  0.00000000000E+00 0.  1.
         23    2    1    2    0    0  0.23597702992E+04  0.13156776594E+04 -0.20240666687E+04  0.33770742807E+04  0.90891415511E+02 0.  0.
         11    1    3    3    0    0  0.19962109206E+04  0.11274593152E+04 -0.16791771001E+04  0.28417702723E+04  0.00000000000E+00 0. -1.
        -11    1    3    3    0    0  0.36355937855E+03  0.18821834423E+03 -0.34488956868E+03  0.53530400841E+03  0.00000000000E+00 0.  1.
         22    1    1    2    0    0 -0.23597702992E+04 -0.13156776594E+04  0.56976556579E+03  0.27611874924E+04  0.00000000000E+00 0. -1.
<mgrwt>
<rscale>  0 0.59634944E+04</rscale>
<asrwt>0</asrwt>
<pdfrwt beam="1">  1        1 0.36030467E+00 0.59634944E+04</pdfrwt>
<pdfrwt beam="2">  1       -1 0.58404329E+00 0.59634944E+04</pdfrwt>
<totfact> 0.61146182E-04</totfact>
</mgrwt>
</event>
<event>
 6    1  0.9364335E-007  0.2455808E+04  0.7818608E-02  0.8418900E-01
         -2   -1    0    0    0  501 -0.00000000000E+00  0.00000000000E+00  0.58261396722E+03  0.58261396722E+03  0.00000000000E+00 0.  1.
          2   -1    0    0  501    0  0.00000000000E+00 -0.00000000000E+00 -0.25879030643E+04  0.25879030643E+04  0.00000000000E+00 0. -1.
         23    2    1    2    0    0 -0.54123663033E+03 -0.54558747189E+02  0.41456674620E+03  0.69027187243E+03  0.93251937851E+02 0.  0.
         11    1    3    3    0    0 -0.44681157060E+03 -0.13510478416E+02  0.35863869070E+03  0.57310105838E+03  0.00000000000E+00 0. -1.
        -11    1    3    3    0    0 -0.94425059721E+02 -0.41048268773E+02  0.55928055504E+02  0.11717081405E+03  0.00000000000E+00 0.  1.
         22    1    1    2    0    0  0.54123663033E+03  0.54558747189E+02 -0.24198558433E+04  0.24802451591E+04  0.00000000000E+00 0. -1.
<mgrwt>
<rscale>  0 0.24558082E+04</rscale>
<asrwt>0</asrwt>
<pdfrwt beam="1">  1        2 0.39813893E+00 0.24558082E+04</pdfrwt>
<pdfrwt beam="2">  1       -2 0.89632919E-01 0.24558082E+04</pdfrwt>
<totfact> 0.29536840E+00</totfact>
</mgrwt>
</event>
<event>
 6    1  0.9364335E-007  0.2180408E+04  0.7818608E-02  0.8526627E-01
         -2   -1    0    0    0  501 -0.00000000000E+00  0.00000000000E+00  0.38320055084E+03  0.38320055084E+03  0.00000000000E+00 0.  1.
          2   -1    0    0  501    0  0.00000000000E+00 -0.00000000000E+00 -0.31016261558E+04  0.31016261558E+04  0.00000000000E+00 0. -1.
         23    2    1    2    0    0  0.40457185930E+03 -0.96886999661E+03 -0.18145873662E+04  0.20994346966E+04  0.11185381530E+03 0.  0.
         11    1    3    3    0    0  0.92316228075E+02 -0.29926618595E+03 -0.62510389461E+03  0.69916908904E+03  0.00000000000E+00 0.  1.
        -11    1    3    3    0    0  0.31225563123E+03 -0.66960381066E+03 -0.11894834716E+04  0.14002656075E+04  0.00000000000E+00 0. -1.
         22    1    1    2    0    0 -0.40457185930E+03  0.96886999661E+03 -0.90383823880E+03  0.13853920101E+04  0.00000000000E+00 0.  1.
<mgrwt>
<rscale>  0 0.21804081E+04</rscale>
<asrwt>0</asrwt>
<pdfrwt beam="1">  1        2 0.47717326E+00 0.21804081E+04</pdfrwt>
<pdfrwt beam="2">  1       -2 0.58953931E-01 0.21804081E+04</pdfrwt>
<totfact> 0.37008104E+00</totfact>
</mgrwt>
</event>
<event>
 6    1  0.9364335E-007  0.3746010E+04  0.7818608E-02  0.8057841E-01
          1   -1    0    0  501    0  0.00000000000E+00  0.00000000000E+00  0.21448598320E+04  0.21448598320E+04  0.00000000000E+00 0. -1.
         -1   -1    0    0    0  501 -0.00000000000E+00 -0.00000000000E+00 -0.16356067099E+04  0.16356067099E+04  0.00000000000E+00 0.  1.
         23    2    1    2    0    0 -0.49249379862E+03  0.30834663548E+03 -0.15410154984E+04  0.16494505388E+04  0.91271706319E+02 0.  0.
         11    1    3    3    0    0 -0.23790243981E+03  0.12173591236E+03 -0.59772854071E+03  0.65474927385E+03  0.00000000000E+00 0. -1.
        -11    1    3    3    0    0 -0.25459135881E+03  0.18661072312E+03 -0.94328695770E+03  0.99470126497E+03  0.00000000000E+00 0.  1.
         22    1    1    2    0    0  0.49249379862E+03 -0.30834663548E+03  0.20502686205E+04  0.21310160031E+04  0.00000000000E+00 0. -1.
<mgrwt>
<rscale>  0 0.37460097E+04</rscale>
<asrwt>0</asrwt>
<pdfrwt beam="1">  1        1 0.32997843E+00 0.37460097E+04</pdfrwt>
<pdfrwt beam="2">  1       -1 0.25163180E+00 0.37460097E+04</pdfrwt>
<totfact> 0.12916905E-01</totfact>
</mgrwt>
</event>
<event>
 6    1  0.9364335E-007  0.2541844E+04  0.7818608E-02  0.8388228E-01
         -1   -1    0    0    0  501 -0.00000000000E+00  0.00000000000E+00  0.91412508724E+03  0.91412508724E+03  0.00000000000E+00 0.  1.
          1   -1    0    0  501    0  0.00000000000E+00 -0.00000000000E+00 -0.17669828217E+04  0.17669828217E+04  0.00000000000E+00 0. -1.
         23    2    1    2    0    0  0.11323573751E+04 -0.43751845990E+03 -0.81776085209E+03  0.14666584786E+04  0.93266575238E+02 0.  0.
         11    1    3    3    0    0  0.32685263977E+03 -0.15697857272E+03 -0.28258785838E+03  0.45970731789E+03  0.00000000000E+00 0.  1.
        -11    1    3    3    0    0  0.80550473532E+03 -0.28053988718E+03 -0.53517299371E+03  0.10069511607E+04  0.00000000000E+00 0. -1.
         22    1    1    2    0    0 -0.11323573751E+04  0.43751845990E+03 -0.35096882380E+02  0.12144494303E+04  0.00000000000E+00 0. -1.
<mgrwt>
<rscale>  0 0.25418445E+04</rscale>
<asrwt>0</asrwt>
<pdfrwt beam="1">  1        1 0.27184351E+00 0.25418445E+04</pdfrwt>
<pdfrwt beam="2">  1       -1 0.14063463E+00 0.25418445E+04</pdfrwt>
<totfact> 0.15730279E+00</totfact>
</mgrwt>
</event>
<event>
 6    1  0.9364335E-007  0.1509359E+04  0.7818608E-02  0.8878253E-01
          1   -1    0    0  501    0  0.00000000000E+00  0.00000000000E+00  0.59948545814E+03  0.59948545814E+03  0.00000000000E+00 0. -1.
         -1   -1    0    0    0  501 -0.00000000000E+00 -0.00000000000E+00 -0.95005055843E+03  0.95005055843E+03  0.00000000000E+00 0.  1.
         23    2    1    2    0    0  0.27466398406E+03  0.50105558028E+03 -0.67769755583E+03  0.89111924724E+03  0.91227939513E+02 0.  0.
         11    1    3    3    0    0  0.54404415707E+02  0.18415579266E+03 -0.24585193170E+03  0.31195571599E+03  0.00000000000E+00 0. -1.
        -11    1    3    3    0    0  0.22025956835E+03  0.31689978762E+03 -0.43184562413E+03  0.57916353125E+03  0.00000000000E+00 0.  1.
         22    1    1    2    0    0 -0.27466398406E+03 -0.50105558028E+03  0.32713245554E+03  0.65841676933E+03  0.00000000000E+00 0. -1.
<mgrwt>
<rscale>  0 0.15093595E+04</rscale>
<asrwt>0</asrwt>
<pdfrwt beam="1">  1        1 0.92228531E-01 0.15093595E+04</pdfrwt>
<pdfrwt beam="2">  1       -1 0.14616163E+00 0.15093595E+04</pdfrwt>
<totfact> 0.12399524E+01</totfact>
</mgrwt>
</event>
<event>
 6    1  0.9364335E-007  0.2916304E+04  0.7818608E-02  0.8268043E-01
          2   -1    0    0  501    0  0.00000000000E+00  0.00000000000E+00  0.22277048756E+04  0.22277048756E+04  0.00000000000E+00 0. -1.
         -2   -1    0    0    0  501 -0.00000000000E+00 -0.00000000000E+00 -0.95443853302E+03  0.95443853302E+03  0.00000000000E+00 0.  1.
         23    2    1    2    0    0 -0.54436081543E+03  0.11104583650E+04  0.14771149446E+04  0.19287477288E+04  0.93556207841E+02 0.  0.
         11    1    3    3    0    0 -0.72051321013E+02  0.97257404071E+02  0.17208603932E+03  0.21039011487E+03  0.00000000000E+00 0.  1.
        -11    1    3    3    0    0 -0.47230949442E+03  0.10132009609E+04  0.13050289053E+04  0.17183576139E+04  0.00000000000E+00 0. -1.
         22    1    1    2    0    0  0.54436081543E+03 -0.11104583650E+04 -0.20384860201E+03  0.12533956798E+04  0.00000000000E+00 0.  1.
<mgrwt>
<rscale>  0 0.29163041E+04</rscale>
<asrwt>0</asrwt>
<pdfrwt beam="1">  1        2 0.34272383E+00 0.29163041E+04</pdfrwt>
<pdfrwt beam="2">  1       -2 0.14683670E+00 0.29163041E+04</pdfrwt>
<totfact> 0.13609920E+00</totfact>
</mgrwt>
</event>
<event>
 6    1  0.9364335E-007  0.8067523E+03  0.7818608E-02  0.9550295E-01
          1   -1    0    0  501    0  0.00000000000E+00  0.00000000000E+00  0.17579271993E+03  0.17579271993E+03  0.00000000000E+00 0. -1.
         -1   -1    0    0    0  501 -0.00000000000E+00 -0.00000000000E+00 -0.92559188464E+03  0.92559188464E+03  0.00000000000E+00 0.  1.
         23    2    1    2    0    0  0.11551162792E+03  0.19509238709E+03  0.67234414966E+02  0.25347668151E+03  0.91246840090E+02 0.  0.
         11    1    3    3    0    0  0.31627086444E+02  0.52123836200E+02 -0.22497297887E+02  0.64986885672E+02  0.00000000000E+00 0.  1.
        -11    1    3    3    0    0  0.83884541474E+02  0.14296855089E+03  0.89731712852E+02  0.18848979584E+03  0.00000000000E+00 0. -1.
         22    1    1    2    0    0 -0.11551162792E+03 -0.19509238709E+03 -0.81703357967E+03  0.84790792307E+03  0.00000000000E+00 0.  1.
<mgrwt>
<rscale>  0 0.80675229E+03</rscale>
<asrwt>0</asrwt>
<pdfrwt beam="1">  1        1 0.27045034E-01 0.80675229E+03</pdfrwt>
<pdfrwt beam="2">  1       -1 0.14239875E+00 0.80675229E+03</pdfrwt>
<totfact> 0.71569442E+01</totfact>
</mgrwt>
</event>
<event>
 6    1  0.9364335E-007  0.4752618E+04  0.7818608E-02  0.7867844E-01
         -2   -1    0    0    0  501 -0.00000000000E+00  0.00000000000E+00  0.16291285170E+04  0.16291285170E+04  0.00000000000E+00 0.  1.
          2   -1    0    0  501    0  0.00000000000E+00 -0.00000000000E+00 -0.34661753305E+04  0.34661753305E+04  0.00000000000E+00 0. -1.
         23    2    1    2    0    0  0.53536936399E+03 -0.21831057134E+04 -0.95280215395E+02  0.22516579846E+04  0.91183596082E+02 0.  0.
         11    1    3    3    0    0  0.35804656601E+03 -0.14244568006E+04 -0.10483306021E+03  0.14725027982E+04  0.00000000000E+00 0. -1.
        -11    1    3    3    0    0  0.17732279799E+03 -0.75864891285E+03  0.95528448113E+01  0.77915518640E+03  0.00000000000E+00 0.  1.
         22    1    1    2    0    0 -0.53536936399E+03  0.21831057134E+04 -0.17417665981E+04  0.28436458630E+04  0.00000000000E+00 0. -1.
<mgrwt>
<rscale>  0 0.47526183E+04</rscale>
<asrwt>0</asrwt>
<pdfrwt beam="1">  1        2 0.53325774E+00 0.47526183E+04</pdfrwt>
<pdfrwt beam="2">  1       -2 0.25063516E+00 0.47526183E+04</pdfrwt>
<totfact> 0.40513142E-02</totfact>
</mgrwt>
</event>
<event>
 6    1  0.9364335E-007  0.1109378E+04  0.7818608E-02  0.9196099E-01
         -3   -1    0    0    0  501 -0.00000000000E+00  0.00000000000E+00  0.84740926106E+03  0.84740926106E+03  0.00000000000E+00 0.  1.
          3   -1    0    0  501    0  0.00000000000E+00 -0.00000000000E+00 -0.36308314095E+03  0.36308314095E+03  0.00000000000E+00 0. -1.
         23    2    1    2    0    0  0.39078410378E+03  0.37483928929E+02  0.66531332440E+03  0.77820357632E+03  0.94030451820E+02 0.  0.
         13    1    3    3    0    0  0.81399948696E+02  0.33078955488E+02  0.21067845106E+03  0.22826646422E+03  0.00000000000E+00 0. -1.
        -13    1    3    3    0    0  0.30938415508E+03  0.44049734406E+01  0.45463487334E+03  0.54993711210E+03  0.00000000000E+00 0.  1.
         22    1    1    2    0    0 -0.39078410378E+03 -0.37483928929E+02 -0.18098720429E+03  0.43228882569E+03  0.00000000000E+00 0. -1.
<mgrwt>
<rscale>  0 0.11093782E+04</rscale>
<asrwt>0</asrwt>
<pdfrwt beam="1">  1        3 0.55858945E-01 0.11093782E+04</pdfrwt>
<pdfrwt beam="2">  1       -3 0.13037065E+00 0.11093782E+04</pdfrwt>
<totfact> 0.37810554E+00</totfact>
</mgrwt>
</event>
<event>
 6    1  0.9364335E-007  0.7984159E+03  0.7818608E-02  0.9562313E-01
         -1   -1    0    0    0  501 -0.00000000000E+00  0.00000000000E+00  0.65107703054E+03  0.65107703054E+03  0.00000000000E+00 0.  1.
          1   -1    0    0  501    0  0.00000000000E+00 -0.00000000000E+00 -0.24477441150E+03  0.24477441150E+03  0.00000000000E+00 0. -1.
         23    2    1    2    0    0  0.30494796742E+03  0.24489123127E+03  0.15267317847E+03  0.42970460775E+03  0.91498483676E+02 0.  0.
         11    1    3    3    0    0  0.24800149223E+03  0.14971672733E+03  0.12424546786E+03  0.31520909707E+03  0.00000000000E+00 0.  1.
        -11    1    3    3    0    0  0.56946475186E+02  0.95174503937E+02  0.28427710608E+02  0.11449551068E+03  0.00000000000E+00 0. -1.
         22    1    1    2    0    0 -0.30494796742E+03 -0.24489123127E+03  0.25362944057E+03  0.46614683428E+03  0.00000000000E+00 0.  1.
<mgrwt>
<rscale>  0 0.79841592E+03</rscale>
<asrwt>0</asrwt>
<pdfrwt beam="1">  1        1 0.37657602E-01 0.79841592E+03</pdfrwt>
<pdfrwt beam="2">  1       -1 0.10016570E+00 0.79841592E+03</pdfrwt>
<totfact> 0.10992663E+02</totfact>
</mgrwt>
</event>
<event>
 6    1  0.9364335E-007  0.4465164E+04  0.7818608E-02  0.7916764E-01
         -1   -1    0    0    0  501 -0.00000000000E+00  0.00000000000E+00  0.22984519513E+04  0.22984519513E+04  0.00000000000E+00 0.  1.
          1   -1    0    0  501    0  0.00000000000E+00 -0.00000000000E+00 -0.21685994883E+04  0.21685994883E+04  0.00000000000E+00 0. -1.
         23    2    1    2    0    0  0.11640572655E+04  0.34269585505E+03  0.19386656976E+04  0.22889157496E+04  0.90779156468E+02 0.  0.
         13    1    3    3    0    0  0.64619238683E+02  0.37289420427E+02  0.14476785382E+03  0.16286153132E+03  0.00000000000E+00 0. -1.
        -13    1    3    3    0    0  0.10994380268E+04  0.30540643462E+03  0.17938978438E+04  0.21260542183E+04  0.00000000000E+00 0.  1.
         22    1    1    2    0    0 -0.11640572655E+04 -0.34269585505E+03 -0.18088132346E+04  0.21781356901E+04  0.00000000000E+00 0. -1.
<mgrwt>
<rscale>  0 0.44651637E+04</rscale>
<asrwt>0</asrwt>
<pdfrwt beam="1">  1        1 0.33363069E+00 0.44651637E+04</pdfrwt>
<pdfrwt beam="2">  1       -1 0.35360799E+00 0.44651637E+04</pdfrwt>
<totfact> 0.25356073E-02</totfact>
</mgrwt>
</event>
<event>
 6    1  0.9364335E-007  0.1291491E+04  0.7818608E-02  0.9036340E-01
         -2   -1    0    0    0  501 -0.00000000000E+00  0.00000000000E+00  0.14906396030E+03  0.14906396030E+03  0.00000000000E+00 0.  1.
          2   -1    0    0  501    0  0.00000000000E+00 -0.00000000000E+00 -0.27973727106E+04  0.27973727106E+04  0.00000000000E+00 0. -1.
         23    2    1    2    0    0  0.26286997745E+02  0.32655527624E+03 -0.25917698477E+04  0.26139821594E+04  0.91117679298E+02 0.  0.
         11    1    3    3    0    0  0.45197019475E+02  0.14237272771E+03 -0.92849055922E+03  0.94042941401E+03  0.00000000000E+00 0.  1.
        -11    1    3    3    0    0 -0.18910021731E+02  0.18418254853E+03 -0.16632792885E+04  0.16735527454E+04  0.00000000000E+00 0. -1.
         22    1    1    2    0    0 -0.26286997745E+02 -0.32655527624E+03 -0.56538902548E+02  0.33245451146E+03  0.00000000000E+00 0.  1.
<mgrwt>
<rscale>  0 0.12914913E+04</rscale>
<asrwt>0</asrwt>
<pdfrwt beam="1">  1        2 0.43036499E+00 0.12914913E+04</pdfrwt>
<pdfrwt beam="2">  1       -2 0.22932919E-01 0.12914913E+04</pdfrwt>
<totfact> 0.38485652E+01</totfact>
</mgrwt>
</event>
<event>
 6    1  0.9364335E-007  0.5489360E+04  0.7818608E-02  0.7757155E-01
          1   -1    0    0  501    0  0.00000000000E+00  0.00000000000E+00  0.32886851692E+04  0.32886851692E+04  0.00000000000E+00 0. -1.
         -1   -1    0    0    0  501 -0.00000000000E+00 -0.00000000000E+00 -0.22906625369E+04  0.22906625369E+04  0.00000000000E+00 0.  1.
         23    2    1    2    0    0  0.18544842388E+04 -0.20183494383E+04  0.37011112394E+03  0.27673876940E+04  0.92769380483E+02 0.  0.
         11    1    3    3    0    0  0.66723818834E+03 -0.68080155432E+03  0.96669819708E+02  0.95814540148E+03  0.00000000000E+00 0. -1.
        -11    1    3    3    0    0  0.11872460505E+04 -0.13375478840E+04  0.27344130423E+03  0.18092422925E+04  0.00000000000E+00 0.  1.
         22    1    1    2    0    0 -0.18544842388E+04  0.20183494383E+04  0.62791150837E+03  0.28119600120E+04  0.00000000000E+00 0. -1.
<mgrwt>
<rscale>  0 0.54893599E+04</rscale>
<asrwt>0</asrwt>
<pdfrwt beam="1">  1        1 0.50595157E+00 0.54893599E+04</pdfrwt>
<pdfrwt beam="2">  1       -1 0.35240962E+00 0.54893599E+04</pdfrwt>
<totfact> 0.37885225E-03</totfact>
</mgrwt>
</event>
<event>
 6    1  0.9364335E-007  0.6894946E+03  0.7818608E-02  0.9735368E-01
          2   -1    0    0  501    0  0.00000000000E+00  0.00000000000E+00  0.94309062779E+03  0.94309062779E+03  0.00000000000E+00 0. -1.
         -2   -1    0    0    0  501 -0.00000000000E+00 -0.00000000000E+00 -0.12602255729E+03  0.12602255729E+03  0.00000000000E+00 0.  1.
         23    2    1    2    0    0 -0.94903128115E+02 -0.32377312387E+03  0.46259245751E+03  0.57973746064E+03  0.90929104541E+02 0.  0.
         11    1    3    3    0    0 -0.86699024231E+02 -0.24069899163E+03  0.40231894106E+03  0.47677379932E+03  0.00000000000E+00 0. -1.
        -11    1    3    3    0    0 -0.82041038838E+01 -0.83074132240E+02  0.60273516448E+02  0.10296366132E+03  0.00000000000E+00 0.  1.
         22    1    1    2    0    0  0.94903128115E+02  0.32377312387E+03  0.35447561299E+03  0.48937572444E+03  0.00000000000E+00 0. -1.
<mgrwt>
<rscale>  0 0.68949458E+03</rscale>
<asrwt>0</asrwt>
<pdfrwt beam="1">  1        2 0.14509086E+00 0.68949458E+03</pdfrwt>
<pdfrwt beam="2">  1       -2 0.19388086E-01 0.68949458E+03</pdfrwt>
<totfact> 0.62238583E+02</totfact>
</mgrwt>
</event>
<event>
 6    1  0.9364335E-007  0.1987734E+04  0.7818608E-02  0.8612377E-01
          1   -1    0    0  501    0  0.00000000000E+00  0.00000000000E+00  0.71808518137E+03  0.71808518137E+03  0.00000000000E+00 0. -1.
         -1   -1    0    0    0  501 -0.00000000000E+00 -0.00000000000E+00 -0.13755637090E+04  0.13755637090E+04  0.00000000000E+00 0.  1.
         23    2    1    2    0    0 -0.30962539658E+03 -0.73415167800E+03  0.29301410978E+03  0.85337358777E+03  0.86848369348E+02 0.  0.
         13    1    3    3    0    0 -0.67852743047E+02 -0.18381245039E+03  0.11159964495E+03  0.22548945077E+03  0.00000000000E+00 0.  1.
        -13    1    3    3    0    0 -0.24177265353E+03 -0.55033922761E+03  0.18141446482E+03  0.62788413699E+03  0.00000000000E+00 0. -1.
         22    1    1    2    0    0  0.30962539658E+03  0.73415167800E+03 -0.95049263745E+03  0.12402753026E+04  0.00000000000E+00 0.  1.
<mgrwt>
<rscale>  0 0.19877343E+04</rscale>
<asrwt>0</asrwt>
<pdfrwt beam="1">  1        1 0.11047464E+00 0.19877343E+04</pdfrwt>
<pdfrwt beam="2">  1       -1 0.21162518E+00 0.19877343E+04</pdfrwt>
<totfact> 0.30490544E+00</totfact>
</mgrwt>
</event>
<event>
 6    1  0.9364335E-007  0.1830451E+04  0.7818608E-02  0.8690271E-01
         -2   -1    0    0    0  501 -0.00000000000E+00  0.00000000000E+00  0.35793611869E+03  0.35793611869E+03  0.00000000000E+00 0.  1.
          2   -1    0    0  501    0  0.00000000000E+00 -0.00000000000E+00 -0.23401885336E+04  0.23401885336E+04  0.00000000000E+00 0. -1.
         23    2    1    2    0    0 -0.49033159634E+03  0.56338921485E+03 -0.17681608779E+04  0.19211641205E+04  0.81524267141E+02 0.  0.
         13    1    3    3    0    0 -0.37795954100E+03  0.38634869078E+03 -0.12251157264E+04  0.13390396815E+04  0.00000000000E+00 0.  1.
        -13    1    3    3    0    0 -0.11237205533E+03  0.17704052406E+03 -0.54304515149E+03  0.58212443905E+03  0.00000000000E+00 0. -1.
         22    1    1    2    0    0  0.49033159634E+03 -0.56338921485E+03 -0.21409153710E+03  0.77696053183E+03  0.00000000000E+00 0.  1.
<mgrwt>
<rscale>  0 0.18304513E+04</rscale>
<asrwt>0</asrwt>
<pdfrwt beam="1">  1        2 0.36002900E+00 0.18304513E+04</pdfrwt>
<pdfrwt beam="2">  1       -2 0.55067096E-01 0.18304513E+04</pdfrwt>
<totfact> 0.12568559E+01</totfact>
</mgrwt>
</event>
<event>
 6    1  0.9364335E-007  0.1082167E+04  0.7818608E-02  0.9222749E-01
          2   -1    0    0  501    0  0.00000000000E+00  0.00000000000E+00  0.24043736607E+04  0.24043736607E+04  0.00000000000E+00 0. -1.
         -2   -1    0    0    0  501 -0.00000000000E+00 -0.00000000000E+00 -0.12176620412E+03  0.12176620412E+03  0.00000000000E+00 0.  1.
         23    2    1    2    0    0 -0.43927050321E+03 -0.30762576579E+03  0.10980669210E+04  0.12258597154E+04  0.96896294524E+02 0.  0.
         11    1    3    3    0    0 -0.23838412860E+03 -0.15962758071E+03  0.69398484421E+03  0.75094801504E+03  0.00000000000E+00 0.  1.
        -11    1    3    3    0    0 -0.20088637460E+03 -0.14799818508E+03  0.40408207682E+03  0.47491170031E+03  0.00000000000E+00 0. -1.
         22    1    1    2    0    0  0.43927050321E+03  0.30762576579E+03  0.11845405356E+04  0.13002801495E+04  0.00000000000E+00 0. -1.
<mgrwt>
<rscale>  0 0.10821672E+04</rscale>
<asrwt>0</asrwt>
<pdfrwt beam="1">  1        2 0.36990360E+00 0.10821672E+04</pdfrwt>
<pdfrwt beam="2">  1       -2 0.18733264E-01 0.10821672E+04</pdfrwt>
<totfact> 0.94896026E+01</totfact>
</mgrwt>
</event>
<event>
 6    1  0.9364335E-007  0.1291235E+04  0.7818608E-02  0.9036545E-01
         -1   -1    0    0    0  501 -0.00000000000E+00  0.00000000000E+00  0.63701933250E+03  0.63701933250E+03  0.00000000000E+00 0.  1.
          1   -1    0    0  501    0  0.00000000000E+00 -0.00000000000E+00 -0.65433197836E+03  0.65433197836E+03  0.00000000000E+00 0. -1.
         23    2    1    2    0    0  0.25727058036E+03 -0.53097267619E+03  0.24561764724E+03  0.64540048192E+03  0.89964543287E+02 0.  0.
         13    1    3    3    0    0  0.10913805603E+03 -0.21462805705E+03  0.14829852300E+03  0.28278749985E+03  0.00000000000E+00 0. -1.
        -13    1    3    3    0    0  0.14813252433E+03 -0.31634461914E+03  0.97319124232E+02  0.36261298207E+03  0.00000000000E+00 0.  1.
         22    1    1    2    0    0 -0.25727058036E+03  0.53097267619E+03 -0.26293029310E+03  0.64595082894E+03  0.00000000000E+00 0. -1.
<mgrwt>
<rscale>  0 0.12912353E+04</rscale>
<asrwt>0</asrwt>
<pdfrwt beam="1">  1        1 0.10066646E+00 0.12912353E+04</pdfrwt>
<pdfrwt beam="2">  1       -1 0.98002973E-01 0.12912353E+04</pdfrwt>
<totfact> 0.29605719E+01</totfact>
</mgrwt>
</event>
<event>
 6    1  0.9364335E-007  0.1648999E+04  0.7818608E-02  0.8790999E-01
          2   -1    0    0  501    0  0.00000000000E+00  0.00000000000E+00  0.12669928362E+04  0.12669928362E+04  0.00000000000E+00 0. -1.
         -2   -1    0    0    0  501 -0.00000000000E+00 -0.00000000000E+00 -0.53654589966E+03  0.53654589966E+03  0.00000000000E+00 0.  1.
         23    2    1    2    0    0  0.57368666163E+03 -0.53117945122E+03  0.64415670502E+03  0.10169549837E+04  0.89395654810E+02 0.  0.
         13    1    3    3    0    0  0.43082675805E+03 -0.42744393078E+03  0.53745926674E+03  0.81066791772E+03  0.00000000000E+00 0.  1.
        -13    1    3    3    0    0  0.14285990358E+03 -0.10373552044E+03  0.10669743828E+03  0.20628706597E+03  0.00000000000E+00 0. -1.
         22    1    1    2    0    0 -0.57368666163E+03  0.53117945122E+03  0.86290231528E+02  0.78658375218E+03  0.00000000000E+00 0.  1.
<mgrwt>
<rscale>  0 0.16489995E+04</rscale>
<asrwt>0</asrwt>
<pdfrwt beam="1">  1        2 0.19492197E+00 0.16489995E+04</pdfrwt>
<pdfrwt beam="2">  1       -2 0.82545523E-01 0.16489995E+04</pdfrwt>
<totfact> 0.21267960E+01</totfact>
</mgrwt>
</event>
<event>
 6    1  0.9364335E-007  0.1583853E+04  0.7818608E-02  0.8830530E-01
          4   -1    0    0  501    0  0.00000000000E+00  0.00000000000E+00  0.45278983938E+03  0.45278983938E+03  0.00000000000E+00 0. -1.
         -4   -1    0    0    0  501 -0.00000000000E+00 -0.00000000000E+00 -0.13850738577E+04  0.13850738577E+04  0.00000000000E+00 0.  1.
         23    2    1    2    0    0  0.23242768712E+03  0.71036515141E+03 -0.17296220897E+03  0.77240093928E+03  0.89699538464E+02 0.  0.
         11    1    3    3    0    0 -0.75567160167E+01  0.11115220805E+02 -0.43967858393E+01  0.14141563429E+02  0.00000000000E+00 0. -1.
        -11    1    3    3    0    0  0.23998440313E+03  0.69924993060E+03 -0.16856542313E+03  0.75825937585E+03  0.00000000000E+00 0.  1.
         22    1    1    2    0    0 -0.23242768712E+03 -0.71036515141E+03 -0.75932180934E+03  0.10654627578E+04  0.00000000000E+00 0.  1.
<mgrwt>
<rscale>  0 0.15838527E+04</rscale>
<asrwt>0</asrwt>
<pdfrwt beam="1">  1        4 0.69659976E-01 0.15838527E+04</pdfrwt>
<pdfrwt beam="2">  1       -4 0.21308828E+00 0.15838527E+04</pdfrwt>
<totfact> 0.39294296E-01</totfact>
</mgrwt>
</event>
<event>
 6    1  0.9364335E-007  0.2470737E+04  0.7818608E-02  0.8413485E-01
          2   -1    0    0  501    0  0.00000000000E+00  0.00000000000E+00  0.34981003721E+04  0.34981003721E+04  0.00000000000E+00 0. -1.
         -2   -1    0    0    0  501 -0.00000000000E+00 -0.00000000000E+00 -0.43627554159E+03  0.43627554159E+03  0.00000000000E+00 0.  1.
         23    2    1    2    0    0  0.60221013905E+02 -0.91758730006E+03  0.28426922486E+04  0.29890653233E+04  0.89550338774E+02 0.  0.
         13    1    3    3    0    0 -0.71313120099E+01 -0.82921180132E+02  0.19234722715E+03  0.20958109055E+03  0.00000000000E+00 0. -1.
        -13    1    3    3    0    0  0.67352325915E+02 -0.83466611993E+03  0.26503450214E+04  0.27794842328E+04  0.00000000000E+00 0.  1.
         22    1    1    2    0    0 -0.60221013905E+02  0.91758730006E+03  0.21913258189E+03  0.94531059033E+03  0.00000000000E+00 0.  1.
<mgrwt>
<rscale>  0 0.24707372E+04</rscale>
<asrwt>0</asrwt>
<pdfrwt beam="1">  1        2 0.53816927E+00 0.24707372E+04</pdfrwt>
<pdfrwt beam="2">  1       -2 0.67119317E-01 0.24707372E+04</pdfrwt>
<totfact> 0.14872807E+00</totfact>
</mgrwt>
</event>
<event>
 6    1  0.9364335E-007  0.2855192E+04  0.7818608E-02  0.8286335E-01
         -2   -1    0    0    0  501 -0.00000000000E+00  0.00000000000E+00  0.28475464241E+04  0.28475464241E+04  0.00000000000E+00 0.  1.
          2   -1    0    0  501    0  0.00000000000E+00 -0.00000000000E+00 -0.71571457050E+03  0.71571457050E+03  0.00000000000E+00 0. -1.
         23    2    1    2    0    0  0.11267927717E+04 -0.59369673897E+03  0.18679300489E+04  0.22625758172E+04  0.89156562299E+02 0.  0.
         13    1    3    3    0    0  0.43279890357E+03 -0.26929337080E+03  0.78907280340E+03  0.93939858396E+03  0.00000000000E+00 0.  1.
        -13    1    3    3    0    0  0.69399386816E+03 -0.32440336817E+03  0.10788572455E+04  0.13231772332E+04  0.00000000000E+00 0. -1.
         22    1    1    2    0    0 -0.11267927717E+04  0.59369673897E+03  0.26390180470E+03  0.13006851774E+04  0.00000000000E+00 0. -1.
<mgrwt>
<rscale>  0 0.28551921E+04</rscale>
<asrwt>0</asrwt>
<pdfrwt beam="1">  1        2 0.11010994E+00 0.28551921E+04</pdfrwt>
<pdfrwt beam="2">  1       -2 0.43808406E+00 0.28551921E+04</pdfrwt>
<totfact> 0.14344179E-01</totfact>
</mgrwt>
</event>
<event>
 6    1  0.9364335E-007  0.1989285E+04  0.7818608E-02  0.8611647E-01
          1   -1    0    0  501    0  0.00000000000E+00  0.00000000000E+00  0.14670439254E+04  0.14670439254E+04  0.00000000000E+00 0. -1.
         -1   -1    0    0    0  501 -0.00000000000E+00 -0.00000000000E+00 -0.67435838635E+03  0.67435838635E+03  0.00000000000E+00 0.  1.
         23    2    1    2    0    0 -0.94515094363E+03 -0.23745670949E+03  0.60005178739E+03  0.11480223455E+04  0.90538185543E+02 0.  0.
         11    1    3    3    0    0 -0.71983423495E+03 -0.18256686020E+03  0.41066153891E+03  0.84860761474E+03  0.00000000000E+00 0. -1.
        -11    1    3    3    0    0 -0.22531670868E+03 -0.54889849293E+02  0.18939024848E+03  0.29941473074E+03  0.00000000000E+00 0.  1.
         22    1    1    2    0    0  0.94515094363E+03  0.23745670949E+03  0.19263375168E+03  0.99337996628E+03  0.00000000000E+00 0. -1.
<mgrwt>
<rscale>  0 0.19892847E+04</rscale>
<asrwt>0</asrwt>
<pdfrwt beam="1">  1        1 0.22569906E+00 0.19892847E+04</pdfrwt>
<pdfrwt beam="2">  1       -1 0.10374744E+00 0.19892847E+04</pdfrwt>
<totfact> 0.56056522E+00</totfact>
</mgrwt>
</event>
<event>
 6    1  0.9364335E-007  0.9092776E+03  0.7818608E-02  0.9414058E-01
         -2   -1    0    0    0  501 -0.00000000000E+00  0.00000000000E+00  0.96555094683E+02  0.96555094683E+02  0.00000000000E+00 0.  1.
          2   -1    0    0  501    0  0.00000000000E+00 -0.00000000000E+00 -0.21407098561E+04  0.21407098561E+04  0.00000000000E+00 0. -1.
         23    2    1    2    0    0 -0.34495953596E+03 -0.24362021514E+03 -0.64664271358E+03  0.77733761885E+03  0.88085662739E+02 0.  0.
         13    1    3    3    0    0 -0.67495971835E+02 -0.14328532183E+02 -0.75932381775E+02  0.10259990083E+03  0.00000000000E+00 0. -1.
        -13    1    3    3    0    0 -0.27746356413E+03 -0.22929168296E+03 -0.57071033181E+03  0.67473771802E+03  0.00000000000E+00 0.  1.
         22    1    1    2    0    0  0.34495953596E+03  0.24362021514E+03 -0.13975120479E+04  0.14599273319E+04  0.00000000000E+00 0. -1.
<mgrwt>
<rscale>  0 0.90927761E+03</rscale>
<asrwt>0</asrwt>
<pdfrwt beam="1">  1        2 0.32933994E+00 0.90927761E+03</pdfrwt>
<pdfrwt beam="2">  1       -2 0.14854632E-01 0.90927761E+03</pdfrwt>
<totfact> 0.20132265E+02</totfact>
</mgrwt>
</event>
<event>
 6    1  0.9364335E-007  0.5100022E+04  0.7818608E-02  0.7813260E-01
         -1   -1    0    0    0  501 -0.00000000000E+00  0.00000000000E+00  0.20213602533E+04  0.20213602533E+04  0.00000000000E+00 0.  1.
          1   -1    0    0  501    0  0.00000000000E+00 -0.00000000000E+00 -0.32169210704E+04  0.32169210704E+04  0.00000000000E+00 0. -1.
         23    2    1    2    0    0  0.13236660345E+04  0.16866129900E+04 -0.20143602560E+04  0.29432458839E+04  0.91071089686E+02 0.  0.
         11    1    3    3    0    0  0.24934186733E+03  0.31965738483E+03 -0.33310492705E+03  0.52470096522E+03  0.00000000000E+00 0. -1.
        -11    1    3    3    0    0  0.10743241672E+04  0.13669556052E+04 -0.16812553290E+04  0.24185449187E+04  0.00000000000E+00 0.  1.
         22    1    1    2    0    0 -0.13236660345E+04 -0.16866129900E+04  0.81879943891E+03  0.22950354398E+04  0.00000000000E+00 0. -1.
<mgrwt>
<rscale>  0 0.51000221E+04</rscale>
<asrwt>0</asrwt>
<pdfrwt beam="1">  1        1 0.49491093E+00 0.51000221E+04</pdfrwt>
<pdfrwt beam="2">  1       -1 0.31097850E+00 0.51000221E+04</pdfrwt>
<totfact> 0.82826951E-03</totfact>
</mgrwt>
</event>
<event>
 6    1  0.9364335E-007  0.1278576E+04  0.7818608E-02  0.9046729E-01
         -1   -1    0    0    0  501 -0.00000000000E+00  0.00000000000E+00  0.33008491574E+03  0.33008491574E+03  0.00000000000E+00 0.  1.
          1   -1    0    0  501    0  0.00000000000E+00 -0.00000000000E+00 -0.12381327736E+04  0.12381327736E+04  0.00000000000E+00 0. -1.
         23    2    1    2    0    0 -0.20657447961E+03  0.60122335606E+03 -0.47597715165E+03  0.79956455908E+03  0.92772278933E+02 0.  0.
         11    1    3    3    0    0 -0.81341741646E+02  0.31747301788E+03 -0.29203523222E+03  0.43896488797E+03  0.00000000000E+00 0. -1.
        -11    1    3    3    0    0 -0.12523273797E+03  0.28375033819E+03 -0.18394191944E+03  0.36059967111E+03  0.00000000000E+00 0.  1.
         22    1    1    2    0    0  0.20657447961E+03 -0.60122335606E+03 -0.43207070621E+03  0.76865313027E+03  0.00000000000E+00 0.  1.
<mgrwt>
<rscale>  0 0.12785757E+04</rscale>
<asrwt>0</asrwt>
<pdfrwt beam="1">  1        1 0.19048196E+00 0.12785757E+04</pdfrwt>
<pdfrwt beam="2">  1       -1 0.50782295E-01 0.12785757E+04</pdfrwt>
<totfact> 0.38427016E+01</totfact>
</mgrwt>
</event>
<event>
 6    1  0.9364335E-007  0.1386236E+04  0.7818608E-02  0.8963842E-01
         -2   -1    0    0    0  501 -0.00000000000E+00  0.00000000000E+00  0.47494584183E+03  0.47494584183E+03  0.00000000000E+00 0.  1.
          2   -1    0    0  501    0  0.00000000000E+00 -0.00000000000E+00 -0.10115105910E+04  0.10115105910E+04  0.00000000000E+00 0. -1.
         23    2    1    2    0    0 -0.60400842941E+03 -0.12677952579E+03  0.61881527389E+02  0.62678371783E+03  0.90162489650E+02 0.  0.
         13    1    3    3    0    0 -0.25072990749E+03 -0.31560661566E+02 -0.14063088994E+02  0.25309945149E+03  0.00000000000E+00 0. -1.
        -13    1    3    3    0    0 -0.35327852192E+03 -0.95218864226E+02  0.75944616383E+02  0.37368426634E+03  0.00000000000E+00 0.  1.
         22    1    1    2    0    0  0.60400842941E+03  0.12677952579E+03 -0.59844627652E+03  0.85967271496E+03  0.00000000000E+00 0. -1.
<mgrwt>
<rscale>  0 0.13862363E+04</rscale>
<asrwt>0</asrwt>
<pdfrwt beam="1">  1        2 0.15561701E+00 0.13862363E+04</pdfrwt>
<pdfrwt beam="2">  1       -2 0.73068592E-01 0.13862363E+04</pdfrwt>
<totfact> 0.40824882E+01</totfact>
</mgrwt>
</event>
<event>
 6    1  0.9364335E-007  0.2273967E+04  0.7818608E-02  0.8488257E-01
         -1   -1    0    0    0  501 -0.00000000000E+00  0.00000000000E+00  0.51998777288E+03  0.51998777288E+03  0.00000000000E+00 0.  1.
          1   -1    0    0  501    0  0.00000000000E+00 -0.00000000000E+00 -0.24860805938E+04  0.24860805938E+04  0.00000000000E+00 0. -1.
         23    2    1    2    0    0  0.90538961151E+03  0.27051448618E+02 -0.80201192797E+02  0.91392846636E+03  0.91492517749E+02 0.  0.
         11    1    3    3    0    0  0.65243048217E+03  0.99542127270E+01 -0.97740764440E+02  0.65978623618E+03  0.00000000000E+00 0.  1.
        -11    1    3    3    0    0  0.25295912934E+03  0.17097235891E+02  0.17539571642E+02  0.25414223019E+03  0.00000000000E+00 0. -1.
         22    1    1    2    0    0 -0.90538961151E+03 -0.27051448618E+02 -0.18858916281E+04  0.20921399003E+04  0.00000000000E+00 0. -1.
<mgrwt>
<rscale>  0 0.22739670E+04</rscale>
<asrwt>0</asrwt>
<pdfrwt beam="1">  1        1 0.38247394E+00 0.22739670E+04</pdfrwt>
<pdfrwt beam="2">  1       -1 0.79998119E-01 0.22739670E+04</pdfrwt>
<totfact> 0.19574119E+00</totfact>
</mgrwt>
</event>
<event>
 6    1  0.9364335E-007  0.1658547E+04  0.7818608E-02  0.8785366E-01
         -2   -1    0    0    0  501 -0.00000000000E+00  0.00000000000E+00  0.21404948481E+03  0.21404948481E+03  0.00000000000E+00 0.  1.
          2   -1    0    0  501    0  0.00000000000E+00 -0.00000000000E+00 -0.32127847642E+04  0.32127847642E+04  0.00000000000E+00 0. -1.
         23    2    1    2    0    0 -0.16173504641E+03  0.18647511046E+02 -0.31786201513E+04  0.31842141303E+04  0.95328937006E+02 0.  0.
         11    1    3    3    0    0 -0.80579257018E+02 -0.30931704208E+02 -0.19547126062E+04  0.19566172747E+04  0.00000000000E+00 0.  1.
        -11    1    3    3    0    0 -0.81155789390E+02  0.49579215254E+02 -0.12239075451E+04  0.12275968556E+04  0.00000000000E+00 0. -1.
         22    1    1    2    0    0  0.16173504641E+03 -0.18647511046E+02  0.17988487188E+03  0.24262011878E+03  0.00000000000E+00 0.  1.
<mgrwt>
<rscale>  0 0.16585475E+04</rscale>
<asrwt>0</asrwt>
<pdfrwt beam="1">  1        2 0.49427457E+00 0.16585475E+04</pdfrwt>
<pdfrwt beam="2">  1       -2 0.32930691E-01 0.16585475E+04</pdfrwt>
<totfact> 0.10525561E+01</totfact>
</mgrwt>
</event>
<event>
 6    1  0.9364335E-007  0.2608990E+04  0.7818608E-02  0.8365154E-01
          2   -1    0    0  501    0  0.00000000000E+00  0.00000000000E+00  0.22919180665E+04  0.22919180665E+04  0.00000000000E+00 0. -1.
         -2   -1    0    0    0  501 -0.00000000000E+00 -0.00000000000E+00 -0.74248162081E+03  0.74248162081E+03  0.00000000000E+00 0.  1.
         23    2    1    2    0    0 -0.98567898423E+03 -0.38275872273E+03 -0.11041990214E+03  0.10663574126E+04  0.82814713251E+02 0.  0.
         11    1    3    3    0    0 -0.64285799246E+03 -0.27975029664E+03 -0.45576011155E+02  0.70256942698E+03  0.00000000000E+00 0. -1.
        -11    1    3    3    0    0 -0.34282099177E+03 -0.10300842610E+03 -0.64843890987E+02  0.36378798557E+03  0.00000000000E+00 0.  1.
         22    1    1    2    0    0  0.98567898423E+03  0.38275872273E+03  0.16598563479E+04  0.19680422748E+04  0.00000000000E+00 0. -1.
<mgrwt>
<rscale>  0 0.26089899E+04</rscale>
<asrwt>0</asrwt>
<pdfrwt beam="1">  1        2 0.35260278E+00 0.26089899E+04</pdfrwt>
<pdfrwt beam="2">  1       -2 0.11422794E+00 0.26089899E+04</pdfrwt>
<totfact> 0.24272295E+00</totfact>
</mgrwt>
</event>
<event>
 6    1  0.1015548E-006  0.3175972E+04  0.7818608E-02  0.8195192E-01
         -1   -1    0    0    0  501 -0.00000000000E+00  0.00000000000E+00  0.12356166148E+04  0.12356166148E+04  0.00000000000E+00 0.  1.
          1   -1    0    0  501    0  0.00000000000E+00 -0.00000000000E+00 -0.20408425611E+04  0.20408425611E+04  0.00000000000E+00 0. -1.
         23    2    1    2    0    0  0.97467484787E+03 -0.74324777649E+03  0.63656997250E+03  0.13840575833E+04  0.89363011261E+02 0.  0.
         13    1    3    3    0    0  0.64561418926E+03 -0.48475353799E+03  0.46599084864E+03  0.93217549044E+03  0.00000000000E+00 0. -1.
        -13    1    3    3    0    0  0.32906065861E+03 -0.25849423850E+03  0.17057912386E+03  0.45188209289E+03  0.00000000000E+00 0.  1.
         22    1    1    2    0    0 -0.97467484787E+03  0.74324777649E+03 -0.14417959187E+04  0.18924015926E+04  0.00000000000E+00 0. -1.
<mgrwt>
<rscale>  0 0.31759716E+04</rscale>
<asrwt>0</asrwt>
<pdfrwt beam="1">  1        1 0.31397577E+00 0.31759716E+04</pdfrwt>
<pdfrwt beam="2">  1       -1 0.19009487E+00 0.31759716E+04</pdfrwt>
<totfact> 0.41351578E-01</totfact>
</mgrwt>
</event>
<event>
 6    1  0.9364335E-007  0.3334347E+04  0.7818608E-02  0.8154210E-01
          2   -1    0    0  501    0  0.00000000000E+00  0.00000000000E+00  0.28962253939E+04  0.28962253939E+04  0.00000000000E+00 0. -1.
         -2   -1    0    0    0  501 -0.00000000000E+00 -0.00000000000E+00 -0.95968603134E+03  0.95968603134E+03  0.00000000000E+00 0.  1.
         23    2    1    2    0    0  0.79677389328E+03 -0.43331679032E+03 -0.64734244663E+03  0.11174707592E+04  0.84122390423E+02 0.  0.
         11    1    3    3    0    0  0.21596474449E+03 -0.76237947555E+02 -0.16793147293E+03  0.28399643503E+03  0.00000000000E+00 0.  1.
        -11    1    3    3    0    0  0.58080914879E+03 -0.35707884276E+03 -0.47941097370E+03  0.83347432412E+03  0.00000000000E+00 0. -1.
         22    1    1    2    0    0 -0.79677389328E+03  0.43331679032E+03  0.25838818092E+04  0.27384406661E+04  0.00000000000E+00 0. -1.
<mgrwt>
<rscale>  0 0.33343467E+04</rscale>
<asrwt>0</asrwt>
<pdfrwt beam="1">  1        2 0.44557313E+00 0.33343467E+04</pdfrwt>
<pdfrwt beam="2">  1       -2 0.14764401E+00 0.33343467E+04</pdfrwt>
<totfact> 0.52530807E-01</totfact>
</mgrwt>
</event>
<event>
 6    1  0.9364335E-007  0.2714945E+04  0.7818608E-02  0.8330172E-01
          1   -1    0    0  501    0  0.00000000000E+00  0.00000000000E+00  0.56673238393E+03  0.56673238393E+03  0.00000000000E+00 0. -1.
         -1   -1    0    0    0  501 -0.00000000000E+00 -0.00000000000E+00 -0.32515019416E+04  0.32515019416E+04  0.00000000000E+00 0.  1.
         23    2    1    2    0    0 -0.12085299403E+04  0.27718101504E+03 -0.21158794139E+04  0.24540459488E+04  0.89565020787E+02 0.  0.
         13    1    3    3    0    0 -0.35370049017E+03  0.41257750210E+02 -0.62877659281E+03  0.72261071288E+03  0.00000000000E+00 0. -1.
        -13    1    3    3    0    0 -0.85482945009E+03  0.23592326483E+03 -0.14871028211E+04  0.17314352359E+04  0.00000000000E+00 0.  1.
         22    1    1    2    0    0  0.12085299403E+04 -0.27718101504E+03 -0.56889014379E+03  0.13641883768E+04  0.00000000000E+00 0. -1.
<mgrwt>
<rscale>  0 0.27149449E+04</rscale>
<asrwt>0</asrwt>
<pdfrwt beam="1">  1        1 0.87189599E-01 0.27149449E+04</pdfrwt>
<pdfrwt beam="2">  1       -1 0.50023106E+00 0.27149449E+04</pdfrwt>
<totfact> 0.47967201E-02</totfact>
</mgrwt>
</event>
<event>
 6    1  0.9364335E-007  0.2852059E+04  0.7818608E-02  0.8287286E-01
          1   -1    0    0  501    0  0.00000000000E+00  0.00000000000E+00  0.19860106473E+04  0.19860106473E+04  0.00000000000E+00 0. -1.
         -1   -1    0    0    0  501 -0.00000000000E+00 -0.00000000000E+00 -0.10239424921E+04  0.10239424921E+04  0.00000000000E+00 0.  1.
         23    2    1    2    0    0  0.21879535498E+03 -0.13694083556E+04  0.82730465701E+03  0.16166434639E+04  0.77152071802E+02 0.  0.
         11    1    3    3    0    0  0.21452129235E+03 -0.11723717571E+04  0.71082644538E+03  0.13877136438E+04  0.00000000000E+00 0.  1.
        -11    1    3    3    0    0  0.42740626311E+01 -0.19703659850E+03  0.11647821162E+03  0.22892982013E+03  0.00000000000E+00 0. -1.
         22    1    1    2    0    0 -0.21879535498E+03  0.13694083556E+04  0.13476349817E+03  0.13933096756E+04  0.00000000000E+00 0.  1.
<mgrwt>
<rscale>  0 0.28520594E+04</rscale>
<asrwt>0</asrwt>
<pdfrwt beam="1">  1        1 0.30554010E+00 0.28520594E+04</pdfrwt>
<pdfrwt beam="2">  1       -1 0.15752961E+00 0.28520594E+04</pdfrwt>
<totfact> 0.80109014E-01</totfact>
</mgrwt>
</event>
<event>
 6    1  0.9364335E-007  0.1512270E+04  0.7818608E-02  0.8876334E-01
         -1   -1    0    0    0  501 -0.00000000000E+00  0.00000000000E+00  0.33046946173E+03  0.33046946173E+03  0.00000000000E+00 0.  1.
          1   -1    0    0  501    0  0.00000000000E+00 -0.00000000000E+00 -0.17300854845E+04  0.17300854845E+04  0.00000000000E+00 0. -1.
         23    2    1    2    0    0  0.14189677805E+03 -0.73924627399E+03 -0.74634802198E+03  0.10638710294E+04  0.90368401540E+02 0.  0.
         13    1    3    3    0    0  0.36615641230E+02 -0.42661904189E+03 -0.41387419770E+03  0.59551352932E+03  0.00000000000E+00 0. -1.
        -13    1    3    3    0    0  0.10528113682E+03 -0.31262723210E+03 -0.33247382428E+03  0.46835750005E+03  0.00000000000E+00 0.  1.
         22    1    1    2    0    0 -0.14189677805E+03  0.73924627399E+03 -0.65326800074E+03  0.99668391681E+03  0.00000000000E+00 0. -1.
<mgrwt>
<rscale>  0 0.15122704E+04</rscale>
<asrwt>0</asrwt>
<pdfrwt beam="1">  1        1 0.26616699E+00 0.15122704E+04</pdfrwt>
<pdfrwt beam="2">  1       -1 0.50841457E-01 0.15122704E+04</pdfrwt>
<totfact> 0.17082027E+01</totfact>
</mgrwt>
</event>
<event>
 6    1  0.9364335E-007  0.3531178E+04  0.7818608E-02  0.8106441E-01
          2   -1    0    0  501    0  0.00000000000E+00  0.00000000000E+00  0.20412555567E+04  0.20412555567E+04  0.00000000000E+00 0. -1.
         -2   -1    0    0    0  501 -0.00000000000E+00 -0.00000000000E+00 -0.15271503039E+04  0.15271503039E+04  0.00000000000E+00 0.  1.
         23    2    1    2    0    0 -0.19661343325E+03 -0.10825394435E+04  0.16511125742E+04  0.19862130348E+04  0.91219506335E+02 0.  0.
         13    1    3    3    0    0 -0.10043381000E+03 -0.77851484803E+03  0.11903940629E+04  0.14259068496E+04  0.00000000000E+00 0. -1.
        -13    1    3    3    0    0 -0.96179623246E+02 -0.30402459545E+03  0.46071851130E+03  0.56030618524E+03  0.00000000000E+00 0.  1.
         22    1    1    2    0    0  0.19661343325E+03  0.10825394435E+04 -0.11370073214E+04  0.15821928257E+04  0.00000000000E+00 0.  1.
<mgrwt>
<rscale>  0 0.35311777E+04</rscale>
<asrwt>0</asrwt>
<pdfrwt beam="1">  1        2 0.31403932E+00 0.35311777E+04</pdfrwt>
<pdfrwt beam="2">  1       -2 0.23494620E+00 0.35311777E+04</pdfrwt>
<totfact> 0.41360305E-01</totfact>
</mgrwt>
</event>
<event>
 6    1  0.9364335E-007  0.2679663E+04  0.7818608E-02  0.8341634E-01
         -1   -1    0    0    0  501 -0.00000000000E+00  0.00000000000E+00  0.74906969913E+03  0.74906969913E+03  0.00000000000E+00 0.  1.
          1   -1    0    0  501    0  0.00000000000E+00 -0.00000000000E+00 -0.23965032505E+04  0.23965032505E+04  0.00000000000E+00 0. -1.
         23    2    1    2    0    0  0.53160892532E+03  0.96158598163E+02 -0.22619397813E+04  0.23273599992E+04  0.91533961835E+02 0.  0.
         11    1    3    3    0    0  0.25836132823E+03  0.52391235536E+02 -0.12971787236E+04  0.13236948510E+04  0.00000000000E+00 0. -1.
        -11    1    3    3    0    0  0.27324759708E+03  0.43767362627E+02 -0.96476105770E+03  0.10036651482E+04  0.00000000000E+00 0.  1.
         22    1    1    2    0    0 -0.53160892532E+03 -0.96158598163E+02  0.61450622998E+03  0.81821295038E+03  0.00000000000E+00 0.  1.
<mgrwt>
<rscale>  0 0.26796626E+04</rscale>
<asrwt>0</asrwt>
<pdfrwt beam="1">  1        1 0.36869281E+00 0.26796626E+04</pdfrwt>
<pdfrwt beam="2">  1       -1 0.11524149E+00 0.26796626E+04</pdfrwt>
<totfact> 0.95394212E-01</totfact>
</mgrwt>
</event>
<event>
 6    1  0.9364335E-007  0.1284464E+04  0.7818608E-02  0.9041977E-01
          2   -1    0    0  501    0  0.00000000000E+00  0.00000000000E+00  0.12285899096E+04  0.12285899096E+04  0.00000000000E+00 0. -1.
         -2   -1    0    0    0  501 -0.00000000000E+00 -0.00000000000E+00 -0.33571962462E+03  0.33571962462E+03  0.00000000000E+00 0.  1.
         23    2    1    2    0    0 -0.10298398555E+03 -0.54385710361E+03  0.83754368479E+03  0.10080296738E+04  0.90874357944E+02 0.  0.
         11    1    3    3    0    0 -0.31055036110E+01 -0.21378204163E+03  0.36539086249E+03  0.42334724266E+03  0.00000000000E+00 0. -1.
        -11    1    3    3    0    0 -0.99878481935E+02 -0.33007506198E+03  0.47215282230E+03  0.58468243116E+03  0.00000000000E+00 0.  1.
         22    1    1    2    0    0  0.10298398555E+03  0.54385710361E+03  0.55326600204E+02  0.55627986043E+03  0.00000000000E+00 0.  1.
<mgrwt>
<rscale>  0 0.12844637E+04</rscale>
<asrwt>0</asrwt>
<pdfrwt beam="1">  1        2 0.18901383E+00 0.12844637E+04</pdfrwt>
<pdfrwt beam="2">  1       -2 0.51649174E-01 0.12844637E+04</pdfrwt>
<totfact> 0.63258508E+01</totfact>
</mgrwt>
</event>
<event>
 6    1  0.9364335E-007  0.5206905E+04  0.7818608E-02  0.7797359E-01
          1   -1    0    0  501    0  0.00000000000E+00  0.00000000000E+00  0.21816753813E+04  0.21816753813E+04  0.00000000000E+00 0. -1.
         -1   -1    0    0    0  501 -0.00000000000E+00 -0.00000000000E+00 -0.31067705758E+04  0.31067705758E+04  0.00000000000E+00 0.  1.
         23    2    1    2    0    0 -0.49926145657E+03 -0.21020667323E+04  0.10112489709E+04  0.23871746364E+04  0.89619833943E+02 0.  0.
         11    1    3    3    0    0 -0.40727864428E+03 -0.17966507306E+04  0.83339428310E+03  0.20219732375E+04  0.00000000000E+00 0.  1.
        -11    1    3    3    0    0 -0.91982812294E+02 -0.30541600168E+03  0.17785468775E+03  0.36520139895E+03  0.00000000000E+00 0. -1.
         22    1    1    2    0    0  0.49926145657E+03  0.21020667323E+04 -0.19363441653E+04  0.29012713206E+04  0.00000000000E+00 0.  1.
<mgrwt>
<rscale>  0 0.52069050E+04</rscale>
<asrwt>0</asrwt>
<pdfrwt beam="1">  1        1 0.33564237E+00 0.52069050E+04</pdfrwt>
<pdfrwt beam="2">  1       -1 0.47796470E+00 0.52069050E+04</pdfrwt>
<totfact> 0.33353662E-03</totfact>
</mgrwt>
</event>
<event>
 6    1  0.9364335E-007  0.1803610E+04  0.7818608E-02  0.8704382E-01
         -2   -1    0    0    0  501 -0.00000000000E+00  0.00000000000E+00  0.13939616046E+04  0.13939616046E+04  0.00000000000E+00 0.  1.
          2   -1    0    0  501    0  0.00000000000E+00 -0.00000000000E+00 -0.58341069362E+03  0.58341069362E+03  0.00000000000E+00 0. -1.
         23    2    1    2    0    0  0.70870402911E+03 -0.51989760454E+02 -0.19823206186E+03  0.74343250133E+03  0.91823731222E+02 0.  0.
         11    1    3    3    0    0  0.33219145534E+03  0.19906915175E+02 -0.10472621877E+03  0.34887681088E+03  0.00000000000E+00 0. -1.
        -11    1    3    3    0    0  0.37651257377E+03 -0.71896675629E+02 -0.93505843088E+02  0.39455569045E+03  0.00000000000E+00 0.  1.
         22    1    1    2    0    0 -0.70870402911E+03  0.51989760454E+02  0.10087829729E+04  0.12339397969E+04  0.00000000000E+00 0.  1.
<mgrwt>
<rscale>  0 0.18036098E+04</rscale>
<asrwt>0</asrwt>
<pdfrwt beam="1">  1        2 0.89755492E-01 0.18036098E+04</pdfrwt>
<pdfrwt beam="2">  1       -2 0.21445563E+00 0.18036098E+04</pdfrwt>
<totfact> 0.51872653E+00</totfact>
</mgrwt>
</event>
<event>
 6    1  0.9364335E-007  0.2518537E+04  0.7818608E-02  0.8396411E-01
          2   -1    0    0  501    0  0.00000000000E+00  0.00000000000E+00  0.23215935940E+04  0.23215935940E+04  0.00000000000E+00 0. -1.
         -2   -1    0    0    0  501 -0.00000000000E+00 -0.00000000000E+00 -0.68304669310E+03  0.68304669310E+03  0.00000000000E+00 0.  1.
         23    2    1    2    0    0 -0.61253987420E+03 -0.10908281027E+04  0.66944743248E+03  0.14221533750E+04  0.96173334121E+02 0.  0.
         13    1    3    3    0    0 -0.33337544228E+03 -0.61099684023E+03  0.31890462995E+03  0.76560857316E+03  0.00000000000E+00 0. -1.
        -13    1    3    3    0    0 -0.27916443192E+03 -0.47983126247E+03  0.35054280252E+03  0.65654480189E+03  0.00000000000E+00 0.  1.
         22    1    1    2    0    0  0.61253987420E+03  0.10908281027E+04  0.96909946844E+03  0.15824869121E+04  0.00000000000E+00 0. -1.
<mgrwt>
<rscale>  0 0.25185367E+04</rscale>
<asrwt>0</asrwt>
<pdfrwt beam="1">  1        2 0.35716824E+00 0.25185367E+04</pdfrwt>
<pdfrwt beam="2">  1       -2 0.10508411E+00 0.25185367E+04</pdfrwt>
<totfact> 0.28790219E+00</totfact>
</mgrwt>
</event>
<event>
 6    1  0.9364335E-007  0.2191357E+04  0.7818608E-02  0.8522034E-01
         -2   -1    0    0    0  501 -0.00000000000E+00  0.00000000000E+00  0.44146930035E+03  0.44146930035E+03  0.00000000000E+00 0.  1.
          2   -1    0    0  501    0  0.00000000000E+00 -0.00000000000E+00 -0.27193552355E+04  0.27193552355E+04  0.00000000000E+00 0. -1.
         23    2    1    2    0    0 -0.89111816948E+03  0.13927729380E+03 -0.20335158834E+04  0.22263693584E+04  0.89687877532E+02 0.  0.
         11    1    3    3    0    0 -0.66431951609E+03  0.14199142914E+03 -0.15466766928E+04  0.16892870618E+04  0.00000000000E+00 0. -1.
        -11    1    3    3    0    0 -0.22679865339E+03 -0.27141353306E+01 -0.48683919061E+03  0.53708229651E+03  0.00000000000E+00 0.  1.
         22    1    1    2    0    0  0.89111816948E+03 -0.13927729380E+03 -0.24437005180E+03  0.93445517751E+03  0.00000000000E+00 0.  1.
<mgrwt>
<rscale>  0 0.21913574E+04</rscale>
<asrwt>0</asrwt>
<pdfrwt beam="1">  1        2 0.41836235E+00 0.21913574E+04</pdfrwt>
<pdfrwt beam="2">  1       -2 0.67918352E-01 0.21913574E+04</pdfrwt>
<totfact> 0.46980578E+00</totfact>
</mgrwt>
</event>
<event>
 6    1  0.9364335E-007  0.2570899E+04  0.7818608E-02  0.8378154E-01
         -3   -1    0    0    0  501 -0.00000000000E+00  0.00000000000E+00  0.18602030980E+04  0.18602030980E+04  0.00000000000E+00 0.  1.
          3   -1    0    0  501    0  0.00000000000E+00 -0.00000000000E+00 -0.88827940161E+03  0.88827940161E+03  0.00000000000E+00 0. -1.
         23    2    1    2    0    0 -0.89466781331E+03  0.96567447912E+02  0.14654567936E+04  0.17221635014E+04  0.92345781041E+02 0.  0.
         13    1    3    3    0    0 -0.30940478812E+03  0.19395869533E+02  0.42747545538E+03  0.52805566716E+03  0.00000000000E+00 0. -1.
        -13    1    3    3    0    0 -0.58526302519E+03  0.77171578379E+02  0.10379813382E+04  0.11941078342E+04  0.00000000000E+00 0.  1.
         22    1    1    2    0    0  0.89466781331E+03 -0.96567447912E+02 -0.49353309721E+03  0.10263189983E+04  0.00000000000E+00 0. -1.
<mgrwt>
<rscale>  0 0.25708987E+04</rscale>
<asrwt>0</asrwt>
<pdfrwt beam="1">  1        3 0.13665837E+00 0.25708987E+04</pdfrwt>
<pdfrwt beam="2">  1       -3 0.28618509E+00 0.25708987E+04</pdfrwt>
<totfact> 0.43060207E-02</totfact>
</mgrwt>
</event>
<event>
 6    1  0.9364335E-007  0.3314384E+04  0.7818608E-02  0.8159245E-01
         -1   -1    0    0    0  501 -0.00000000000E+00  0.00000000000E+00  0.19774539748E+04  0.19774539748E+04  0.00000000000E+00 0.  1.
          1   -1    0    0  501    0  0.00000000000E+00 -0.00000000000E+00 -0.13887984841E+04  0.13887984841E+04  0.00000000000E+00 0. -1.
         23    2    1    2    0    0 -0.14239806848E+04  0.70125121255E+03  0.77475447954E+03  0.17680950550E+04  0.80258123116E+02 0.  0.
         13    1    3    3    0    0 -0.10891737300E+04  0.57373167735E+03  0.59961563865E+03  0.13693087182E+04  0.00000000000E+00 0.  1.
        -13    1    3    3    0    0 -0.33480695480E+03  0.12751953520E+03  0.17513884090E+03  0.39878633682E+03  0.00000000000E+00 0. -1.
         22    1    1    2    0    0  0.14239806848E+04 -0.70125121255E+03 -0.18609898884E+03  0.15981574038E+04  0.00000000000E+00 0. -1.
<mgrwt>
<rscale>  0 0.33143839E+04</rscale>
<asrwt>0</asrwt>
<pdfrwt beam="1">  1        1 0.21366130E+00 0.33143839E+04</pdfrwt>
<pdfrwt beam="2">  1       -1 0.30422369E+00 0.33143839E+04</pdfrwt>
<totfact> 0.20096432E-01</totfact>
</mgrwt>
</event>
<event>
 6    1  0.9364335E-007  0.1350970E+04  0.7818608E-02  0.8990094E-01
         -1   -1    0    0    0  501 -0.00000000000E+00  0.00000000000E+00  0.10731176644E+03  0.10731176644E+03  0.00000000000E+00 0.  1.
          1   -1    0    0  501    0  0.00000000000E+00 -0.00000000000E+00 -0.42519077013E+04  0.42519077013E+04  0.00000000000E+00 0. -1.
         23    2    1    2    0    0 -0.24879475103E+03 -0.20795229184E+03 -0.39823859573E+04  0.39966521490E+04  0.93206776282E+02 0.  0.
         13    1    3    3    0    0 -0.25589366790E+03 -0.20850988032E+03 -0.38774305916E+04  0.38914555030E+04  0.00000000000E+00 0. -1.
        -13    1    3    3    0    0  0.70989168743E+01  0.55758848019E+00 -0.10495536573E+03  0.10519664596E+03  0.00000000000E+00 0.  1.
         22    1    1    2    0    0  0.24879475103E+03  0.20795229184E+03 -0.16220997757E+03  0.36256731877E+03  0.00000000000E+00 0.  1.
<mgrwt>
<rscale>  0 0.13509696E+04</rscale>
<asrwt>0</asrwt>
<pdfrwt beam="1">  1        1 0.65413959E+00 0.13509696E+04</pdfrwt>
<pdfrwt beam="2">  1       -1 0.16509504E-01 0.13509696E+04</pdfrwt>
<totfact> 0.16065520E+00</totfact>
</mgrwt>
</event>
<event>
 6    1  0.9364335E-007  0.1880910E+04  0.7818608E-02  0.8664418E-01
          1   -1    0    0  501    0  0.00000000000E+00  0.00000000000E+00  0.12837612983E+04  0.12837612983E+04  0.00000000000E+00 0. -1.
         -1   -1    0    0    0  501 -0.00000000000E+00 -0.00000000000E+00 -0.68895608478E+03  0.68895608478E+03  0.00000000000E+00 0.  1.
         23    2    1    2    0    0 -0.62557341471E+03 -0.68576110075E+03  0.44065305878E+03  0.10317746264E+04  0.93666306962E+02 0.  0.
         13    1    3    3    0    0 -0.33452293616E+03 -0.29746466163E+03  0.20760872793E+03  0.49344929187E+03  0.00000000000E+00 0. -1.
        -13    1    3    3    0    0 -0.29105047855E+03 -0.38829643911E+03  0.23304433086E+03  0.53832533457E+03  0.00000000000E+00 0.  1.
         22    1    1    2    0    0  0.62557341471E+03  0.68576110075E+03  0.15415215477E+03  0.94094275666E+03  0.00000000000E+00 0.  1.
<mgrwt>
<rscale>  0 0.18809095E+04</rscale>
<asrwt>0</asrwt>
<pdfrwt beam="1">  1        1 0.19750174E+00 0.18809095E+04</pdfrwt>
<pdfrwt beam="2">  1       -1 0.10599324E+00 0.18809095E+04</pdfrwt>
<totfact> 0.72522153E+00</totfact>
</mgrwt>
</event>
<event>
 6    1  0.9364335E-007  0.1933418E+04  0.7818608E-02  0.8638399E-01
         -2   -1    0    0    0  501 -0.00000000000E+00  0.00000000000E+00  0.85875956485E+03  0.85875956485E+03  0.00000000000E+00 0.  1.
          2   -1    0    0  501    0  0.00000000000E+00 -0.00000000000E+00 -0.10882281099E+04  0.10882281099E+04  0.00000000000E+00 0. -1.
         23    2    1    2    0    0 -0.86279762599E+03 -0.42649121151E+03 -0.35475752160E+02  0.96517929191E+03  0.63230053228E+02 0.  0.
         11    1    3    3    0    0 -0.38221660449E+03 -0.22132236288E+03 -0.28484364264E+02  0.44258838672E+03  0.00000000000E+00 0.  1.
        -11    1    3    3    0    0 -0.48058102150E+03 -0.20516884863E+03 -0.69913878955E+01  0.52259090518E+03  0.00000000000E+00 0. -1.
         22    1    1    2    0    0  0.86279762599E+03  0.42649121151E+03 -0.19399279287E+03  0.98180838283E+03  0.00000000000E+00 0. -1.
<mgrwt>
<rscale>  0 0.19334180E+04</rscale>
<asrwt>0</asrwt>
<pdfrwt beam="1">  1        2 0.16741971E+00 0.19334180E+04</pdfrwt>
<pdfrwt beam="2">  1       -2 0.13211686E+00 0.19334180E+04</pdfrwt>
<totfact> 0.86268401E+00</totfact>
</mgrwt>
</event>
<event>
 6    1  0.9364335E-007  0.1707727E+04  0.7818608E-02  0.8756970E-01
         -2   -1    0    0    0  501 -0.00000000000E+00  0.00000000000E+00  0.42921027849E+03  0.42921027849E+03  0.00000000000E+00 0.  1.
          2   -1    0    0  501    0  0.00000000000E+00 -0.00000000000E+00 -0.16986609464E+04  0.16986609464E+04  0.00000000000E+00 0. -1.
         23    2    1    2    0    0  0.77654090820E+03  0.34839684176E+03 -0.61111218489E+03  0.10518574240E+04  0.92465109212E+02 0.  0.
         13    1    3    3    0    0  0.46158498453E+03  0.20956459878E+03 -0.30759962516E+03  0.59295492949E+03  0.00000000000E+00 0. -1.
        -13    1    3    3    0    0  0.31495592368E+03  0.13883224298E+03 -0.30351255972E+03  0.45890249450E+03  0.00000000000E+00 0.  1.
         22    1    1    2    0    0 -0.77654090820E+03 -0.34839684176E+03 -0.65833848300E+03  0.10760138009E+04  0.00000000000E+00 0. -1.
<mgrwt>
<rscale>  0 0.17077268E+04</rscale>
<asrwt>0</asrwt>
<pdfrwt beam="1">  1        2 0.26133245E+00 0.17077268E+04</pdfrwt>
<pdfrwt beam="2">  1       -2 0.66032350E-01 0.17077268E+04</pdfrwt>
<totfact> 0.19711878E+01</totfact>
</mgrwt>
</event>
<event>
 6    1  0.9364335E-007  0.9962388E+03  0.7818608E-02  0.9312680E-01
          1   -1    0    0  501    0  0.00000000000E+00  0.00000000000E+00  0.32466264010E+04  0.32466264010E+04  0.00000000000E+00 0. -1.
         -1   -1    0    0    0  501 -0.00000000000E+00 -0.00000000000E+00 -0.76424849072E+02  0.76424849072E+02  0.00000000000E+00 0.  1.
         23    2    1    2    0    0 -0.22704309370E+03  0.16873571201E+03  0.29492611053E+04  0.29641153396E+04  0.88421557814E+02 0.  0.
         13    1    3    3    0    0 -0.95088043722E+02  0.89960704521E+02  0.95305417993E+03  0.96200152510E+03  0.00000000000E+00 0.  1.
        -13    1    3    3    0    0 -0.13195504998E+03  0.78775007485E+02  0.19962069254E+04  0.20021138145E+04  0.00000000000E+00 0. -1.
         22    1    1    2    0    0  0.22704309370E+03 -0.16873571201E+03  0.22094044656E+03  0.35893591047E+03  0.00000000000E+00 0.  1.
<mgrwt>
<rscale>  0 0.99623879E+03</rscale>
<asrwt>0</asrwt>
<pdfrwt beam="1">  1        1 0.49948088E+00 0.99623879E+03</pdfrwt>
<pdfrwt beam="2">  1       -1 0.11757672E-01 0.99623879E+03</pdfrwt>
<totfact> 0.19734100E+01</totfact>
</mgrwt>
</event>
<event>
 6    1  0.9364335E-007  0.2512992E+04  0.7818608E-02  0.8398372E-01
          1   -1    0    0  501    0  0.00000000000E+00  0.00000000000E+00  0.13909810401E+04  0.13909810401E+04  0.00000000000E+00 0. -1.
         -1   -1    0    0    0  501 -0.00000000000E+00 -0.00000000000E+00 -0.11350134998E+04  0.11350134998E+04  0.00000000000E+00 0.  1.
         23    2    1    2    0    0  0.37822239783E+03 -0.54815789760E+03 -0.94094039396E+03  0.11562800201E+04  0.89918835022E+02 0.  0.
         13    1    3    3    0    0  0.19805178000E+03 -0.21550541256E+03 -0.37899873369E+03  0.47886024114E+03  0.00000000000E+00 0. -1.
        -13    1    3    3    0    0  0.18017061782E+03 -0.33265248504E+03 -0.56194166027E+03  0.67741977892E+03  0.00000000000E+00 0.  1.
         22    1    1    2    0    0 -0.37822239783E+03  0.54815789760E+03  0.11969079342E+04  0.13697145199E+04  0.00000000000E+00 0. -1.
<mgrwt>
<rscale>  0 0.25129920E+04</rscale>
<asrwt>0</asrwt>
<pdfrwt beam="1">  1        1 0.21399708E+00 0.25129920E+04</pdfrwt>
<pdfrwt beam="2">  1       -1 0.17461746E+00 0.25129920E+04</pdfrwt>
<totfact> 0.15749780E+00</totfact>
</mgrwt>
</event>
<event>
 6    1  0.9364335E-007  0.1485212E+04  0.7818608E-02  0.8894347E-01
         -2   -1    0    0    0  501 -0.00000000000E+00  0.00000000000E+00  0.47907868305E+03  0.47907868305E+03  0.00000000000E+00 0.  1.
          2   -1    0    0  501    0  0.00000000000E+00 -0.00000000000E+00 -0.11510916163E+04  0.11510916163E+04  0.00000000000E+00 0. -1.
         23    2    1    2    0    0  0.40933023743E+03 -0.40322830127E+03  0.17429501355E+03  0.60724241966E+03  0.90665860533E+02 0.  0.
         11    1    3    3    0    0  0.40871677979E+02 -0.38393943605E+02 -0.99623220938E+01  0.56954691008E+02  0.00000000000E+00 0. -1.
        -11    1    3    3    0    0  0.36845855945E+03 -0.36483435767E+03  0.18425733565E+03  0.55028772865E+03  0.00000000000E+00 0.  1.
         22    1    1    2    0    0 -0.40933023743E+03  0.40322830127E+03 -0.84630794685E+03  0.10229278797E+04  0.00000000000E+00 0. -1.
<mgrwt>
<rscale>  0 0.14852117E+04</rscale>
<asrwt>0</asrwt>
<pdfrwt beam="1">  1        2 0.17709102E+00 0.14852117E+04</pdfrwt>
<pdfrwt beam="2">  1       -2 0.73704413E-01 0.14852117E+04</pdfrwt>
<totfact> 0.32546561E+01</totfact>
</mgrwt>
</event>
<event>
 6    1  0.9364335E-007  0.1919559E+04  0.7818608E-02  0.8645181E-01
         -2   -1    0    0    0  501 -0.00000000000E+00  0.00000000000E+00  0.73678319982E+03  0.73678319982E+03  0.00000000000E+00 0.  1.
          2   -1    0    0  501    0  0.00000000000E+00 -0.00000000000E+00 -0.12502686165E+04  0.12502686165E+04  0.00000000000E+00 0. -1.
         23    2    1    2    0    0  0.83829295508E+03 -0.20079341588E+01 -0.73656811066E+03  0.11195813565E+04  0.90502607030E+02 0.  0.
         13    1    3    3    0    0  0.15327529296E+03 -0.31262786681E+02 -0.15961820010E+03  0.22349193960E+03  0.00000000000E+00 0. -1.
        -13    1    3    3    0    0  0.68501766213E+03  0.29254852522E+02 -0.57694991057E+03  0.89608941693E+03  0.00000000000E+00 0.  1.
         22    1    1    2    0    0 -0.83829295508E+03  0.20079341588E+01  0.22308269395E+03  0.86747045983E+03  0.00000000000E+00 0.  1.
<mgrwt>
<rscale>  0 0.19195592E+04</rscale>
<asrwt>0</asrwt>
<pdfrwt beam="1">  1        2 0.19234902E+00 0.19195592E+04</pdfrwt>
<pdfrwt beam="2">  1       -2 0.11335126E+00 0.19195592E+04</pdfrwt>
<totfact> 0.10100567E+01</totfact>
</mgrwt>
</event>
<event>
 6    1  0.9364335E-007  0.1664309E+04  0.7818608E-02  0.8781986E-01
          2   -1    0    0  501    0  0.00000000000E+00  0.00000000000E+00  0.26603670326E+04  0.26603670326E+04  0.00000000000E+00 0. -1.
         -2   -1    0    0    0  501 -0.00000000000E+00 -0.00000000000E+00 -0.26029540852E+03  0.26029540852E+03  0.00000000000E+00 0.  1.
         23    2    1    2    0    0 -0.47471855615E+03  0.32292243532E+03  0.15298465519E+03  0.60138745687E+03  0.92876055998E+02 0.  0.
         11    1    3    3    0    0 -0.30770370077E+03  0.15466789678E+03  0.97125074656E+02  0.35782258996E+03  0.00000000000E+00 0.  1.
        -11    1    3    3    0    0 -0.16701485538E+03  0.16825453854E+03  0.55859580532E+02  0.24356486691E+03  0.00000000000E+00 0. -1.
         22    1    1    2    0    0  0.47471855615E+03 -0.32292243532E+03  0.22470869688E+04  0.23192749842E+04  0.00000000000E+00 0. -1.
<mgrwt>
<rscale>  0 0.16643093E+04</rscale>
<asrwt>0</asrwt>
<pdfrwt beam="1">  1        2 0.40928722E+00 0.16643093E+04</pdfrwt>
<pdfrwt beam="2">  1       -2 0.40045449E-01 0.16643093E+04</pdfrwt>
<totfact> 0.15829133E+01</totfact>
</mgrwt>
</event>
<event>
 6    1  0.9364335E-007  0.5833501E+04  0.7818608E-02  0.7711395E-01
         -2   -1    0    0    0  501 -0.00000000000E+00  0.00000000000E+00  0.28422114106E+04  0.28422114106E+04  0.00000000000E+00 0.  1.
          2   -1    0    0  501    0  0.00000000000E+00 -0.00000000000E+00 -0.29932448492E+04  0.29932448492E+04  0.00000000000E+00 0. -1.
         23    2    1    2    0    0  0.25330945629E+03 -0.18566994797E+04  0.21594207689E+04  0.28606121826E+04  0.92224529270E+02 0.  0.
         13    1    3    3    0    0  0.12509299821E+03 -0.12075476883E+04  0.13670610198E+04  0.18282985286E+04  0.00000000000E+00 0. -1.
        -13    1    3    3    0    0  0.12821645809E+03 -0.64915179136E+03  0.79235974906E+03  0.10323136540E+04  0.00000000000E+00 0.  1.
         22    1    1    2    0    0 -0.25330945629E+03  0.18566994797E+04 -0.23104542075E+04  0.29748440771E+04  0.00000000000E+00 0. -1.
<mgrwt>
<rscale>  0 0.58335014E+04</rscale>
<asrwt>0</asrwt>
<pdfrwt beam="1">  1        2 0.46049921E+00 0.58335014E+04</pdfrwt>
<pdfrwt beam="2">  1       -2 0.43726329E+00 0.58335014E+04</pdfrwt>
<totfact> 0.50672527E-03</totfact>
</mgrwt>
</event>
<event>
 6    1  0.9364335E-007  0.2691882E+04  0.7818608E-02  0.8337644E-01
          1   -1    0    0  501    0  0.00000000000E+00  0.00000000000E+00  0.21527341957E+04  0.21527341957E+04  0.00000000000E+00 0. -1.
         -1   -1    0    0    0  501 -0.00000000000E+00 -0.00000000000E+00 -0.84151448487E+03  0.84151448487E+03  0.00000000000E+00 0.  1.
         23    2    1    2    0    0  0.10296546697E+04 -0.34022871055E+03 -0.22711010394E+03  0.11121214444E+04  0.96388761884E+02 0.  0.
         13    1    3    3    0    0  0.49538065052E+03 -0.15164645655E+03 -0.60738379258E+02  0.52162034796E+03  0.00000000000E+00 0. -1.
        -13    1    3    3    0    0  0.53427401917E+03 -0.18858225400E+03 -0.16637172468E+03  0.59050109640E+03  0.00000000000E+00 0.  1.
         22    1    1    2    0    0 -0.10296546697E+04  0.34022871055E+03  0.15383298148E+04  0.18821272362E+04  0.00000000000E+00 0. -1.
<mgrwt>
<rscale>  0 0.26918819E+04</rscale>
<asrwt>0</asrwt>
<pdfrwt beam="1">  1        1 0.33118988E+00 0.26918819E+04</pdfrwt>
<pdfrwt beam="2">  1       -1 0.12946377E+00 0.26918819E+04</pdfrwt>
<totfact> 0.10503774E+00</totfact>
</mgrwt>
</event>
<event>
 6    1  0.9364335E-007  0.2559813E+04  0.7818608E-02  0.8381981E-01
          2   -1    0    0  501    0  0.00000000000E+00  0.00000000000E+00  0.17463099016E+04  0.17463099016E+04  0.00000000000E+00 0. -1.
         -2   -1    0    0    0  501 -0.00000000000E+00 -0.00000000000E+00 -0.93806987608E+03  0.93806987608E+03  0.00000000000E+00 0.  1.
         23    2    1    2    0    0  0.80003539291E+03 -0.93909214691E+02 -0.63621549011E+03  0.10304972827E+04  0.90988621968E+02 0.  0.
         13    1    3    3    0    0  0.45928667813E+03 -0.52000398199E+02 -0.42162874858E+03  0.62563495406E+03  0.00000000000E+00 0. -1.
        -13    1    3    3    0    0  0.34074871478E+03 -0.41908816492E+02 -0.21458674153E+03  0.40486232865E+03  0.00000000000E+00 0.  1.
         22    1    1    2    0    0 -0.80003539291E+03  0.93909214691E+02  0.14444555157E+04  0.16538824950E+04  0.00000000000E+00 0. -1.
<mgrwt>
<rscale>  0 0.25598131E+04</rscale>
<asrwt>0</asrwt>
<pdfrwt beam="1">  1        2 0.26866306E+00 0.25598131E+04</pdfrwt>
<pdfrwt beam="2">  1       -2 0.14431844E+00 0.25598131E+04</pdfrwt>
<totfact> 0.27215892E+00</totfact>
</mgrwt>
</event>
<event>
 6    1  0.9364335E-007  0.2588157E+04  0.7818608E-02  0.8372235E-01
          1   -1    0    0  501    0  0.00000000000E+00  0.00000000000E+00  0.82997619942E+03  0.82997619942E+03  0.00000000000E+00 0. -1.
         -1   -1    0    0    0  501 -0.00000000000E+00 -0.00000000000E+00 -0.20176957421E+04  0.20176957421E+04  0.00000000000E+00 0.  1.
         23    2    1    2    0    0 -0.32096028814E+02 -0.12145300371E+04 -0.10802722050E+04  0.16279759563E+04  0.84878213958E+02 0.  0.
         11    1    3    3    0    0 -0.11607194337E+02 -0.11473047179E+04 -0.10096544773E+04  0.15283471485E+04  0.00000000000E+00 0.  1.
        -11    1    3    3    0    0 -0.20488834477E+02 -0.67225319196E+02 -0.70617727657E+02  0.99628807774E+02  0.00000000000E+00 0. -1.
         22    1    1    2    0    0  0.32096028814E+02  0.12145300371E+04 -0.10744733771E+03  0.12196959853E+04  0.00000000000E+00 0. -1.
<mgrwt>
<rscale>  0 0.25881572E+04</rscale>
<asrwt>0</asrwt>
<pdfrwt beam="1">  1        1 0.12768865E+00 0.25881572E+04</pdfrwt>
<pdfrwt beam="2">  1       -1 0.31041473E+00 0.25881572E+04</pdfrwt>
<totfact> 0.51899812E-01</totfact>
</mgrwt>
</event>
<event>
 6    1  0.9364335E-007  0.2904353E+04  0.7818608E-02  0.8271584E-01
         -2   -1    0    0    0  501 -0.00000000000E+00  0.00000000000E+00  0.60370605858E+03  0.60370605858E+03  0.00000000000E+00 0.  1.
          2   -1    0    0  501    0  0.00000000000E+00 -0.00000000000E+00 -0.34931173408E+04  0.34931173408E+04  0.00000000000E+00 0. -1.
         23    2    1    2    0    0 -0.43345405520E+03  0.13346058417E+04 -0.92673816597E+03  0.16841193289E+04  0.91428196032E+02 0.  0.
         11    1    3    3    0    0 -0.31826366567E+03  0.83926950763E+03 -0.59924196941E+03  0.10792386229E+04  0.00000000000E+00 0. -1.
        -11    1    3    3    0    0 -0.11519038953E+03  0.49533633403E+03 -0.32749619656E+03  0.60488070594E+03  0.00000000000E+00 0.  1.
         22    1    1    2    0    0  0.43345405520E+03 -0.13346058417E+04 -0.19626731162E+04  0.24127040705E+04  0.00000000000E+00 0. -1.
<mgrwt>
<rscale>  0 0.29043527E+04</rscale>
<asrwt>0</asrwt>
<pdfrwt beam="1">  1        2 0.53740268E+00 0.29043527E+04</pdfrwt>
<pdfrwt beam="2">  1       -2 0.92877854E-01 0.29043527E+04</pdfrwt>
<totfact> 0.69641524E-01</totfact>
</mgrwt>
</event>
<event>
 6    1  0.9364335E-007  0.3564562E+04  0.7818608E-02  0.8098658E-01
         -1   -1    0    0    0  501 -0.00000000000E+00  0.00000000000E+00  0.14616487817E+04  0.14616487817E+04  0.00000000000E+00 0.  1.
          1   -1    0    0  501    0  0.00000000000E+00 -0.00000000000E+00 -0.21732481751E+04  0.21732481751E+04  0.00000000000E+00 0. -1.
         23    2    1    2    0    0 -0.74025595817E+03  0.40440822009E+03 -0.19556139007E+04  0.21318676868E+04  0.94388629947E+02 0.  0.
         11    1    3    3    0    0 -0.13969326164E+03  0.46060300921E+02 -0.40347417147E+03  0.42944984074E+03  0.00000000000E+00 0. -1.
        -11    1    3    3    0    0 -0.60056269652E+03  0.35834791917E+03 -0.15521397292E+04  0.17024178461E+04  0.00000000000E+00 0.  1.
         22    1    1    2    0    0  0.74025595817E+03 -0.40440822009E+03  0.12440145073E+04  0.15030292700E+04  0.00000000000E+00 0.  1.
<mgrwt>
<rscale>  0 0.35645620E+04</rscale>
<asrwt>0</asrwt>
<pdfrwt beam="1">  1        1 0.33434587E+00 0.35645620E+04</pdfrwt>
<pdfrwt beam="2">  1       -1 0.22486904E+00 0.35645620E+04</pdfrwt>
<totfact> 0.18825407E-01</totfact>
</mgrwt>
</event>
<event>
 6    1  0.9364335E-007  0.3047713E+04  0.7818608E-02  0.8230236E-01
         -2   -1    0    0    0  501 -0.00000000000E+00  0.00000000000E+00  0.11422507237E+04  0.11422507237E+04  0.00000000000E+00 0.  1.
          2   -1    0    0  501    0  0.00000000000E+00 -0.00000000000E+00 -0.20329503130E+04  0.20329503130E+04  0.00000000000E+00 0. -1.
         23    2    1    2    0    0  0.76987578079E+03  0.37991536948E+03  0.86413991940E+03  0.12216130282E+04  0.92499645940E+02 0.  0.
         13    1    3    3    0    0  0.10438164101E+03  0.88341474552E+02  0.14581695146E+03  0.19990579391E+03  0.00000000000E+00 0. -1.
        -13    1    3    3    0    0  0.66549413978E+03  0.29157389493E+03  0.71832296794E+03  0.10217072343E+04  0.00000000000E+00 0.  1.
         22    1    1    2    0    0 -0.76987578079E+03 -0.37991536948E+03 -0.17548395086E+04  0.19535880085E+04  0.00000000000E+00 0. -1.
<mgrwt>
<rscale>  0 0.30477132E+04</rscale>
<asrwt>0</asrwt>
<pdfrwt beam="1">  1        2 0.31276158E+00 0.30477132E+04</pdfrwt>
<pdfrwt beam="2">  1       -2 0.17573088E+00 0.30477132E+04</pdfrwt>
<totfact> 0.10604793E+00</totfact>
</mgrwt>
</event>
<event>
 6    1  0.9364335E-007  0.2477327E+04  0.7818608E-02  0.8411108E-01
         -2   -1    0    0    0  501 -0.00000000000E+00  0.00000000000E+00  0.14481665398E+04  0.14481665398E+04  0.00000000000E+00 0.  1.
          2   -1    0    0  501    0  0.00000000000E+00 -0.00000000000E+00 -0.10594685659E+04  0.10594685659E+04  0.00000000000E+00 0. -1.
         23    2    1    2    0    0  0.78978270337E+03  0.75497544146E+03  0.78177853689E+03  0.13464904270E+04  0.90078596630E+02 0.  0.
         13    1    3    3    0    0  0.51850754169E+03  0.43885166659E+03  0.50296609290E+03  0.84523117942E+03  0.00000000000E+00 0.  1.
        -13    1    3    3    0    0  0.27127516168E+03  0.31612377487E+03  0.27881244398E+03  0.50125924760E+03  0.00000000000E+00 0. -1.
         22    1    1    2    0    0 -0.78978270337E+03 -0.75497544146E+03 -0.39308056298E+03  0.11611446786E+04  0.00000000000E+00 0. -1.
<mgrwt>
<rscale>  0 0.24773267E+04</rscale>
<asrwt>0</asrwt>
<pdfrwt beam="1">  1        2 0.16299516E+00 0.24773267E+04</pdfrwt>
<pdfrwt beam="2">  1       -2 0.22279485E+00 0.24773267E+04</pdfrwt>
<totfact> 0.19575122E+00</totfact>
</mgrwt>
</event>
<event>
 6    1  0.9364335E-007  0.4150132E+04  0.7818608E-02  0.7974926E-01
         -1   -1    0    0    0  501 -0.00000000000E+00  0.00000000000E+00  0.16309004839E+04  0.16309004839E+04  0.00000000000E+00 0.  1.
          1   -1    0    0  501    0  0.00000000000E+00 -0.00000000000E+00 -0.26401976581E+04  0.26401976581E+04  0.00000000000E+00 0. -1.
         23    2    1    2    0    0 -0.26340455868E+03 -0.13436114352E+04  0.10984119098E+04  0.17577117346E+04  0.91477690632E+02 0.  0.
         11    1    3    3    0    0 -0.46453675975E+02 -0.11356405287E+03  0.84917140918E+02  0.14921681855E+03  0.00000000000E+00 0.  1.
        -11    1    3    3    0    0 -0.21695088271E+03 -0.12300473824E+04  0.10134947689E+04  0.16084949161E+04  0.00000000000E+00 0. -1.
         22    1    1    2    0    0  0.26340455868E+03  0.13436114352E+04 -0.21077090840E+04  0.25133864075E+04  0.00000000000E+00 0. -1.
<mgrwt>
<rscale>  0 0.41501324E+04</rscale>
<asrwt>0</asrwt>
<pdfrwt beam="1">  1        1 0.40618426E+00 0.41501324E+04</pdfrwt>
<pdfrwt beam="2">  1       -1 0.25090777E+00 0.41501324E+04</pdfrwt>
<totfact> 0.57492712E-02</totfact>
</mgrwt>
</event>
<event>
 6    1  0.9364335E-007  0.2604593E+04  0.7818608E-02  0.8366643E-01
          2   -1    0    0  501    0  0.00000000000E+00  0.00000000000E+00  0.29709021026E+04  0.29709021026E+04  0.00000000000E+00 0. -1.
         -2   -1    0    0    0  501 -0.00000000000E+00 -0.00000000000E+00 -0.57086225155E+03  0.57086225155E+03  0.00000000000E+00 0.  1.
         23    2    1    2    0    0  0.37806893670E+03  0.11051314595E+04  0.19797203348E+04  0.23004263022E+04  0.91743686406E+02 0.  0.
         13    1    3    3    0    0  0.72828232159E+02  0.23922250978E+03  0.35500300170E+03  0.43423322282E+03  0.00000000000E+00 0.  1.
        -13    1    3    3    0    0  0.30524070454E+03  0.86590894969E+03  0.16247173331E+04  0.18661930793E+04  0.00000000000E+00 0. -1.
         22    1    1    2    0    0 -0.37806893670E+03 -0.11051314595E+04  0.42031951627E+03  0.12413380520E+04  0.00000000000E+00 0.  1.
<mgrwt>
<rscale>  0 0.26045928E+04</rscale>
<asrwt>0</asrwt>
<pdfrwt beam="1">  1        2 0.45706185E+00 0.26045928E+04</pdfrwt>
<pdfrwt beam="2">  1       -2 0.87824963E-01 0.26045928E+04</pdfrwt>
<totfact> 0.17948151E+00</totfact>
</mgrwt>
</event>
<event>
 6    1  0.9364335E-007  0.2033307E+04  0.7818608E-02  0.8591205E-01
         -1   -1    0    0    0  501 -0.00000000000E+00  0.00000000000E+00  0.83285765058E+03  0.83285765058E+03  0.00000000000E+00 0.  1.
          1   -1    0    0  501    0  0.00000000000E+00 -0.00000000000E+00 -0.12410091100E+04  0.12410091100E+04  0.00000000000E+00 0. -1.
         23    2    1    2    0    0  0.36304883321E+03  0.91179212666E+03 -0.46436902934E+03  0.10908460321E+04  0.10553261483E+03 0.  0.
         11    1    3    3    0    0  0.13032487076E+03  0.37905972756E+03 -0.24321656533E+03  0.46885514463E+03  0.00000000000E+00 0. -1.
        -11    1    3    3    0    0  0.23272396245E+03  0.53273239910E+03 -0.22115246401E+03  0.62199088746E+03  0.00000000000E+00 0.  1.
         22    1    1    2    0    0 -0.36304883321E+03 -0.91179212666E+03  0.56217569889E+02  0.98302072852E+03  0.00000000000E+00 0. -1.
<mgrwt>
<rscale>  0 0.20333066E+04</rscale>
<asrwt>0</asrwt>
<pdfrwt beam="1">  1        1 0.19092448E+00 0.20333066E+04</pdfrwt>
<pdfrwt beam="2">  1       -1 0.12813195E+00 0.20333066E+04</pdfrwt>
<totfact> 0.48538606E+00</totfact>
</mgrwt>
</event>
<event>
 6    1  0.9364335E-007  0.3983334E+04  0.7818608E-02  0.8007917E-01
         -1   -1    0    0    0  501 -0.00000000000E+00  0.00000000000E+00  0.12227450979E+04  0.12227450979E+04  0.00000000000E+00 0.  1.
          1   -1    0    0  501    0  0.00000000000E+00 -0.00000000000E+00 -0.32441243754E+04  0.32441243754E+04  0.00000000000E+00 0. -1.
         23    2    1    2    0    0 -0.50013545709E+03 -0.15625646888E+04 -0.22753414480E+04  0.28066765127E+04  0.92252151391E+02 0.  0.
         13    1    3    3    0    0 -0.30440710721E+03 -0.10899206915E+04 -0.15573276876E+04  0.19250611230E+04  0.00000000000E+00 0. -1.
        -13    1    3    3    0    0 -0.19572834988E+03 -0.47264399738E+03 -0.71801376042E+03  0.88161538970E+03  0.00000000000E+00 0.  1.
         22    1    1    2    0    0  0.50013545709E+03  0.15625646888E+04  0.25396217056E+03  0.16601929606E+04  0.00000000000E+00 0.  1.
<mgrwt>
<rscale>  0 0.39833339E+04</rscale>
<asrwt>0</asrwt>
<pdfrwt beam="1">  1        1 0.49909606E+00 0.39833339E+04</pdfrwt>
<pdfrwt beam="2">  1       -1 0.18811463E+00 0.39833339E+04</pdfrwt>
<totfact> 0.56165824E-02</totfact>
</mgrwt>
</event>
<event>
 6    1  0.9364335E-007  0.8687028E+03  0.7818608E-02  0.9465573E-01
          3   -1    0    0  501    0  0.00000000000E+00  0.00000000000E+00  0.36999058045E+03  0.36999058045E+03  0.00000000000E+00 0. -1.
         -3   -1    0    0    0  501 -0.00000000000E+00 -0.00000000000E+00 -0.50990792503E+03  0.50990792503E+03  0.00000000000E+00 0.  1.
         23    2    1    2    0    0 -0.13399343813E+03 -0.26098444321E+03  0.24511829403E+03  0.39583284459E+03  0.10263304403E+03 0.  0.
         11    1    3    3    0    0 -0.73968624477E+02 -0.18967629166E+03  0.21904314726E+03  0.29904573795E+03  0.00000000000E+00 0.  1.
        -11    1    3    3    0    0 -0.60024813651E+02 -0.71308151557E+02  0.26075146766E+02  0.96787106637E+02  0.00000000000E+00 0. -1.
         22    1    1    2    0    0  0.13399343813E+03  0.26098444321E+03 -0.38503563861E+03  0.48406566089E+03  0.00000000000E+00 0.  1.
<mgrwt>
<rscale>  0 0.86870278E+03</rscale>
<asrwt>0</asrwt>
<pdfrwt beam="1">  1        3 0.56921628E-01 0.86870278E+03</pdfrwt>
<pdfrwt beam="2">  1       -3 0.78447373E-01 0.86870278E+03</pdfrwt>
<totfact> 0.12120719E+01</totfact>
</mgrwt>
</event>
<event>
 6    1  0.9364335E-007  0.2328183E+04  0.7818608E-02  0.8466891E-01
         -1   -1    0    0    0  501 -0.00000000000E+00  0.00000000000E+00  0.18101637611E+04  0.18101637611E+04  0.00000000000E+00 0.  1.
          1   -1    0    0  501    0  0.00000000000E+00 -0.00000000000E+00 -0.74861157785E+03  0.74861157785E+03  0.00000000000E+00 0. -1.
         23    2    1    2    0    0 -0.90129112101E+03  0.48685872176E+03 -0.71827804002E+02  0.10310622457E+04  0.92590611443E+02 0.  0.
         11    1    3    3    0    0 -0.47201251143E+03  0.21423631083E+03 -0.68843442757E+01  0.51840177663E+03  0.00000000000E+00 0. -1.
        -11    1    3    3    0    0 -0.42927860958E+03  0.27262241093E+03 -0.64943459726E+02  0.51266046907E+03  0.00000000000E+00 0.  1.
         22    1    1    2    0    0  0.90129112101E+03 -0.48685872176E+03  0.11333799873E+04  0.15277130933E+04  0.00000000000E+00 0.  1.
<mgrwt>
<rscale>  0 0.23281835E+04</rscale>
<asrwt>0</asrwt>
<pdfrwt beam="1">  1        1 0.11517101E+00 0.23281835E+04</pdfrwt>
<pdfrwt beam="2">  1       -1 0.27848673E+00 0.23281835E+04</pdfrwt>
<totfact> 0.10083473E+00</totfact>
</mgrwt>
</event>
<event>
 6    1  0.9364335E-007  0.2668906E+04  0.7818608E-02  0.8345165E-01
         -2   -1    0    0    0  501 -0.00000000000E+00  0.00000000000E+00  0.78937390448E+03  0.78937390448E+03  0.00000000000E+00 0.  1.
          2   -1    0    0  501    0  0.00000000000E+00 -0.00000000000E+00 -0.22559211946E+04  0.22559211946E+04  0.00000000000E+00 0. -1.
         23    2    1    2    0    0  0.10060553364E+03  0.82095018587E+03 -0.19270093390E+04  0.20986663548E+04  0.83395415063E+02 0.  0.
         11    1    3    3    0    0  0.51052647195E+02  0.20501759140E+03 -0.42859453256E+03  0.47784083010E+03  0.00000000000E+00 0.  1.
        -11    1    3    3    0    0  0.49552886441E+02  0.61593259447E+03 -0.14984148064E+04  0.16208255247E+04  0.00000000000E+00 0. -1.
         22    1    1    2    0    0 -0.10060553364E+03 -0.82095018587E+03  0.46046204885E+03  0.94662874428E+03  0.00000000000E+00 0. -1.
<mgrwt>
<rscale>  0 0.26689064E+04</rscale>
<asrwt>0</asrwt>
<pdfrwt beam="1">  1        2 0.34706480E+00 0.26689064E+04</pdfrwt>
<pdfrwt beam="2">  1       -2 0.12144214E+00 0.26689064E+04</pdfrwt>
<totfact> 0.21766806E+00</totfact>
</mgrwt>
</event>
<event>
 6    1  0.9364335E-007  0.2174142E+04  0.7818608E-02  0.8529269E-01
         -2   -1    0    0    0  501 -0.00000000000E+00  0.00000000000E+00  0.67270702222E+03  0.67270702222E+03  0.00000000000E+00 0.  1.
          2   -1    0    0  501    0  0.00000000000E+00 -0.00000000000E+00 -0.17566682614E+04  0.17566682614E+04  0.00000000000E+00 0. -1.
         23    2    1    2    0    0 -0.42451045887E+03 -0.96593276949E+02  0.56781536231E+03  0.72118755035E+03  0.90320575012E+02 0.  0.
         11    1    3    3    0    0 -0.27180265975E+03 -0.33617888607E+02  0.29724605102E+03  0.40418073077E+03  0.00000000000E+00 0. -1.
        -11    1    3    3    0    0 -0.15270779912E+03 -0.62975388342E+02  0.27056931129E+03  0.31700681958E+03  0.00000000000E+00 0.  1.
         22    1    1    2    0    0  0.42451045887E+03  0.96593276949E+02 -0.16517766014E+04  0.17081877332E+04  0.00000000000E+00 0. -1.
<mgrwt>
<rscale>  0 0.21741417E+04</rscale>
<asrwt>0</asrwt>
<pdfrwt beam="1">  1        2 0.27025665E+00 0.21741417E+04</pdfrwt>
<pdfrwt beam="2">  1       -2 0.10349339E+00 0.21741417E+04</pdfrwt>
<totfact> 0.63579140E+00</totfact>
</mgrwt>
</event>
<event>
 6    1  0.9364335E-007  0.1310951E+04  0.7818608E-02  0.9020926E-01
          1   -1    0    0  501    0  0.00000000000E+00  0.00000000000E+00  0.31971379320E+03  0.31971379320E+03  0.00000000000E+00 0. -1.
         -1   -1    0    0    0  501 -0.00000000000E+00 -0.00000000000E+00 -0.13438522769E+04  0.13438522769E+04  0.00000000000E+00 0.  1.
         23    2    1    2    0    0 -0.33282175310E+03 -0.46986260663E+03 -0.12518666825E+03  0.59601955825E+03  0.89590309002E+02 0.  0.
         11    1    3    3    0    0 -0.77166294259E+02 -0.14789775196E+03 -0.19691016790E+01  0.16683003136E+03  0.00000000000E+00 0. -1.
        -11    1    3    3    0    0 -0.25565545884E+03 -0.32196485468E+03 -0.12321756657E+03  0.42918952689E+03  0.00000000000E+00 0.  1.
         22    1    1    2    0    0  0.33282175310E+03  0.46986260663E+03 -0.89895181546E+03  0.10675465119E+04  0.00000000000E+00 0.  1.
<mgrwt>
<rscale>  0 0.13109510E+04</rscale>
<asrwt>0</asrwt>
<pdfrwt beam="1">  1        1 0.49186738E-01 0.13109510E+04</pdfrwt>
<pdfrwt beam="2">  1       -1 0.20674650E+00 0.13109510E+04</pdfrwt>
<totfact> 0.10714971E+01</totfact>
</mgrwt>
</event>
<event>
 6    1  0.9364335E-007  0.2276589E+04  0.7818608E-02  0.8487209E-01
          3   -1    0    0  501    0  0.00000000000E+00  0.00000000000E+00  0.10085314587E+04  0.10085314587E+04  0.00000000000E+00 0. -1.
         -3   -1    0    0    0  501 -0.00000000000E+00 -0.00000000000E+00 -0.12847536949E+04  0.12847536949E+04  0.00000000000E+00 0.  1.
         23    2    1    2    0    0 -0.18890245690E+03  0.73115683895E+03  0.71721394511E+03  0.10454109982E+04  0.90630296777E+02 0.  0.
         11    1    3    3    0    0 -0.86684810129E+02  0.36979153993E+03  0.42176628314E+03  0.56757980664E+03  0.00000000000E+00 0.  1.
        -11    1    3    3    0    0 -0.10221764678E+03  0.36136529902E+03  0.29544766196E+03  0.47783119154E+03  0.00000000000E+00 0. -1.
         22    1    1    2    0    0  0.18890245690E+03 -0.73115683895E+03 -0.99343618127E+03  0.12478741554E+04  0.00000000000E+00 0.  1.
<mgrwt>
<rscale>  0 0.22765891E+04</rscale>
<asrwt>0</asrwt>
<pdfrwt beam="1">  1        3 0.15515869E+00 0.22765891E+04</pdfrwt>
<pdfrwt beam="2">  1       -3 0.19765441E+00 0.22765891E+04</pdfrwt>
<totfact> 0.10637991E-01</totfact>
</mgrwt>
</event>
<event>
 6    1  0.9364335E-007  0.1428042E+04  0.7818608E-02  0.8933767E-01
          1   -1    0    0  501    0  0.00000000000E+00  0.00000000000E+00  0.76256787585E+03  0.76256787585E+03  0.00000000000E+00 0. -1.
         -1   -1    0    0    0  501 -0.00000000000E+00 -0.00000000000E+00 -0.66856436315E+03  0.66856436315E+03  0.00000000000E+00 0.  1.
         23    2    1    2    0    0  0.43698587621E+02 -0.43060703233E+03 -0.52075209365E+03  0.67929685916E+03  0.54124827767E+02 0.  0.
         13    1    3    3    0    0  0.35306823995E+02 -0.18978144285E+03 -0.26561710053E+03  0.32835348630E+03  0.00000000000E+00 0. -1.
        -13    1    3    3    0    0  0.83917636258E+01 -0.24082558948E+03 -0.25513499312E+03  0.35094337287E+03  0.00000000000E+00 0.  1.
         22    1    1    2    0    0 -0.43698587621E+02  0.43060703233E+03  0.61475560634E+03  0.75183537984E+03  0.00000000000E+00 0. -1.
<mgrwt>
<rscale>  0 0.14280416E+04</rscale>
<asrwt>0</asrwt>
<pdfrwt beam="1">  1        1 0.11731813E+00 0.14280416E+04</pdfrwt>
<pdfrwt beam="2">  1       -1 0.10285606E+00 0.14280416E+04</pdfrwt>
<totfact> 0.20744824E+01</totfact>
</mgrwt>
</event>
<event>
 6    1  0.9364335E-007  0.6124591E+04  0.7818608E-02  0.7675143E-01
         -2   -1    0    0    0  501 -0.00000000000E+00  0.00000000000E+00  0.25197448265E+04  0.25197448265E+04  0.00000000000E+00 0.  1.
          2   -1    0    0  501    0  0.00000000000E+00 -0.00000000000E+00 -0.37216681015E+04  0.37216681015E+04  0.00000000000E+00 0. -1.
         23    2    1    2    0    0  0.16901542794E+04 -0.16103701779E+04  0.14175963003E+04  0.27325959758E+04  0.87108543289E+02 0.  0.
         11    1    3    3    0    0  0.94386319072E+03 -0.95689434619E+03  0.82820367233E+03  0.15787481862E+04  0.00000000000E+00 0.  1.
        -11    1    3    3    0    0  0.74629108868E+03 -0.65347583173E+03  0.58939262798E+03  0.11538477896E+04  0.00000000000E+00 0. -1.
         22    1    1    2    0    0 -0.16901542794E+04  0.16103701779E+04 -0.26195195754E+04  0.35088169522E+04  0.00000000000E+00 0. -1.
<mgrwt>
<rscale>  0 0.61245911E+04</rscale>
<asrwt>0</asrwt>
<pdfrwt beam="1">  1        2 0.57256432E+00 0.61245911E+04</pdfrwt>
<pdfrwt beam="2">  1       -2 0.38765305E+00 0.61245911E+04</pdfrwt>
<totfact> 0.33415716E-03</totfact>
</mgrwt>
</event>
<event>
 6    1  0.9364335E-007  0.1514101E+04  0.7818608E-02  0.8875130E-01
          1   -1    0    0  501    0  0.00000000000E+00  0.00000000000E+00  0.22193860146E+04  0.22193860146E+04  0.00000000000E+00 0. -1.
         -1   -1    0    0    0  501 -0.00000000000E+00 -0.00000000000E+00 -0.25823603820E+03  0.25823603820E+03  0.00000000000E+00 0.  1.
         23    2    1    2    0    0  0.27591323408E+03 -0.96654460295E+02  0.21220040663E+04  0.21439392159E+04  0.90021700198E+02 0.  0.
         13    1    3    3    0    0  0.18240964217E+03 -0.10413093550E+03  0.13466458152E+04  0.13629275406E+04  0.00000000000E+00 0. -1.
        -13    1    3    3    0    0  0.93503591916E+02  0.74764752068E+01  0.77535825112E+03  0.78101167530E+03  0.00000000000E+00 0.  1.
         22    1    1    2    0    0 -0.27591323408E+03  0.96654460295E+02 -0.16085408989E+03  0.33368283695E+03  0.00000000000E+00 0.  1.
<mgrwt>
<rscale>  0 0.15141010E+04</rscale>
<asrwt>0</asrwt>
<pdfrwt beam="1">  1        1 0.34144399E+00 0.15141010E+04</pdfrwt>
<pdfrwt beam="2">  1       -1 0.39728623E-01 0.15141010E+04</pdfrwt>
<totfact> 0.12608844E+01</totfact>
</mgrwt>
</event>
<event>
 6    1  0.9364335E-007  0.9375736E+03  0.7818608E-02  0.9379794E-01
         -2   -1    0    0    0  501 -0.00000000000E+00  0.00000000000E+00  0.14985517332E+03  0.14985517332E+03  0.00000000000E+00 0.  1.
          2   -1    0    0  501    0  0.00000000000E+00 -0.00000000000E+00 -0.14664896662E+04  0.14664896662E+04  0.00000000000E+00 0. -1.
         23    2    1    2    0    0  0.16632470649E+03 -0.38383854982E+03 -0.31732868093E+03  0.53301292079E+03  0.91702462765E+02 0.  0.
         11    1    3    3    0    0  0.23317095021E+02 -0.10141049248E+03 -0.12481944084E+03  0.16250436215E+03  0.00000000000E+00 0.  1.
        -11    1    3    3    0    0  0.14300761147E+03 -0.28242805734E+03 -0.19250924008E+03  0.37050855864E+03  0.00000000000E+00 0. -1.
         22    1    1    2    0    0 -0.16632470649E+03  0.38383854982E+03 -0.99930581197E+03  0.10833319187E+04  0.00000000000E+00 0.  1.
<mgrwt>
<rscale>  0 0.93757360E+03</rscale>
<asrwt>0</asrwt>
<pdfrwt beam="1">  1        2 0.22561379E+00 0.93757360E+03</pdfrwt>
<pdfrwt beam="2">  1       -2 0.23054643E-01 0.93757360E+03</pdfrwt>
<totfact> 0.22031379E+02</totfact>
</mgrwt>
</event>
<event>
 6    1  0.9364335E-007  0.1481404E+04  0.7818608E-02  0.8896914E-01
          2   -1    0    0  501    0  0.00000000000E+00  0.00000000000E+00  0.34231394231E+04  0.34231394231E+04  0.00000000000E+00 0. -1.
         -2   -1    0    0    0  501 -0.00000000000E+00 -0.00000000000E+00 -0.16027378956E+03  0.16027378956E+03  0.00000000000E+00 0.  1.
         23    2    1    2    0    0 -0.47786878840E+03  0.24825482602E+03  0.41745905652E+03  0.68749753259E+03  0.91606527470E+02 0.  0.
         13    1    3    3    0    0 -0.10537005757E+03  0.94731079127E+02  0.13269830449E+03  0.19412796398E+03  0.00000000000E+00 0. -1.
        -13    1    3    3    0    0 -0.37249873084E+03  0.15352374689E+03  0.28476075203E+03  0.49336956861E+03  0.00000000000E+00 0.  1.
         22    1    1    2    0    0  0.47786878840E+03 -0.24825482602E+03  0.28454065771E+04  0.28959156801E+04  0.00000000000E+00 0. -1.
<mgrwt>
<rscale>  0 0.14814041E+04</rscale>
<asrwt>0</asrwt>
<pdfrwt beam="1">  1        2 0.52663678E+00 0.14814041E+04</pdfrwt>
<pdfrwt beam="2">  1       -2 0.24657509E-01 0.14814041E+04</pdfrwt>
<totfact> 0.13259768E+01</totfact>
</mgrwt>
</event>
<event>
 6    1  0.1327732E-006  0.4727633E+04  0.7818608E-02  0.7871953E-01
         -1   -1    0    0    0  501 -0.00000000000E+00  0.00000000000E+00  0.21617788457E+04  0.21617788457E+04  0.00000000000E+00 0.  1.
          1   -1    0    0  501    0  0.00000000000E+00 -0.00000000000E+00 -0.25847367100E+04  0.25847367100E+04  0.00000000000E+00 0. -1.
         23    2    1    2    0    0 -0.14525914373E+02  0.43491136957E+03 -0.25434434215E+04  0.25818405454E+04  0.86239560128E+02 0.  0.
         11    1    3    3    0    0 -0.18539242842E+02  0.67910456935E+02 -0.59316422014E+03  0.59732681653E+03  0.00000000000E+00 0. -1.
        -11    1    3    3    0    0  0.40133284695E+01  0.36700091264E+03 -0.19502792014E+04  0.19845137288E+04  0.00000000000E+00 0.  1.
         22    1    1    2    0    0  0.14525914373E+02 -0.43491136957E+03  0.21204855573E+04  0.21646750103E+04  0.00000000000E+00 0.  1.
<mgrwt>
<rscale>  0 0.47276333E+04</rscale>
<asrwt>0</asrwt>
<pdfrwt beam="1">  1        1 0.39765180E+00 0.47276333E+04</pdfrwt>
<pdfrwt beam="2">  1       -1 0.33258136E+00 0.47276333E+04</pdfrwt>
<totfact> 0.17663655E-02</totfact>
</mgrwt>
</event>
<event>
 6    1  0.9364335E-007  0.4270156E+04  0.7818608E-02  0.7952160E-01
          2   -1    0    0  501    0  0.00000000000E+00  0.00000000000E+00  0.25346383900E+04  0.25346383900E+04  0.00000000000E+00 0. -1.
         -2   -1    0    0    0  501 -0.00000000000E+00 -0.00000000000E+00 -0.17985043857E+04  0.17985043857E+04  0.00000000000E+00 0.  1.
         23    2    1    2    0    0  0.10622628209E+04 -0.18417684178E+04  0.55429715220E+03  0.21992313797E+04  0.94128226085E+02 0.  0.
         11    1    3    3    0    0  0.56177593418E+03 -0.10356261098E+04  0.27057954172E+03  0.12088535593E+04  0.00000000000E+00 0. -1.
        -11    1    3    3    0    0  0.50048688670E+03 -0.80614230801E+03  0.28371761048E+03  0.99037782034E+03  0.00000000000E+00 0.  1.
         22    1    1    2    0    0 -0.10622628209E+04  0.18417684178E+04  0.18183685213E+03  0.21339113961E+04  0.00000000000E+00 0.  1.
<mgrwt>
<rscale>  0 0.42701561E+04</rscale>
<asrwt>0</asrwt>
<pdfrwt beam="1">  1        2 0.38994437E+00 0.42701561E+04</pdfrwt>
<pdfrwt beam="2">  1       -2 0.27669298E+00 0.42701561E+04</pdfrwt>
<totfact> 0.11316673E-01</totfact>
</mgrwt>
</event>
<event>
 6    1  0.9364335E-007  0.1651594E+04  0.7818608E-02  0.8789464E-01
         -1   -1    0    0    0  501 -0.00000000000E+00  0.00000000000E+00  0.47700842169E+03  0.47700842169E+03  0.00000000000E+00 0.  1.
          1   -1    0    0  501    0  0.00000000000E+00 -0.00000000000E+00 -0.14296203898E+04  0.14296203898E+04  0.00000000000E+00 0. -1.
         23    2    1    2    0    0 -0.19455310367E+03  0.75378217598E+03 -0.78488625093E+03  0.11102806494E+04  0.10314172089E+03 0.  0.
         13    1    3    3    0    0 -0.12675225950E+03  0.29318850619E+03 -0.30396751943E+03  0.44093297486E+03  0.00000000000E+00 0. -1.
        -13    1    3    3    0    0 -0.67800844168E+02  0.46059366980E+03 -0.48091873149E+03  0.66934767455E+03  0.00000000000E+00 0.  1.
         22    1    1    2    0    0  0.19455310367E+03 -0.75378217598E+03 -0.16772571715E+03  0.79634816203E+03  0.00000000000E+00 0.  1.
<mgrwt>
<rscale>  0 0.16515943E+04</rscale>
<asrwt>0</asrwt>
<pdfrwt beam="1">  1        1 0.21994159E+00 0.16515943E+04</pdfrwt>
<pdfrwt beam="2">  1       -1 0.73385913E-01 0.16515943E+04</pdfrwt>
<totfact> 0.13092488E+01</totfact>
</mgrwt>
</event>
<event>
 6    1  0.9364335E-007  0.4798839E+04  0.7818608E-02  0.7860310E-01
          1   -1    0    0  501    0  0.00000000000E+00  0.00000000000E+00  0.13180767764E+04  0.13180767764E+04  0.00000000000E+00 0. -1.
         -1   -1    0    0    0  501 -0.00000000000E+00 -0.00000000000E+00 -0.43678898929E+04  0.43678898929E+04  0.00000000000E+00 0.  1.
         23    2    1    2    0    0 -0.18110239762E+04  0.11013859198E+04 -0.19536899247E+03  0.21305890460E+04  0.91552461198E+02 0.  0.
         13    1    3    3    0    0 -0.10670455457E+04  0.61589640066E+03 -0.78081751946E+02  0.12345085391E+04  0.00000000000E+00 0.  1.
        -13    1    3    3    0    0 -0.74397843046E+03  0.48548951912E+03 -0.11728724052E+03  0.89608050696E+03  0.00000000000E+00 0. -1.
         22    1    1    2    0    0  0.18110239762E+04 -0.11013859198E+04 -0.28544441240E+04  0.35553776232E+04  0.00000000000E+00 0.  1.
<mgrwt>
<rscale>  0 0.47988391E+04</rscale>
<asrwt>0</asrwt>
<pdfrwt beam="1">  1        1 0.20278105E+00 0.47988391E+04</pdfrwt>
<pdfrwt beam="2">  1       -1 0.67198305E+00 0.47988391E+04</pdfrwt>
<totfact> 0.16128895E-03</totfact>
</mgrwt>
</event>
<event>
 6    1  0.9364335E-007  0.1307506E+04  0.7818608E-02  0.9023634E-01
          2   -1    0    0  501    0  0.00000000000E+00  0.00000000000E+00  0.12138398860E+04  0.12138398860E+04  0.00000000000E+00 0. -1.
         -2   -1    0    0    0  501 -0.00000000000E+00 -0.00000000000E+00 -0.35209997851E+03  0.35209997851E+03  0.00000000000E+00 0.  1.
         23    2    1    2    0    0  0.14519333766E+03 -0.26097563620E+03 -0.25927246773E+03  0.40582860546E+03  0.91023384374E+02 0.  0.
         11    1    3    3    0    0  0.11062029005E+03 -0.12244090311E+03 -0.10481859086E+03  0.19548800555E+03  0.00000000000E+00 0. -1.
        -11    1    3    3    0    0  0.34573047609E+02 -0.13853473309E+03 -0.15445387686E+03  0.21034059991E+03  0.00000000000E+00 0.  1.
         22    1    1    2    0    0 -0.14519333766E+03  0.26097563620E+03  0.11210123753E+04  0.11601112591E+04  0.00000000000E+00 0. -1.
<mgrwt>
<rscale>  0 0.13075060E+04</rscale>
<asrwt>0</asrwt>
<pdfrwt beam="1">  1        2 0.18674459E+00 0.13075060E+04</pdfrwt>
<pdfrwt beam="2">  1       -2 0.54169228E-01 0.13075060E+04</pdfrwt>
<totfact> 0.58412670E+01</totfact>
</mgrwt>
</event>
<event>
 6    1  0.9364335E-007  0.2354378E+04  0.7818608E-02  0.8456784E-01
         -2   -1    0    0    0  501 -0.00000000000E+00  0.00000000000E+00  0.64275357009E+03  0.64275357009E+03  0.00000000000E+00 0.  1.
          2   -1    0    0  501    0  0.00000000000E+00 -0.00000000000E+00 -0.21559964641E+04  0.21559964641E+04  0.00000000000E+00 0. -1.
         23    2    1    2    0    0 -0.49494372237E+03  0.79683815535E+03  0.84077870854E+02  0.94635861767E+03  0.92764275133E+02 0.  0.
         11    1    3    3    0    0 -0.38216459411E+03  0.58074037038E+03  0.25549897876E+02  0.69567373967E+03  0.00000000000E+00 0. -1.
        -11    1    3    3    0    0 -0.11277912826E+03  0.21609778497E+03  0.58527972977E+02  0.25068487800E+03  0.00000000000E+00 0.  1.
         22    1    1    2    0    0  0.49494372237E+03 -0.79683815535E+03 -0.15973207649E+04  0.18523914165E+04  0.00000000000E+00 0. -1.
<mgrwt>
<rscale>  0 0.23543784E+04</rscale>
<asrwt>0</asrwt>
<pdfrwt beam="1">  1        2 0.33169177E+00 0.23543784E+04</pdfrwt>
<pdfrwt beam="2">  1       -2 0.98885163E-01 0.23543784E+04</pdfrwt>
<totfact> 0.41845774E+00</totfact>
</mgrwt>
</event>
<event>
 6    1  0.9364335E-007  0.3479994E+04  0.7818608E-02  0.8118548E-01
          2   -1    0    0  501    0  0.00000000000E+00  0.00000000000E+00  0.19510457777E+04  0.19510457777E+04  0.00000000000E+00 0. -1.
         -2   -1    0    0    0  501 -0.00000000000E+00 -0.00000000000E+00 -0.15517775502E+04  0.15517775502E+04  0.00000000000E+00 0.  1.
         23    2    1    2    0    0 -0.91001082139E+03  0.53504579608E+03 -0.11911112904E+04  0.15939753218E+04  0.87278414152E+02 0.  0.
         11    1    3    3    0    0 -0.83944389730E+03  0.51816236215E+03 -0.11014013178E+04  0.14785949929E+04  0.00000000000E+00 0. -1.
        -11    1    3    3    0    0 -0.70566924081E+02  0.16883433935E+02 -0.89709972597E+02  0.11538032891E+03  0.00000000000E+00 0.  1.
         22    1    1    2    0    0  0.91001082139E+03 -0.53504579608E+03  0.15903795179E+04  0.19088480060E+04  0.00000000000E+00 0. -1.
<mgrwt>
<rscale>  0 0.34799937E+04</rscale>
<asrwt>0</asrwt>
<pdfrwt beam="1">  1        2 0.30016089E+00 0.34799937E+04</pdfrwt>
<pdfrwt beam="2">  1       -2 0.23873501E+00 0.34799937E+04</pdfrwt>
<totfact> 0.44162845E-01</totfact>
</mgrwt>
</event>
<event>
 6    1  0.9364335E-007  0.3628529E+04  0.7818608E-02  0.8083988E-01
          2   -1    0    0  501    0  0.00000000000E+00  0.00000000000E+00  0.36811946841E+04  0.36811946841E+04  0.00000000000E+00 0. -1.
         -2   -1    0    0    0  501 -0.00000000000E+00 -0.00000000000E+00 -0.89415411754E+03  0.89415411754E+03  0.00000000000E+00 0.  1.
         23    2    1    2    0    0 -0.16694295768E+04 -0.21194008709E+03  0.54360227917E+03  0.17709007166E+04  0.93124635153E+02 0.  0.
         13    1    3    3    0    0 -0.14032852171E+04 -0.15023901133E+03  0.43394914709E+03  0.14765138073E+04  0.00000000000E+00 0. -1.
        -13    1    3    3    0    0 -0.26614435973E+03 -0.61701075766E+02  0.10965313208E+03  0.29438690926E+03  0.00000000000E+00 0.  1.
         22    1    1    2    0    0  0.16694295768E+04  0.21194008709E+03  0.22434382874E+04  0.28044480851E+04  0.00000000000E+00 0. -1.
<mgrwt>
<rscale>  0 0.36285288E+04</rscale>
<asrwt>0</asrwt>
<pdfrwt beam="1">  1        2 0.56633763E+00 0.36285288E+04</pdfrwt>
<pdfrwt beam="2">  1       -2 0.13756217E+00 0.36285288E+04</pdfrwt>
<totfact> 0.18381363E-01</totfact>
</mgrwt>
</event>
<event>
 6    1  0.9364335E-007  0.2227867E+04  0.7818608E-02  0.8506918E-01
         -1   -1    0    0    0  501 -0.00000000000E+00  0.00000000000E+00  0.49840134070E+03  0.49840134070E+03  0.00000000000E+00 0.  1.
          1   -1    0    0  501    0  0.00000000000E+00 -0.00000000000E+00 -0.24896560708E+04  0.24896560708E+04  0.00000000000E+00 0. -1.
         23    2    1    2    0    0  0.27514822530E+03  0.82876334515E+03 -0.19207448977E+04  0.21119713058E+04  0.92771796121E+02 0.  0.
         13    1    3    3    0    0  0.14517966290E+03  0.30892993108E+03 -0.69924867407E+03  0.77811538028E+03  0.00000000000E+00 0.  1.
        -13    1    3    3    0    0  0.12996856240E+03  0.51983341407E+03 -0.12214962236E+04  0.13338559255E+04  0.00000000000E+00 0. -1.
         22    1    1    2    0    0 -0.27514822530E+03 -0.82876334515E+03 -0.70509832365E+02  0.87608610571E+03  0.00000000000E+00 0.  1.
<mgrwt>
<rscale>  0 0.22278671E+04</rscale>
<asrwt>0</asrwt>
<pdfrwt beam="1">  1        1 0.38302402E+00 0.22278671E+04</pdfrwt>
<pdfrwt beam="2">  1       -1 0.76677128E-01 0.22278671E+04</pdfrwt>
<totfact> 0.21379320E+00</totfact>
</mgrwt>
</event>
<event>
 6    1  0.9364335E-007  0.1509092E+04  0.7818608E-02  0.8878429E-01
          2   -1    0    0  501    0  0.00000000000E+00  0.00000000000E+00  0.12834213450E+04  0.12834213450E+04  0.00000000000E+00 0. -1.
         -2   -1    0    0    0  501 -0.00000000000E+00 -0.00000000000E+00 -0.44361078584E+03  0.44361078584E+03  0.00000000000E+00 0.  1.
         23    2    1    2    0    0 -0.37687083729E+03  0.12050439973E+03  0.11528983819E+04  0.12224759663E+04  0.93380249687E+02 0.  0.
         13    1    3    3    0    0 -0.20064667001E+03  0.10978261100E+03  0.69808202521E+03  0.73459500529E+03  0.00000000000E+00 0.  1.
        -13    1    3    3    0    0 -0.17622416728E+03  0.10721788727E+02  0.45481635665E+03  0.48788096106E+03  0.00000000000E+00 0. -1.
         22    1    1    2    0    0  0.37687083729E+03 -0.12050439973E+03 -0.31308782274E+03  0.50455616447E+03  0.00000000000E+00 0.  1.
<mgrwt>
<rscale>  0 0.15090918E+04</rscale>
<asrwt>0</asrwt>
<pdfrwt beam="1">  1        2 0.19744944E+00 0.15090918E+04</pdfrwt>
<pdfrwt beam="2">  1       -2 0.68247814E-01 0.15090918E+04</pdfrwt>
<totfact> 0.32066692E+01</totfact>
</mgrwt>
</event>
<event>
 6    1  0.9364335E-007  0.1501557E+04  0.7818608E-02  0.8883418E-01
          1   -1    0    0  501    0  0.00000000000E+00  0.00000000000E+00  0.14377993901E+04  0.14377993901E+04  0.00000000000E+00 0. -1.
         -1   -1    0    0    0  501 -0.00000000000E+00 -0.00000000000E+00 -0.39203555976E+03  0.39203555976E+03  0.00000000000E+00 0.  1.
         23    2    1    2    0    0  0.32199439807E+03 -0.22008075281E+03  0.13026521068E+04  0.13628151251E+04  0.90810922589E+02 0.  0.
         13    1    3    3    0    0  0.23743943455E+03 -0.12391438079E+03  0.77986386164E+03  0.82457255687E+03  0.00000000000E+00 0. -1.
        -13    1    3    3    0    0  0.84554963520E+02 -0.96166372016E+02  0.52278824517E+03  0.53824256822E+03  0.00000000000E+00 0.  1.
         22    1    1    2    0    0 -0.32199439807E+03  0.22008075281E+03 -0.25688827647E+03  0.46701982478E+03  0.00000000000E+00 0.  1.
<mgrwt>
<rscale>  0 0.15015572E+04</rscale>
<asrwt>0</asrwt>
<pdfrwt beam="1">  1        1 0.22119990E+00 0.15015572E+04</pdfrwt>
<pdfrwt beam="2">  1       -1 0.60313164E-01 0.15015572E+04</pdfrwt>
<totfact> 0.19487126E+01</totfact>
</mgrwt>
</event>
<event>
 6    1  0.9364335E-007  0.1092891E+04  0.7818608E-02  0.9212149E-01
          1   -1    0    0  501    0  0.00000000000E+00  0.00000000000E+00  0.65335717198E+03  0.65335717198E+03  0.00000000000E+00 0. -1.
         -1   -1    0    0    0  501 -0.00000000000E+00 -0.00000000000E+00 -0.45702810435E+03  0.45702810435E+03  0.00000000000E+00 0.  1.
         23    2    1    2    0    0  0.11954139418E+03  0.52412593727E+03  0.24131097811E+02  0.54589410381E+03  0.91760120124E+02 0.  0.
         13    1    3    3    0    0  0.41557514580E+02  0.98622115001E+02 -0.26773022378E+02  0.11031837251E+03  0.00000000000E+00 0. -1.
        -13    1    3    3    0    0  0.77983879600E+02  0.42550382227E+03  0.50904120189E+02  0.43557573130E+03  0.00000000000E+00 0.  1.
         22    1    1    2    0    0 -0.11954139418E+03 -0.52412593727E+03  0.17219796982E+03  0.56449117252E+03  0.00000000000E+00 0.  1.
<mgrwt>
<rscale>  0 0.10928908E+04</rscale>
<asrwt>0</asrwt>
<pdfrwt beam="1">  1        1 0.10051649E+00 0.10928908E+04</pdfrwt>
<pdfrwt beam="2">  1       -1 0.70312016E-01 0.10928908E+04</pdfrwt>
<totfact> 0.61627067E+01</totfact>
</mgrwt>
</event>
<event>
 6    1  0.9364335E-007  0.2943755E+04  0.7818608E-02  0.8259977E-01
          2   -1    0    0  501    0  0.00000000000E+00  0.00000000000E+00  0.21611906495E+04  0.21611906495E+04  0.00000000000E+00 0. -1.
         -2   -1    0    0    0  501 -0.00000000000E+00 -0.00000000000E+00 -0.10024213336E+04  0.10024213336E+04  0.00000000000E+00 0.  1.
         23    2    1    2    0    0  0.11067247603E+04  0.63031032062E+03  0.13698528818E+04  0.18726096334E+04  0.89661171974E+02 0.  0.
         11    1    3    3    0    0  0.99412360618E+03  0.55031708324E+03  0.12550110220E+04  0.16929805970E+04  0.00000000000E+00 0. -1.
        -11    1    3    3    0    0  0.11260115415E+03  0.79993237384E+02  0.11484185984E+03  0.17962903639E+03  0.00000000000E+00 0.  1.
         22    1    1    2    0    0 -0.11067247603E+04 -0.63031032062E+03 -0.21108356591E+03  0.12910023498E+04  0.00000000000E+00 0.  1.
<mgrwt>
<rscale>  0 0.29437552E+04</rscale>
<asrwt>0</asrwt>
<pdfrwt beam="1">  1        2 0.33249087E+00 0.29437552E+04</pdfrwt>
<pdfrwt beam="2">  1       -2 0.15421867E+00 0.29437552E+04</pdfrwt>
<totfact> 0.12993784E+00</totfact>
</mgrwt>
</event>
<event>
 6    1  0.9364335E-007  0.2569772E+04  0.7818608E-02  0.8378542E-01
          1   -1    0    0  501    0  0.00000000000E+00  0.00000000000E+00  0.14649361343E+04  0.14649361343E+04  0.00000000000E+00 0. -1.
         -1   -1    0    0    0  501 -0.00000000000E+00 -0.00000000000E+00 -0.11269654687E+04  0.11269654687E+04  0.00000000000E+00 0.  1.
         23    2    1    2    0    0  0.12471561418E+04  0.46348954676E+02 -0.13214007185E+03  0.12582784280E+04  0.90867684542E+02 0.  0.
         13    1    3    3    0    0  0.65840464760E+03  0.57347831914E+02 -0.10131331707E+03  0.66861785948E+03  0.00000000000E+00 0. -1.
        -13    1    3    3    0    0  0.58875149421E+03 -0.10998877238E+02 -0.30826754775E+02  0.58966056850E+03  0.00000000000E+00 0.  1.
         22    1    1    2    0    0 -0.12471561418E+04 -0.46348954676E+02  0.47011073740E+03  0.13336231751E+04  0.00000000000E+00 0. -1.
<mgrwt>
<rscale>  0 0.25697723E+04</rscale>
<asrwt>0</asrwt>
<pdfrwt beam="1">  1        1 0.22537479E+00 0.25697723E+04</pdfrwt>
<pdfrwt beam="2">  1       -1 0.17337930E+00 0.25697723E+04</pdfrwt>
<totfact> 0.14202840E+00</totfact>
</mgrwt>
</event>
<event>
 6    1  0.9364335E-007  0.2833487E+04  0.7818608E-02  0.8292947E-01
         -1   -1    0    0    0  501 -0.00000000000E+00  0.00000000000E+00  0.10487650921E+04  0.10487650921E+04  0.00000000000E+00 0.  1.
          1   -1    0    0  501    0  0.00000000000E+00 -0.00000000000E+00 -0.19138340979E+04  0.19138340979E+04  0.00000000000E+00 0. -1.
         23    2    1    2    0    0  0.42961242759E+03  0.12926886897E+04 -0.31435180155E+02  0.13655530911E+04  0.90200818298E+02 0.  0.
         13    1    3    3    0    0  0.33345120733E+03  0.92504498620E+03  0.93920419423E+01  0.98335453658E+03  0.00000000000E+00 0. -1.
        -13    1    3    3    0    0  0.96161220256E+02  0.36764370354E+03 -0.40827222097E+02  0.38219855454E+03  0.00000000000E+00 0.  1.
         22    1    1    2    0    0 -0.42961242759E+03 -0.12926886897E+04 -0.83363382563E+03  0.15970460988E+04  0.00000000000E+00 0. -1.
<mgrwt>
<rscale>  0 0.28334872E+04</rscale>
<asrwt>0</asrwt>
<pdfrwt beam="1">  1        1 0.29443601E+00 0.28334872E+04</pdfrwt>
<pdfrwt beam="2">  1       -1 0.16134848E+00 0.28334872E+04</pdfrwt>
<totfact> 0.84015077E-01</totfact>
</mgrwt>
</event>
<event>
 6    1  0.9364335E-007  0.5976213E+03  0.7818608E-02  0.9910353E-01
         -1   -1    0    0    0  501 -0.00000000000E+00  0.00000000000E+00  0.18975881237E+03  0.18975881237E+03  0.00000000000E+00 0.  1.
          1   -1    0    0  501    0  0.00000000000E+00 -0.00000000000E+00 -0.47053318068E+03  0.47053318068E+03  0.00000000000E+00 0. -1.
         23    2    1    2    0    0  0.17554126208E+03  0.16261687101E+03  0.44502153233E+02  0.25648040716E+03  0.80887429077E+02 0.  0.
         13    1    3    3    0    0  0.13124131579E+03  0.94637476557E+02 -0.41777251513E+01  0.16185792637E+03  0.00000000000E+00 0.  1.
        -13    1    3    3    0    0  0.44299946287E+02  0.67979394450E+02  0.48679878385E+02  0.94622480788E+02  0.00000000000E+00 0. -1.
         22    1    1    2    0    0 -0.17554126208E+03 -0.16261687101E+03 -0.32527652154E+03  0.40381158589E+03  0.00000000000E+00 0. -1.
<mgrwt>
<rscale>  0 0.59762134E+03</rscale>
<asrwt>0</asrwt>
<pdfrwt beam="1">  1        1 0.72389721E-01 0.59762134E+03</pdfrwt>
<pdfrwt beam="2">  1       -1 0.29193663E-01 0.59762134E+03</pdfrwt>
<totfact> 0.52101649E+02</totfact>
</mgrwt>
</event>
<event>
 6    1  0.9364335E-007  0.2538176E+04  0.7818608E-02  0.8389510E-01
          1   -1    0    0  501    0  0.00000000000E+00  0.00000000000E+00  0.19806589735E+04  0.19806589735E+04  0.00000000000E+00 0. -1.
         -1   -1    0    0    0  501 -0.00000000000E+00 -0.00000000000E+00 -0.81315566463E+03  0.81315566463E+03  0.00000000000E+00 0.  1.
         23    2    1    2    0    0 -0.89196641502E+03  0.79996423052E+03  0.10391799108E+04  0.15888193062E+04  0.94366545742E+02 0.  0.
         11    1    3    3    0    0 -0.50014499849E+03  0.40690427943E+03  0.51154876676E+03  0.82304207238E+03  0.00000000000E+00 0. -1.
        -11    1    3    3    0    0 -0.39182141653E+03  0.39305995109E+03  0.52763114405E+03  0.76577723378E+03  0.00000000000E+00 0.  1.
         22    1    1    2    0    0  0.89196641502E+03 -0.79996423052E+03  0.12832339808E+03  0.12049953320E+04  0.00000000000E+00 0. -1.
<mgrwt>
<rscale>  0 0.25381758E+04</rscale>
<asrwt>0</asrwt>
<pdfrwt beam="1">  1        1 0.30471676E+00 0.25381758E+04</pdfrwt>
<pdfrwt beam="2">  1       -1 0.12510087E+00 0.25381758E+04</pdfrwt>
<totfact> 0.15187187E+00</totfact>
</mgrwt>
</event>
<event>
 6    1  0.9364335E-007  0.4961719E+03  0.7818608E-02  0.1014783E+00
         -2   -1    0    0    0  501 -0.00000000000E+00  0.00000000000E+00  0.85726313022E+02  0.85726313022E+02  0.00000000000E+00 0.  1.
          2   -1    0    0  501    0  0.00000000000E+00 -0.00000000000E+00 -0.71794350570E+03  0.71794350570E+03  0.00000000000E+00 0. -1.
         23    2    1    2    0    0  0.11039657066E+03 -0.15206362975E+03 -0.86128461797E+02  0.22615475199E+03  0.91744806993E+02 0.  0.
         13    1    3    3    0    0  0.88972085464E+02 -0.10319652276E+03 -0.14770236020E+02  0.13705369084E+03  0.00000000000E+00 0.  1.
        -13    1    3    3    0    0  0.21424485191E+02 -0.48867106994E+02 -0.71358225777E+02  0.89101061148E+02  0.00000000000E+00 0. -1.
         22    1    1    2    0    0 -0.11039657066E+03  0.15206362975E+03 -0.54608873088E+03  0.57751506673E+03  0.00000000000E+00 0. -1.
<mgrwt>
<rscale>  0 0.49617194E+03</rscale>
<asrwt>0</asrwt>
<pdfrwt beam="1">  1        2 0.11045285E+00 0.49617194E+03</pdfrwt>
<pdfrwt beam="2">  1       -2 0.13188664E-01 0.49617194E+03</pdfrwt>
<totfact> 0.17273962E+03</totfact>
</mgrwt>
</event>
<event>
 6    1  0.9364335E-007  0.2958526E+04  0.7818608E-02  0.8255674E-01
         -4   -1    0    0    0  501 -0.00000000000E+00  0.00000000000E+00  0.11458348137E+04  0.11458348137E+04  0.00000000000E+00 0.  1.
          4   -1    0    0  501    0  0.00000000000E+00 -0.00000000000E+00 -0.19097160880E+04  0.19097160880E+04  0.00000000000E+00 0. -1.
         23    2    1    2    0    0 -0.12261145167E+04 -0.17752902354E+03  0.44984008322E+03  0.13211942787E+04  0.91240667595E+02 0.  0.
         13    1    3    3    0    0 -0.63392274749E+03 -0.60385971539E+02  0.26640717393E+03  0.69027334996E+03  0.00000000000E+00 0. -1.
        -13    1    3    3    0    0 -0.59219176918E+03 -0.11714305200E+03  0.18343290928E+03  0.63092092874E+03  0.00000000000E+00 0.  1.
         22    1    1    2    0    0  0.12261145167E+04  0.17752902354E+03 -0.12137213575E+04  0.17343566230E+04  0.00000000000E+00 0. -1.
<mgrwt>
<rscale>  0 0.29585261E+04</rscale>
<asrwt>0</asrwt>
<pdfrwt beam="1">  1        4 0.29380247E+00 0.29585261E+04</pdfrwt>
<pdfrwt beam="2">  1       -4 0.17628228E+00 0.29585261E+04</pdfrwt>
<totfact> 0.10990823E-02</totfact>
</mgrwt>
</event>
<event>
 6    1  0.9364335E-007  0.2235088E+04  0.7818608E-02  0.8503964E-01
         -1   -1    0    0    0  501 -0.00000000000E+00  0.00000000000E+00  0.11691212185E+04  0.11691212185E+04  0.00000000000E+00 0.  1.
          1   -1    0    0  501    0  0.00000000000E+00 -0.00000000000E+00 -0.10682418808E+04  0.10682418808E+04  0.00000000000E+00 0. -1.
         23    2    1    2    0    0  0.44421578858E+02  0.80750203762E+03 -0.71874110068E+03  0.10859246596E+04  0.92794283643E+02 0.  0.
         13    1    3    3    0    0 -0.23975480968E+02  0.36858165141E+03 -0.34433739996E+03  0.50497079367E+03  0.00000000000E+00 0.  1.
        -13    1    3    3    0    0  0.68397059826E+02  0.43892038621E+03 -0.37440370072E+03  0.58095386593E+03  0.00000000000E+00 0. -1.
         22    1    1    2    0    0 -0.44421578858E+02 -0.80750203762E+03  0.81962043840E+03  0.11514384397E+04  0.00000000000E+00 0. -1.
<mgrwt>
<rscale>  0 0.22350877E+04</rscale>
<asrwt>0</asrwt>
<pdfrwt beam="1">  1        1 0.16434490E+00 0.22350877E+04</pdfrwt>
<pdfrwt beam="2">  1       -1 0.17986480E+00 0.22350877E+04</pdfrwt>
<totfact> 0.25408322E+00</totfact>
</mgrwt>
</event>
<event>
 6    1  0.9364335E-007  0.1301150E+04  0.7818608E-02  0.9028654E-01
         -1   -1    0    0    0  501 -0.00000000000E+00  0.00000000000E+00  0.41989224221E+03  0.41989224221E+03  0.00000000000E+00 0.  1.
          1   -1    0    0  501    0  0.00000000000E+00 -0.00000000000E+00 -0.10079915293E+04  0.10079915293E+04  0.00000000000E+00 0. -1.
         23    2    1    2    0    0  0.42028016357E+03  0.39100430998E+03  0.32734763082E+02  0.58233382965E+03  0.92311094244E+02 0.  0.
         13    1    3    3    0    0  0.16292573829E+03  0.21270356136E+03  0.25803483162E+02  0.26917173135E+03  0.00000000000E+00 0.  1.
        -13    1    3    3    0    0  0.25735442528E+03  0.17830074862E+03  0.69312799203E+01  0.31316209830E+03  0.00000000000E+00 0. -1.
         22    1    1    2    0    0 -0.42028016357E+03 -0.39100430998E+03 -0.62083405013E+03  0.84554994183E+03  0.00000000000E+00 0. -1.
<mgrwt>
<rscale>  0 0.13011500E+04</rscale>
<asrwt>0</asrwt>
<pdfrwt beam="1">  1        1 0.15507562E+00 0.13011500E+04</pdfrwt>
<pdfrwt beam="2">  1       -1 0.64598806E-01 0.13011500E+04</pdfrwt>
<totfact> 0.35608270E+01</totfact>
</mgrwt>
</event>
<event>
 6    1  0.9364335E-007  0.1752202E+04  0.7818608E-02  0.8732139E-01
          1   -1    0    0  501    0  0.00000000000E+00  0.00000000000E+00  0.21722529449E+04  0.21722529449E+04  0.00000000000E+00 0. -1.
         -1   -1    0    0    0  501 -0.00000000000E+00 -0.00000000000E+00 -0.35334429365E+03  0.35334429365E+03  0.00000000000E+00 0.  1.
         23    2    1    2    0    0 -0.71450972875E+03  0.20217775319E+03  0.24904553181E+03  0.78897113885E+03  0.95140867422E+02 0.  0.
         11    1    3    3    0    0 -0.44112543202E+03  0.10578934698E+03  0.19652262570E+03  0.49437250644E+03  0.00000000000E+00 0. -1.
        -11    1    3    3    0    0 -0.27338429673E+03  0.96388406211E+02  0.52522906108E+02  0.29459863241E+03  0.00000000000E+00 0.  1.
         22    1    1    2    0    0  0.71450972875E+03 -0.20217775319E+03  0.15698631194E+04  0.17366260997E+04  0.00000000000E+00 0. -1.
<mgrwt>
<rscale>  0 0.17522023E+04</rscale>
<asrwt>0</asrwt>
<pdfrwt beam="1">  1        1 0.33419275E+00 0.17522023E+04</pdfrwt>
<pdfrwt beam="2">  1       -1 0.54360662E-01 0.17522023E+04</pdfrwt>
<totfact> 0.73719778E+00</totfact>
</mgrwt>
</event>
<event>
 6    1  0.9364335E-007  0.3020089E+04  0.7818608E-02  0.8238018E-01
         -1   -1    0    0    0  501 -0.00000000000E+00  0.00000000000E+00  0.11480745916E+04  0.11480745916E+04  0.00000000000E+00 0.  1.
          1   -1    0    0  501    0  0.00000000000E+00 -0.00000000000E+00 -0.19861373877E+04  0.19861373877E+04  0.00000000000E+00 0. -1.
         23    2    1    2    0    0  0.99359186439E+03 -0.11084199994E+04 -0.67453063320E+03  0.16366932127E+04  0.89181888631E+02 0.  0.
         13    1    3    3    0    0  0.17925843697E+03 -0.15591288086E+03 -0.92190743664E+02  0.25483631386E+03  0.00000000000E+00 0.  1.
        -13    1    3    3    0    0  0.81433342742E+03 -0.95250711858E+03 -0.58233988953E+03  0.13818568989E+04  0.00000000000E+00 0. -1.
         22    1    1    2    0    0 -0.99359186439E+03  0.11084199994E+04 -0.16353216292E+03  0.14975187667E+04  0.00000000000E+00 0.  1.
<mgrwt>
<rscale>  0 0.30200887E+04</rscale>
<asrwt>0</asrwt>
<pdfrwt beam="1">  1        1 0.30555959E+00 0.30200887E+04</pdfrwt>
<pdfrwt beam="2">  1       -1 0.17662686E+00 0.30200887E+04</pdfrwt>
<totfact> 0.56949083E-01</totfact>
</mgrwt>
</event>
<event>
 6    1  0.9364335E-007  0.1384288E+04  0.7818608E-02  0.8965270E-01
         -2   -1    0    0    0  501 -0.00000000000E+00  0.00000000000E+00  0.17074672890E+03  0.17074672890E+03  0.00000000000E+00 0.  1.
          2   -1    0    0  501    0  0.00000000000E+00 -0.00000000000E+00 -0.28056974405E+04  0.28056974405E+04  0.00000000000E+00 0. -1.
         23    2    1    2    0    0 -0.45149771428E+03 -0.23856981813E+03 -0.32817088127E+03  0.61381873786E+03  0.91167820581E+02 0.  0.
         11    1    3    3    0    0 -0.27166966390E+03 -0.92333626449E+02 -0.17943751329E+03  0.33841945280E+03  0.00000000000E+00 0. -1.
        -11    1    3    3    0    0 -0.17982805038E+03 -0.14623619168E+03 -0.14873336798E+03  0.27539928506E+03  0.00000000000E+00 0.  1.
         22    1    1    2    0    0  0.45149771428E+03  0.23856981813E+03 -0.23067798303E+04  0.23626254315E+04  0.00000000000E+00 0. -1.
<mgrwt>
<rscale>  0 0.13842885E+04</rscale>
<asrwt>0</asrwt>
<pdfrwt beam="1">  1        2 0.43164574E+00 0.13842885E+04</pdfrwt>
<pdfrwt beam="2">  1       -2 0.26268729E-01 0.13842885E+04</pdfrwt>
<totfact> 0.29507903E+01</totfact>
</mgrwt>
</event>
<event>
 6    1  0.9364335E-007  0.8020047E+03  0.7818608E-02  0.9557120E-01
         -1   -1    0    0    0  501 -0.00000000000E+00  0.00000000000E+00  0.15925427718E+03  0.15925427718E+03  0.00000000000E+00 0.  1.
          1   -1    0    0  501    0  0.00000000000E+00 -0.00000000000E+00 -0.10097241219E+04  0.10097241219E+04  0.00000000000E+00 0. -1.
         23    2    1    2    0    0 -0.35071459880E+03 -0.17875653913E+02 -0.16279986642E+03  0.39683186643E+03  0.87472652260E+02 0.  0.
         13    1    3    3    0    0 -0.21187322743E+03  0.29452462921E+02 -0.11299711174E+03  0.24192159750E+03  0.00000000000E+00 0. -1.
        -13    1    3    3    0    0 -0.13884137137E+03 -0.47328116834E+02 -0.49802754674E+02  0.15491026893E+03  0.00000000000E+00 0.  1.
         22    1    1    2    0    0  0.35071459880E+03  0.17875653913E+02 -0.68766997829E+03  0.77214653263E+03  0.00000000000E+00 0. -1.
<mgrwt>
<rscale>  0 0.80200470E+03</rscale>
<asrwt>0</asrwt>
<pdfrwt beam="1">  1        1 0.15534217E+00 0.80200470E+03</pdfrwt>
<pdfrwt beam="2">  1       -1 0.24500658E-01 0.80200470E+03</pdfrwt>
<totfact> 0.21771079E+02</totfact>
</mgrwt>
</event>
<event>
 6    1  0.9364335E-007  0.3877477E+04  0.7818608E-02  0.8029730E-01
         -2   -1    0    0    0  501 -0.00000000000E+00  0.00000000000E+00  0.22432237762E+04  0.22432237762E+04  0.00000000000E+00 0.  1.
          2   -1    0    0  501    0  0.00000000000E+00 -0.00000000000E+00 -0.16755830819E+04  0.16755830819E+04  0.00000000000E+00 0. -1.
         23    2    1    2    0    0  0.73412837065E+03 -0.47248504040E+03 -0.14642806540E+04  0.17072709791E+04  0.92031432294E+02 0.  0.
         11    1    3    3    0    0  0.16058802638E+03 -0.62613505533E+02 -0.31261068062E+03  0.35697955534E+03  0.00000000000E+00 0. -1.
        -11    1    3    3    0    0  0.57354034427E+03 -0.40987153487E+03 -0.11516699734E+04  0.13502914238E+04  0.00000000000E+00 0.  1.
         22    1    1    2    0    0 -0.73412837065E+03  0.47248504040E+03  0.20319213483E+04  0.22115358789E+04  0.00000000000E+00 0.  1.
<mgrwt>
<rscale>  0 0.38774774E+04</rscale>
<asrwt>0</asrwt>
<pdfrwt beam="1">  1        2 0.25778201E+00 0.38774774E+04</pdfrwt>
<pdfrwt beam="2">  1       -2 0.34511135E+00 0.38774774E+04</pdfrwt>
<totfact> 0.13460810E-01</totfact>
</mgrwt>
</event>
<event>
 6    1  0.9364335E-007  0.1255100E+04  0.7818608E-02  0.9065949E-01
          2   -1    0    0  501    0  0.00000000000E+00  0.00000000000E+00  0.35421559841E+04  0.35421559841E+04  0.00000000000E+00 0. -1.
         -2   -1    0    0    0  501 -0.00000000000E+00 -0.00000000000E+00 -0.11118061669E+03  0.11118061669E+03  0.00000000000E+00 0.  1.
         23    2    1    2    0    0  0.24449751161E+03  0.57330768505E+03  0.18212650658E+04  0.19271767038E+04  0.92427662698E+02 0.  0.
         11    1    3    3    0    0  0.14679163698E+03  0.22770716090E+03  0.77665045293E+03  0.82254742225E+03  0.00000000000E+00 0.  1.
        -11    1    3    3    0    0  0.97705874628E+02  0.34560052415E+03  0.10446146129E+04  0.11046292816E+04  0.00000000000E+00 0. -1.
         22    1    1    2    0    0 -0.24449751161E+03 -0.57330768505E+03  0.16097103016E+04  0.17261598970E+04  0.00000000000E+00 0. -1.
<mgrwt>
<rscale>  0 0.12551001E+04</rscale>
<asrwt>0</asrwt>
<pdfrwt beam="1">  1        2 0.54494699E+00 0.12551001E+04</pdfrwt>
<pdfrwt beam="2">  1       -2 0.17104713E-01 0.12551001E+04</pdfrwt>
<totfact> 0.21452235E+01</totfact>
</mgrwt>
</event>
<event>
 6    1  0.9364335E-007  0.2595571E+04  0.7818608E-02  0.8369707E-01
          1   -1    0    0  501    0  0.00000000000E+00  0.00000000000E+00  0.32600401914E+04  0.32600401914E+04  0.00000000000E+00 0. -1.
         -1   -1    0    0    0  501 -0.00000000000E+00 -0.00000000000E+00 -0.51663395017E+03  0.51663395017E+03  0.00000000000E+00 0.  1.
         23    2    1    2    0    0 -0.66429762175E+03  0.10910886363E+04  0.10539988263E+04  0.16586885051E+04  0.92565050548E+02 0.  0.
         13    1    3    3    0    0 -0.32614932349E+03  0.62287614675E+03  0.56815802203E+03  0.90396438724E+03  0.00000000000E+00 0. -1.
        -13    1    3    3    0    0 -0.33814829826E+03  0.46821248958E+03  0.48584080424E+03  0.75472411786E+03  0.00000000000E+00 0.  1.
         22    1    1    2    0    0  0.66429762175E+03 -0.10910886363E+04  0.16894074149E+04  0.21179856365E+04  0.00000000000E+00 0.  1.
<mgrwt>
<rscale>  0 0.25955712E+04</rscale>
<asrwt>0</asrwt>
<pdfrwt beam="1">  1        1 0.50154464E+00 0.25955712E+04</pdfrwt>
<pdfrwt beam="2">  1       -1 0.79482147E-01 0.25955712E+04</pdfrwt>
<totfact> 0.53373693E-01</totfact>
</mgrwt>
</event>
<event>
 6    1  0.9364335E-007  0.2553927E+04  0.7818608E-02  0.8384022E-01
          2   -1    0    0  501    0  0.00000000000E+00  0.00000000000E+00  0.16551216088E+04  0.16551216088E+04  0.00000000000E+00 0. -1.
         -2   -1    0    0    0  501 -0.00000000000E+00 -0.00000000000E+00 -0.98520630109E+03  0.98520630109E+03  0.00000000000E+00 0.  1.
         23    2    1    2    0    0 -0.47018926446E+03 -0.38149974871E+03 -0.82505796250E+03  0.10273911221E+04  0.90508969936E+02 0.  0.
         13    1    3    3    0    0 -0.30184952755E+03 -0.19083721200E+03 -0.50690936418E+03  0.62007183637E+03  0.00000000000E+00 0. -1.
        -13    1    3    3    0    0 -0.16833973691E+03 -0.19066253671E+03 -0.31814859833E+03  0.40731928575E+03  0.00000000000E+00 0.  1.
         22    1    1    2    0    0  0.47018926446E+03  0.38149974871E+03  0.14949732702E+04  0.16129367878E+04  0.00000000000E+00 0. -1.
<mgrwt>
<rscale>  0 0.25539274E+04</rscale>
<asrwt>0</asrwt>
<pdfrwt beam="1">  1        2 0.25463409E+00 0.25539274E+04</pdfrwt>
<pdfrwt beam="2">  1       -2 0.15157020E+00 0.25539274E+04</pdfrwt>
<totfact> 0.26886771E+00</totfact>
</mgrwt>
</event>
<event>
 6    1  0.9364335E-007  0.1879955E+04  0.7818608E-02  0.8664899E-01
          1   -1    0    0  501    0  0.00000000000E+00  0.00000000000E+00  0.11560901691E+04  0.11560901691E+04  0.00000000000E+00 0. -1.
         -1   -1    0    0    0  501 -0.00000000000E+00 -0.00000000000E+00 -0.76426344244E+03  0.76426344244E+03  0.00000000000E+00 0.  1.
         23    2    1    2    0    0 -0.88958213766E+03 -0.19990528093E+03 -0.27801915599E+02  0.91665709446E+03  0.90381310742E+02 0.  0.
         13    1    3    3    0    0 -0.44120895043E+03 -0.98483612468E+02  0.31419538838E+02  0.45315730965E+03  0.00000000000E+00 0. -1.
        -13    1    3    3    0    0 -0.44837318722E+03 -0.10142166846E+03 -0.59221454438E+02  0.46349978481E+03  0.00000000000E+00 0.  1.
         22    1    1    2    0    0  0.88958213766E+03  0.19990528093E+03  0.41962864224E+03  0.10036965171E+04  0.00000000000E+00 0. -1.
<mgrwt>
<rscale>  0 0.18799547E+04</rscale>
<asrwt>0</asrwt>
<pdfrwt beam="1">  1        1 0.17786003E+00 0.18799547E+04</pdfrwt>
<pdfrwt beam="2">  1       -1 0.11757899E+00 0.18799547E+04</pdfrwt>
<totfact> 0.70207704E+00</totfact>
</mgrwt>
</event>
<event>
 6    1  0.9364335E-007  0.2655249E+04  0.7818608E-02  0.8349673E-01
          2   -1    0    0  501    0  0.00000000000E+00  0.00000000000E+00  0.13095039181E+04  0.13095039181E+04  0.00000000000E+00 0. -1.
         -2   -1    0    0    0  501 -0.00000000000E+00 -0.00000000000E+00 -0.13459963160E+04  0.13459963160E+04  0.00000000000E+00 0.  1.
         23    2    1    2    0    0 -0.21663624088E+03  0.11429268362E+04  0.61827109558E+03  0.13206113825E+04  0.92424359120E+02 0.  0.
         13    1    3    3    0    0 -0.83512577405E+02  0.61179349367E+03  0.28989594237E+03  0.68213289532E+03  0.00000000000E+00 0.  1.
        -13    1    3    3    0    0 -0.13312366347E+03  0.53113334253E+03  0.32837515321E+03  0.63847848716E+03  0.00000000000E+00 0. -1.
         22    1    1    2    0    0  0.21663624088E+03 -0.11429268362E+04 -0.65476349345E+03  0.13348888516E+04  0.00000000000E+00 0.  1.
<mgrwt>
<rscale>  0 0.26552495E+04</rscale>
<asrwt>0</asrwt>
<pdfrwt beam="1">  1        2 0.20146214E+00 0.26552495E+04</pdfrwt>
<pdfrwt beam="2">  1       -2 0.20707636E+00 0.26552495E+04</pdfrwt>
<totfact> 0.17188446E+00</totfact>
</mgrwt>
</event>
<event>
 6    1  0.9364335E-007  0.1203846E+04  0.7818608E-02  0.9109497E-01
         -2   -1    0    0    0  501 -0.00000000000E+00  0.00000000000E+00  0.61938477446E+03  0.61938477446E+03  0.00000000000E+00 0.  1.
          2   -1    0    0  501    0  0.00000000000E+00 -0.00000000000E+00 -0.58495360335E+03  0.58495360335E+03  0.00000000000E+00 0. -1.
         23    2    1    2    0    0 -0.12872566152E+03  0.41081390741E+03 -0.39857975376E+03  0.59373472279E+03  0.91196153871E+02 0.  0.
         13    1    3    3    0    0 -0.45689619432E+02  0.20999820208E+03 -0.25403018045E+03  0.33274332267E+03  0.00000000000E+00 0. -1.
        -13    1    3    3    0    0 -0.83036042088E+02  0.20081570533E+03 -0.14454957331E+03  0.26099140012E+03  0.00000000000E+00 0.  1.
         22    1    1    2    0    0  0.12872566152E+03 -0.41081390741E+03  0.43301092487E+03  0.61060365501E+03  0.00000000000E+00 0.  1.
<mgrwt>
<rscale>  0 0.12038461E+04</rscale>
<asrwt>0</asrwt>
<pdfrwt beam="1">  1        2 0.89992862E-01 0.12038461E+04</pdfrwt>
<pdfrwt beam="2">  1       -2 0.95289966E-01 0.12038461E+04</pdfrwt>
<totfact> 0.46702798E+01</totfact>
</mgrwt>
</event>
<event>
 6    1  0.9364335E-007  0.1775847E+04  0.7818608E-02  0.8719250E-01
         -1   -1    0    0    0  501 -0.00000000000E+00  0.00000000000E+00  0.13976075383E+04  0.13976075383E+04  0.00000000000E+00 0.  1.
          1   -1    0    0  501    0  0.00000000000E+00 -0.00000000000E+00 -0.56411289942E+03  0.56411289942E+03  0.00000000000E+00 0. -1.
         23    2    1    2    0    0  0.96451964074E+02  0.25337507743E+03 -0.51289945744E+03  0.58830172013E+03  0.97627604888E+02 0.  0.
         13    1    3    3    0    0  0.42742497634E+02  0.22152027057E+03 -0.39512661571E+03  0.45499801518E+03  0.00000000000E+00 0. -1.
        -13    1    3    3    0    0  0.53709466441E+02  0.31854806863E+02 -0.11777284172E+03  0.13330370495E+03  0.00000000000E+00 0.  1.
         22    1    1    2    0    0 -0.96451964074E+02 -0.25337507743E+03  0.13463940963E+04  0.13734187176E+04  0.00000000000E+00 0.  1.
<mgrwt>
<rscale>  0 0.17758473E+04</rscale>
<asrwt>0</asrwt>
<pdfrwt beam="1">  1        1 0.86786601E-01 0.17758473E+04</pdfrwt>
<pdfrwt beam="2">  1       -1 0.21501654E+00 0.17758473E+04</pdfrwt>
<totfact> 0.42057006E+00</totfact>
</mgrwt>
</event>
<event>
 6    1  0.9364335E-007  0.3547269E+04  0.7818608E-02  0.8102678E-01
         -1   -1    0    0    0  501 -0.00000000000E+00  0.00000000000E+00  0.22286577462E+04  0.22286577462E+04  0.00000000000E+00 0.  1.
          1   -1    0    0  501    0  0.00000000000E+00 -0.00000000000E+00 -0.14115127015E+04  0.14115127015E+04  0.00000000000E+00 0. -1.
         23    2    1    2    0    0 -0.10719352969E+04  0.12936400176E+04  0.98843024684E+03  0.19514169440E+04  0.92108417429E+02 0.  0.
         13    1    3    3    0    0 -0.92528973278E+03  0.11627161961E+04  0.86957023701E+03  0.17216917376E+04  0.00000000000E+00 0.  1.
        -13    1    3    3    0    0 -0.14664556408E+03  0.13092382149E+03  0.11886000983E+03  0.22972520636E+03  0.00000000000E+00 0. -1.
         22    1    1    2    0    0  0.10719352969E+04 -0.12936400176E+04 -0.17128520218E+03  0.16887535037E+04  0.00000000000E+00 0. -1.
<mgrwt>
<rscale>  0 0.35472686E+04</rscale>
<asrwt>0</asrwt>
<pdfrwt beam="1">  1        1 0.21715580E+00 0.35472686E+04</pdfrwt>
<pdfrwt beam="2">  1       -1 0.34287042E+00 0.35472686E+04</pdfrwt>
<totfact> 0.10610392E-01</totfact>
</mgrwt>
</event>
<event>
 6    1  0.9364335E-007  0.1328357E+04  0.7818608E-02  0.9007375E-01
         -1   -1    0    0    0  501 -0.00000000000E+00  0.00000000000E+00  0.81166233006E+03  0.81166233006E+03  0.00000000000E+00 0.  1.
          1   -1    0    0  501    0  0.00000000000E+00 -0.00000000000E+00 -0.54349374577E+03  0.54349374577E+03  0.00000000000E+00 0. -1.
         23    2    1    2    0    0 -0.35308481307E+03  0.52594370824E+03  0.32771670179E+03  0.71889225651E+03  0.90123084607E+02 0.  0.
         11    1    3    3    0    0 -0.54469177761E+02  0.46189621748E+02  0.14773799598E+02  0.72928990380E+02  0.00000000000E+00 0. -1.
        -11    1    3    3    0    0 -0.29861563531E+03  0.47975408649E+03  0.31294290220E+03  0.64596326613E+03  0.00000000000E+00 0.  1.
         22    1    1    2    0    0  0.35308481307E+03 -0.52594370824E+03 -0.59548117505E+02  0.63626381931E+03  0.00000000000E+00 0.  1.
<mgrwt>
<rscale>  0 0.13283575E+04</rscale>
<asrwt>0</asrwt>
<pdfrwt beam="1">  1        1 0.83614423E-01 0.13283575E+04</pdfrwt>
<pdfrwt beam="2">  1       -1 0.12487113E+00 0.13283575E+04</pdfrwt>
<totfact> 0.21707777E+01</totfact>
</mgrwt>
</event>
<event>
 6    1  0.9364335E-007  0.9642195E+03  0.7818608E-02  0.9348683E-01
         -1   -1    0    0    0  501 -0.00000000000E+00  0.00000000000E+00  0.92548028029E+02  0.92548028029E+02  0.00000000000E+00 0.  1.
          1   -1    0    0  501    0  0.00000000000E+00 -0.00000000000E+00 -0.25114507993E+04  0.25114507993E+04  0.00000000000E+00 0. -1.
         23    2    1    2    0    0  0.29777097422E+03 -0.36871170940E+03 -0.13830072088E+04  0.14648344432E+04  0.91734010224E+02 0.  0.
         11    1    3    3    0    0  0.18478037228E+03 -0.27002516075E+03 -0.83969613337E+03  0.90119197168E+03  0.00000000000E+00 0. -1.
        -11    1    3    3    0    0  0.11299060194E+03 -0.98686548649E+02 -0.54331107540E+03  0.56364247148E+03  0.00000000000E+00 0.  1.
         22    1    1    2    0    0 -0.29777097422E+03  0.36871170940E+03 -0.10358955625E+04  0.11391643842E+04  0.00000000000E+00 0.  1.
<mgrwt>
<rscale>  0 0.96421952E+03</rscale>
<asrwt>0</asrwt>
<pdfrwt beam="1">  1        1 0.38637704E+00 0.96421952E+03</pdfrwt>
<pdfrwt beam="2">  1       -1 0.14238158E-01 0.96421952E+03</pdfrwt>
<totfact> 0.48565216E+01</totfact>
</mgrwt>
</event>
<event>
 6    1  0.9364335E-007  0.1915858E+04  0.7818608E-02  0.8647003E-01
          2   -1    0    0  501    0  0.00000000000E+00  0.00000000000E+00  0.34940382494E+04  0.34940382494E+04  0.00000000000E+00 0. -1.
         -2   -1    0    0    0  501 -0.00000000000E+00 -0.00000000000E+00 -0.26262687245E+03  0.26262687245E+03  0.00000000000E+00 0.  1.
         23    2    1    2    0    0  0.99583331106E+02  0.70862443638E+03  0.28618767061E+04  0.29512948315E+04  0.87962887537E+02 0.  0.
         11    1    3    3    0    0  0.92366320305E+02  0.38672439095E+03  0.16718417695E+04  0.17184708883E+04  0.00000000000E+00 0.  1.
        -11    1    3    3    0    0  0.72170108009E+01  0.32190004543E+03  0.11900349367E+04  0.12328239432E+04  0.00000000000E+00 0. -1.
         22    1    1    2    0    0 -0.99583331106E+02 -0.70862443638E+03  0.36953467082E+03  0.80537029036E+03  0.00000000000E+00 0.  1.
<mgrwt>
<rscale>  0 0.19158584E+04</rscale>
<asrwt>0</asrwt>
<pdfrwt beam="1">  1        2 0.53754431E+00 0.19158584E+04</pdfrwt>
<pdfrwt beam="2">  1       -2 0.40404137E-01 0.19158584E+04</pdfrwt>
<totfact> 0.44816199E+00</totfact>
</mgrwt>
</event>
<event>
 6    1  0.9364335E-007  0.2544791E+04  0.7818608E-02  0.8387200E-01
          2   -1    0    0  501    0  0.00000000000E+00  0.00000000000E+00  0.24273291350E+04  0.24273291350E+04  0.00000000000E+00 0. -1.
         -2   -1    0    0    0  501 -0.00000000000E+00 -0.00000000000E+00 -0.66698419695E+03  0.66698419695E+03  0.00000000000E+00 0.  1.
         23    2    1    2    0    0 -0.65597210061E+03  0.97342267215E+03  0.28986550165E+03  0.12127818099E+04  0.94692206865E+02 0.  0.
         11    1    3    3    0    0 -0.21415030985E+03  0.30798023552E+03  0.47817186985E+02  0.37815164160E+03  0.00000000000E+00 0.  1.
        -11    1    3    3    0    0 -0.44182179076E+03  0.66544243664E+03  0.24204831466E+03  0.83463016834E+03  0.00000000000E+00 0. -1.
         22    1    1    2    0    0  0.65597210061E+03 -0.97342267215E+03  0.14704794364E+04  0.18815315220E+04  0.00000000000E+00 0. -1.
<mgrwt>
<rscale>  0 0.25447909E+04</rscale>
<asrwt>0</asrwt>
<pdfrwt beam="1">  1        2 0.37343525E+00 0.25447909E+04</pdfrwt>
<pdfrwt beam="2">  1       -2 0.10261295E+00 0.25447909E+04</pdfrwt>
<totfact> 0.26460288E+00</totfact>
</mgrwt>
</event>
<event>
 6    1  0.9364335E-007  0.1806287E+04  0.7818608E-02  0.8702963E-01
         -2   -1    0    0    0  501 -0.00000000000E+00  0.00000000000E+00  0.76868131734E+03  0.76868131734E+03  0.00000000000E+00 0.  1.
          2   -1    0    0  501    0  0.00000000000E+00 -0.00000000000E+00 -0.10611270219E+04  0.10611270219E+04  0.00000000000E+00 0. -1.
         23    2    1    2    0    0 -0.33337046498E+03 -0.71020827624E+03  0.30195253442E+03  0.84551116407E+03  0.90455143327E+02 0.  0.
         11    1    3    3    0    0 -0.25300653250E+03 -0.52448294690E+03  0.26507422590E+03  0.63981170067E+03  0.00000000000E+00 0. -1.
        -11    1    3    3    0    0 -0.80363932479E+02 -0.18572532934E+03  0.36878308524E+02  0.20569946340E+03  0.00000000000E+00 0.  1.
         22    1    1    2    0    0  0.33337046498E+03  0.71020827624E+03 -0.59439823901E+03  0.98429717520E+03  0.00000000000E+00 0. -1.
<mgrwt>
<rscale>  0 0.18062874E+04</rscale>
<asrwt>0</asrwt>
<pdfrwt beam="1">  1        2 0.16325031E+00 0.18062874E+04</pdfrwt>
<pdfrwt beam="2">  1       -2 0.11825867E+00 0.18062874E+04</pdfrwt>
<totfact> 0.11969177E+01</totfact>
</mgrwt>
</event>
<event>
 6    1  0.9364335E-007  0.4040494E+04  0.7818608E-02  0.7996427E-01
         -2   -1    0    0    0  501 -0.00000000000E+00  0.00000000000E+00  0.80158204891E+03  0.80158204891E+03  0.00000000000E+00 0.  1.
          2   -1    0    0  501    0  0.00000000000E+00 -0.00000000000E+00 -0.50916775325E+04  0.50916775325E+04  0.00000000000E+00 0. -1.
         23    2    1    2    0    0 -0.16037565459E+04  0.34158047305E+03 -0.42729441827E+03  0.16968391606E+04  0.89276754290E+02 0.  0.
         11    1    3    3    0    0 -0.14199803812E+04  0.27546027365E+03 -0.36429623962E+03  0.14916213981E+04  0.00000000000E+00 0.  1.
        -11    1    3    3    0    0 -0.18377616476E+03  0.66120199396E+02 -0.62998178650E+02  0.20521776243E+03  0.00000000000E+00 0. -1.
         22    1    1    2    0    0  0.16037565459E+04 -0.34158047305E+03 -0.38628010653E+04  0.41964204208E+04  0.00000000000E+00 0. -1.
<mgrwt>
<rscale>  0 0.40404937E+04</rscale>
<asrwt>0</asrwt>
<pdfrwt beam="1">  1        2 0.78333501E+00 0.40404937E+04</pdfrwt>
<pdfrwt beam="2">  1       -2 0.12332031E+00 0.40404937E+04</pdfrwt>
<totfact> 0.10039097E-02</totfact>
</mgrwt>
</event>
<event>
 6    1  0.9364335E-007  0.2396846E+04  0.7818608E-02  0.8440685E-01
          2   -1    0    0  501    0  0.00000000000E+00  0.00000000000E+00  0.23534754944E+04  0.23534754944E+04  0.00000000000E+00 0. -1.
         -2   -1    0    0    0  501 -0.00000000000E+00 -0.00000000000E+00 -0.61025369564E+03  0.61025369564E+03  0.00000000000E+00 0.  1.
         23    2    1    2    0    0  0.48568269128E+03 -0.10524855409E+04  0.50469619112E+03  0.12673922037E+04  0.89169851326E+02 0.  0.
         13    1    3    3    0    0  0.41093028238E+03 -0.94800068822E+03  0.46392970659E+03  0.11326075112E+04  0.00000000000E+00 0. -1.
        -13    1    3    3    0    0  0.74752408902E+02 -0.10448485264E+03  0.40766484531E+02  0.13478469249E+03  0.00000000000E+00 0.  1.
         22    1    1    2    0    0 -0.48568269128E+03  0.10524855409E+04  0.12385256076E+04  0.16963369863E+04  0.00000000000E+00 0.  1.
<mgrwt>
<rscale>  0 0.23968455E+04</rscale>
<asrwt>0</asrwt>
<pdfrwt beam="1">  1        2 0.36207315E+00 0.23968455E+04</pdfrwt>
<pdfrwt beam="2">  1       -2 0.93885185E-01 0.23968455E+04</pdfrwt>
<totfact> 0.36418417E+00</totfact>
</mgrwt>
</event>
<event>
 6    1  0.9364335E-007  0.1992236E+04  0.7818608E-02  0.8610259E-01
         -2   -1    0    0    0  501 -0.00000000000E+00  0.00000000000E+00  0.41251662795E+03  0.41251662795E+03  0.00000000000E+00 0.  1.
          2   -1    0    0  501    0  0.00000000000E+00 -0.00000000000E+00 -0.24053611579E+04  0.24053611579E+04  0.00000000000E+00 0. -1.
         23    2    1    2    0    0  0.56130594098E+03  0.77624891143E+03 -0.13743069286E+04  0.16776078634E+04  0.89564933071E+02 0.  0.
         11    1    3    3    0    0  0.36628265261E+03  0.46314078584E+03 -0.78327430677E+03  0.98090825706E+03  0.00000000000E+00 0. -1.
        -11    1    3    3    0    0  0.19502328837E+03  0.31310812559E+03 -0.59103262187E+03  0.69669960631E+03  0.00000000000E+00 0.  1.
         22    1    1    2    0    0 -0.56130594098E+03 -0.77624891143E+03 -0.61853760129E+03  0.11402699225E+04  0.00000000000E+00 0.  1.
<mgrwt>
<rscale>  0 0.19922364E+04</rscale>
<asrwt>0</asrwt>
<pdfrwt beam="1">  1        2 0.37005557E+00 0.19922364E+04</pdfrwt>
<pdfrwt beam="2">  1       -2 0.63464095E-01 0.19922364E+04</pdfrwt>
<totfact> 0.84366188E+00</totfact>
</mgrwt>
</event>
<event>
 6    1  0.9364335E-007  0.1517735E+04  0.7818608E-02  0.8872744E-01
          1   -1    0    0  501    0  0.00000000000E+00  0.00000000000E+00  0.11743727893E+03  0.11743727893E+03  0.00000000000E+00 0. -1.
         -1   -1    0    0    0  501 -0.00000000000E+00 -0.00000000000E+00 -0.49037231547E+04  0.49037231547E+04  0.00000000000E+00 0.  1.
         23    2    1    2    0    0 -0.13229378968E+03 -0.51237877434E+03 -0.41885755837E+04  0.42228551985E+04  0.91142481763E+02 0.  0.
         11    1    3    3    0    0 -0.36274259625E+02 -0.30076430223E+03 -0.22047046751E+04  0.22254207898E+04  0.00000000000E+00 0. -1.
        -11    1    3    3    0    0 -0.96019530053E+02 -0.21161447211E+03 -0.19838709086E+04  0.19974344087E+04  0.00000000000E+00 0.  1.
         22    1    1    2    0    0  0.13229378968E+03  0.51237877434E+03 -0.59771029207E+03  0.79830523513E+03  0.00000000000E+00 0. -1.
<mgrwt>
<rscale>  0 0.15177350E+04</rscale>
<asrwt>0</asrwt>
<pdfrwt beam="1">  1        1 0.18067278E-01 0.15177350E+04</pdfrwt>
<pdfrwt beam="2">  1       -1 0.75441878E+00 0.15177350E+04</pdfrwt>
<totfact> 0.35834799E-02</totfact>
</mgrwt>
</event>
<event>
 6    1  0.9364335E-007  0.2298805E+04  0.7818608E-02  0.8478393E-01
         -1   -1    0    0    0  501 -0.00000000000E+00  0.00000000000E+00  0.83557424541E+03  0.83557424541E+03  0.00000000000E+00 0.  1.
          1   -1    0    0  501    0  0.00000000000E+00 -0.00000000000E+00 -0.15810992433E+04  0.15810992433E+04  0.00000000000E+00 0. -1.
         23    2    1    2    0    0  0.36073146300E+03  0.42647031412E+02  0.76958999259E+03  0.85862362043E+03  0.11410436965E+03 0.  0.
         13    1    3    3    0    0  0.67589639734E+02 -0.35518813420E+02  0.13092651479E+03  0.15156417051E+03  0.00000000000E+00 0. -1.
        -13    1    3    3    0    0  0.29314182327E+03  0.78165844832E+02  0.63866347780E+03  0.70705944992E+03  0.00000000000E+00 0.  1.
         22    1    1    2    0    0 -0.36073146300E+03 -0.42647031412E+02 -0.15151149905E+04  0.15580498683E+04  0.00000000000E+00 0. -1.
<mgrwt>
<rscale>  0 0.22988047E+04</rscale>
<asrwt>0</asrwt>
<pdfrwt beam="1">  1        1 0.24324604E+00 0.22988047E+04</pdfrwt>
<pdfrwt beam="2">  1       -1 0.12854988E+00 0.22988047E+04</pdfrwt>
<totfact> 0.27115939E+00</totfact>
</mgrwt>
</event>
<event>
 6    1  0.9364335E-007  0.7635742E+03  0.7818608E-02  0.9614292E-01
         -4   -1    0    0    0  501 -0.00000000000E+00  0.00000000000E+00  0.60241485235E+03  0.60241485235E+03  0.00000000000E+00 0.  1.
          4   -1    0    0  501    0  0.00000000000E+00 -0.00000000000E+00 -0.24196182487E+03  0.24196182487E+03  0.00000000000E+00 0. -1.
         23    2    1    2    0    0  0.26667165773E+03 -0.20644049517E+03  0.36742115056E+03  0.50706375748E+03  0.91563645574E+02 0.  0.
         13    1    3    3    0    0  0.92706797066E+02 -0.12410406398E+03  0.19152250748E+03  0.24632750514E+03  0.00000000000E+00 0. -1.
        -13    1    3    3    0    0  0.17396486066E+03 -0.82336431196E+02  0.17589864308E+03  0.26073625234E+03  0.00000000000E+00 0.  1.
         22    1    1    2    0    0 -0.26667165773E+03  0.20644049517E+03 -0.69681230804E+01  0.33731291974E+03  0.00000000000E+00 0. -1.
<mgrwt>
<rscale>  0 0.76357422E+03</rscale>
<asrwt>0</asrwt>
<pdfrwt beam="1">  1        4 0.37224896E-01 0.76357422E+03</pdfrwt>
<pdfrwt beam="2">  1       -4 0.92679208E-01 0.76357422E+03</pdfrwt>
<totfact> 0.13836862E+01</totfact>
</mgrwt>
</event>
<event>
 6    1  0.9364335E-007  0.1964764E+04  0.7818608E-02  0.8623274E-01
         -2   -1    0    0    0  501 -0.00000000000E+00  0.00000000000E+00  0.10334624337E+04  0.10334624337E+04  0.00000000000E+00 0.  1.
          2   -1    0    0  501    0  0.00000000000E+00 -0.00000000000E+00 -0.93382659840E+03  0.93382659840E+03  0.00000000000E+00 0. -1.
         23    2    1    2    0    0  0.71435144196E+03 -0.31898987904E+03  0.64125605896E+03  0.10157613172E+04  0.92245297260E+02 0.  0.
         13    1    3    3    0    0  0.14733645382E+03 -0.31582944228E+02  0.99902057117E+02  0.18079251646E+03  0.00000000000E+00 0. -1.
        -13    1    3    3    0    0  0.56701498814E+03 -0.28740693481E+03  0.54135400184E+03  0.83496880077E+03  0.00000000000E+00 0.  1.
         22    1    1    2    0    0 -0.71435144196E+03  0.31898987904E+03 -0.54162022364E+03  0.95152771489E+03  0.00000000000E+00 0. -1.
<mgrwt>
<rscale>  0 0.19647643E+04</rscale>
<asrwt>0</asrwt>
<pdfrwt beam="1">  1        2 0.14366563E+00 0.19647643E+04</pdfrwt>
<pdfrwt beam="2">  1       -2 0.15899422E+00 0.19647643E+04</pdfrwt>
<totfact> 0.66424169E+00</totfact>
</mgrwt>
</event>
<event>
 6    1  0.9364335E-007  0.1546267E+04  0.7818608E-02  0.8854255E-01
         -2   -1    0    0    0  501 -0.00000000000E+00  0.00000000000E+00  0.42828310999E+03  0.42828310999E+03  0.00000000000E+00 0.  1.
          2   -1    0    0  501    0  0.00000000000E+00 -0.00000000000E+00 -0.13956557353E+04  0.13956557353E+04  0.00000000000E+00 0. -1.
         23    2    1    2    0    0 -0.19181476105E+03  0.63226118896E+03 -0.95271527610E+03  0.11630591652E+04  0.92158075011E+02 0.  0.
         13    1    3    3    0    0 -0.16960769428E+03  0.40980993817E+03 -0.63906484513E+03  0.77789127239E+03  0.00000000000E+00 0. -1.
        -13    1    3    3    0    0 -0.22207066767E+02  0.22245125079E+03 -0.31365043097E+03  0.38516789279E+03  0.00000000000E+00 0.  1.
         22    1    1    2    0    0  0.19181476105E+03 -0.63226118896E+03 -0.14657349171E+02  0.66087968005E+03  0.00000000000E+00 0.  1.
<mgrwt>
<rscale>  0 0.15462675E+04</rscale>
<asrwt>0</asrwt>
<pdfrwt beam="1">  1        2 0.21471627E+00 0.15462675E+04</pdfrwt>
<pdfrwt beam="2">  1       -2 0.65889709E-01 0.15462675E+04</pdfrwt>
<totfact> 0.29707519E+01</totfact>
</mgrwt>
</event>
<event>
 6    1  0.9364335E-007  0.3327216E+04  0.7818608E-02  0.8156005E-01
          2   -1    0    0  501    0  0.00000000000E+00  0.00000000000E+00  0.40719778105E+04  0.40719778105E+04  0.00000000000E+00 0. -1.
         -2   -1    0    0    0  501 -0.00000000000E+00 -0.00000000000E+00 -0.67966770419E+03  0.67966770419E+03  0.00000000000E+00 0.  1.
         23    2    1    2    0    0  0.11922851357E+04  0.61877655296E+03  0.30959442206E+04  0.33760507323E+04  0.91758720644E+02 0.  0.
         11    1    3    3    0    0  0.90357845322E+03  0.44282444486E+03  0.23961526543E+04  0.25988641851E+04  0.00000000000E+00 0. -1.
        -11    1    3    3    0    0  0.28870668243E+03  0.17595210810E+03  0.69979156631E+03  0.77718654718E+03  0.00000000000E+00 0.  1.
         22    1    1    2    0    0 -0.11922851357E+04 -0.61877655296E+03  0.29636588574E+03  0.13755947824E+04  0.00000000000E+00 0.  1.
<mgrwt>
<rscale>  0 0.33272161E+04</rscale>
<asrwt>0</asrwt>
<pdfrwt beam="1">  1        2 0.62645811E+00 0.33272161E+04</pdfrwt>
<pdfrwt beam="2">  1       -2 0.10456426E+00 0.33272161E+04</pdfrwt>
<totfact> 0.18435395E-01</totfact>
</mgrwt>
</event>
<event>
 6    1  0.9364335E-007  0.6366940E+04  0.7818608E-02  0.7646499E-01
         -2   -1    0    0    0  501 -0.00000000000E+00  0.00000000000E+00  0.27055343658E+04  0.27055343658E+04  0.00000000000E+00 0.  1.
          2   -1    0    0  501    0  0.00000000000E+00 -0.00000000000E+00 -0.37458333410E+04  0.37458333410E+04  0.00000000000E+00 0. -1.
         23    2    1    2    0    0 -0.15289464837E+04 -0.21951387975E+03 -0.33400808774E+04  0.36810138501E+04  0.88651023414E+02 0.  0.
         11    1    3    3    0    0 -0.97949737843E+03 -0.12923692793E+03 -0.20370804422E+04  0.22640260657E+04  0.00000000000E+00 0. -1.
        -11    1    3    3    0    0 -0.54944910528E+03 -0.90276951817E+02 -0.13030004351E+04  0.14169877844E+04  0.00000000000E+00 0.  1.
         22    1    1    2    0    0  0.15289464837E+04  0.21951387975E+03  0.22997819022E+04  0.27703538566E+04  0.00000000000E+00 0.  1.
<mgrwt>
<rscale>  0 0.63669399E+04</rscale>
<asrwt>0</asrwt>
<pdfrwt beam="1">  1        2 0.57628205E+00 0.63669399E+04</pdfrwt>
<pdfrwt beam="2">  1       -2 0.41623606E+00 0.63669399E+04</pdfrwt>
<totfact> 0.20475664E-03</totfact>
</mgrwt>
</event>
<event>
 6    1  0.9364335E-007  0.2376221E+04  0.7818608E-02  0.8448460E-01
         -1   -1    0    0    0  501 -0.00000000000E+00  0.00000000000E+00  0.87965372784E+03  0.87965372784E+03  0.00000000000E+00 0.  1.
          1   -1    0    0  501    0  0.00000000000E+00 -0.00000000000E+00 -0.16047302176E+04  0.16047302176E+04  0.00000000000E+00 0. -1.
         23    2    1    2    0    0  0.57318318777E+03  0.10988271412E+01  0.72288378420E+03  0.92710133489E+03  0.91737372615E+02 0.  0.
         11    1    3    3    0    0  0.10900068561E+03  0.35935373348E+02  0.15330714387E+03  0.19150869663E+03  0.00000000000E+00 0. -1.
        -11    1    3    3    0    0  0.46418250215E+03 -0.34836546207E+02  0.56957664033E+03  0.73559263826E+03  0.00000000000E+00 0.  1.
         22    1    1    2    0    0 -0.57318318777E+03 -0.10988271412E+01 -0.14479602739E+04  0.15572826105E+04  0.00000000000E+00 0. -1.
<mgrwt>
<rscale>  0 0.23762213E+04</rscale>
<asrwt>0</asrwt>
<pdfrwt beam="1">  1        1 0.24688157E+00 0.23762213E+04</pdfrwt>
<pdfrwt beam="2">  1       -1 0.13533134E+00 0.23762213E+04</pdfrwt>
<totfact> 0.22765450E+00</totfact>
</mgrwt>
</event>
<event>
 6    1  0.1353099E-006  0.1744559E+04  0.7818608E-02  0.8736351E-01
          1   -1    0    0  501    0  0.00000000000E+00  0.00000000000E+00  0.14551341129E+04  0.14551341129E+04  0.00000000000E+00 0. -1.
         -1   -1    0    0    0  501 -0.00000000000E+00 -0.00000000000E+00 -0.52288741429E+03  0.52288741429E+03  0.00000000000E+00 0.  1.
         23    2    1    2    0    0 -0.25891942805E+03  0.53005670544E+03  0.11922188382E+04  0.13333627845E+04  0.92038990121E+02 0.  0.
         13    1    3    3    0    0 -0.76010163419E+02  0.20382251195E+03  0.52849324308E+03  0.57151226523E+03  0.00000000000E+00 0. -1.
        -13    1    3    3    0    0 -0.18290926463E+03  0.32623419349E+03  0.66372559513E+03  0.76185051928E+03  0.00000000000E+00 0.  1.
         22    1    1    2    0    0  0.25891942805E+03 -0.53005670544E+03 -0.25997213958E+03  0.64465874271E+03  0.00000000000E+00 0.  1.
<mgrwt>
<rscale>  0 0.17445588E+04</rscale>
<asrwt>0</asrwt>
<pdfrwt beam="1">  1        1 0.22386678E+00 0.17445588E+04</pdfrwt>
<pdfrwt beam="2">  1       -1 0.80444218E-01 0.17445588E+04</pdfrwt>
<totfact> 0.10272842E+01</totfact>
</mgrwt>
</event>
<event>
 6    1  0.9364335E-007  0.4165334E+04  0.7818608E-02  0.7971999E-01
         -1   -1    0    0    0  501 -0.00000000000E+00  0.00000000000E+00  0.28772824066E+04  0.28772824066E+04  0.00000000000E+00 0.  1.
          1   -1    0    0  501    0  0.00000000000E+00 -0.00000000000E+00 -0.15074993817E+04  0.15074993817E+04  0.00000000000E+00 0. -1.
         23    2    1    2    0    0  0.20586127400E+04  0.19379797330E+03  0.93572287298E+03  0.22719987224E+04  0.10467488780E+03 0.  0.
         13    1    3    3    0    0  0.75611350886E+03  0.28147234790E+02  0.31303427065E+03  0.81883475727E+03  0.00000000000E+00 0.  1.
        -13    1    3    3    0    0  0.13024992311E+04  0.16565073851E+03  0.62268860233E+03  0.14531639652E+04  0.00000000000E+00 0. -1.
         22    1    1    2    0    0 -0.20586127400E+04 -0.19379797330E+03  0.43406015192E+03  0.21127830658E+04  0.00000000000E+00 0.  1.
<mgrwt>
<rscale>  0 0.41653338E+04</rscale>
<asrwt>0</asrwt>
<pdfrwt beam="1">  1        1 0.23192298E+00 0.41653338E+04</pdfrwt>
<pdfrwt beam="2">  1       -1 0.44265883E+00 0.41653338E+04</pdfrwt>
<totfact> 0.18148834E-02</totfact>
</mgrwt>
</event>
<event>
 6    1  0.9364335E-007  0.4565028E+03  0.7818608E-02  0.1025800E+00
         -1   -1    0    0    0  501 -0.00000000000E+00  0.00000000000E+00  0.35083948658E+02  0.35083948658E+02  0.00000000000E+00 0.  1.
          1   -1    0    0  501    0  0.00000000000E+00 -0.00000000000E+00 -0.14849723258E+04  0.14849723258E+04  0.00000000000E+00 0. -1.
         23    2    1    2    0    0  0.46862010617E+02  0.20833327989E+03 -0.91883129872E+03  0.94767491200E+03  0.90763317325E+02 0.  0.
         13    1    3    3    0    0  0.63570892010E+02  0.80910295460E+02 -0.44315009302E+03  0.45493926975E+03  0.00000000000E+00 0. -1.
        -13    1    3    3    0    0 -0.16708881393E+02  0.12742298443E+03 -0.47568120571E+03  0.49273564225E+03  0.00000000000E+00 0.  1.
         22    1    1    2    0    0 -0.46862010617E+02 -0.20833327989E+03 -0.53105707839E+03  0.57238136243E+03  0.00000000000E+00 0.  1.
<mgrwt>
<rscale>  0 0.45650276E+03</rscale>
<asrwt>0</asrwt>
<pdfrwt beam="1">  1        1 0.22845733E+00 0.45650276E+03</pdfrwt>
<pdfrwt beam="2">  1       -1 0.53975295E-02 0.45650276E+03</pdfrwt>
<totfact> 0.11382467E+03</totfact>
</mgrwt>
</event>
<event>
 6    1  0.9364335E-007  0.3672704E+04  0.7818608E-02  0.8074038E-01
          1   -1    0    0  501    0  0.00000000000E+00  0.00000000000E+00  0.23680697404E+04  0.23680697404E+04  0.00000000000E+00 0. -1.
         -1   -1    0    0    0  501 -0.00000000000E+00 -0.00000000000E+00 -0.14240244989E+04  0.14240244989E+04  0.00000000000E+00 0.  1.
         23    2    1    2    0    0  0.12104876275E+03  0.38907686958E+03 -0.13752761272E+04  0.14372513093E+04  0.90957609395E+02 0.  0.
         13    1    3    3    0    0  0.12059573770E+03  0.37083248600E+03 -0.12175042178E+04  0.12784273874E+04  0.00000000000E+00 0. -1.
        -13    1    3    3    0    0  0.45302505272E+00  0.18244383579E+02 -0.15777190940E+03  0.15882392187E+03  0.00000000000E+00 0.  1.
         22    1    1    2    0    0 -0.12104876275E+03 -0.38907686958E+03  0.23193213687E+04  0.23548429299E+04  0.00000000000E+00 0. -1.
<mgrwt>
<rscale>  0 0.36727044E+04</rscale>
<asrwt>0</asrwt>
<pdfrwt beam="1">  1        1 0.36431842E+00 0.36727044E+04</pdfrwt>
<pdfrwt beam="2">  1       -1 0.21908069E+00 0.36727044E+04</pdfrwt>
<totfact> 0.15001611E-01</totfact>
</mgrwt>
</event>
<event>
 6    1  0.9364335E-007  0.1685979E+04  0.7818608E-02  0.8769402E-01
         -2   -1    0    0    0  501 -0.00000000000E+00  0.00000000000E+00  0.29402195126E+03  0.29402195126E+03  0.00000000000E+00 0.  1.
          2   -1    0    0  501    0  0.00000000000E+00 -0.00000000000E+00 -0.24169333682E+04  0.24169333682E+04  0.00000000000E+00 0. -1.
         23    2    1    2    0    0 -0.65398187392E+03 -0.21277171545E+03 -0.18419036627E+04  0.19680357732E+04  0.87129830799E+02 0.  0.
         13    1    3    3    0    0 -0.36415512894E+03 -0.10579760021E+03 -0.89544450036E+03  0.97243145948E+03  0.00000000000E+00 0. -1.
        -13    1    3    3    0    0 -0.28982674498E+03 -0.10697411524E+03 -0.94645916235E+03  0.99560431369E+03  0.00000000000E+00 0.  1.
         22    1    1    2    0    0  0.65398187392E+03  0.21277171545E+03 -0.28100775422E+03  0.74291954628E+03  0.00000000000E+00 0.  1.
<mgrwt>
<rscale>  0 0.16859792E+04</rscale>
<asrwt>0</asrwt>
<pdfrwt beam="1">  1        2 0.37183589E+00 0.16859792E+04</pdfrwt>
<pdfrwt beam="2">  1       -2 0.45234148E-01 0.16859792E+04</pdfrwt>
<totfact> 0.17186076E+01</totfact>
</mgrwt>
</event>
<event>
 6    1  0.1111374E-006  0.3178461E+04  0.7818608E-02  0.8194529E-01
         -2   -1    0    0    0  501 -0.00000000000E+00  0.00000000000E+00  0.20366989357E+04  0.20366989357E+04  0.00000000000E+00 0.  1.
          2   -1    0    0  501    0  0.00000000000E+00 -0.00000000000E+00 -0.12400718507E+04  0.12400718507E+04  0.00000000000E+00 0. -1.
         23    2    1    2    0    0  0.48622642761E+03 -0.25122099554E+03 -0.11377037443E+04  0.12665061559E+04  0.10069709851E+03 0.  0.
         11    1    3    3    0    0  0.13536656436E+03 -0.67519717495E+02 -0.42555240884E+03  0.45163909449E+03  0.00000000000E+00 0. -1.
        -11    1    3    3    0    0  0.35085986324E+03 -0.18370127804E+03 -0.71215133547E+03  0.81486706143E+03  0.00000000000E+00 0.  1.
         22    1    1    2    0    0 -0.48622642761E+03  0.25122099554E+03  0.19343308293E+04  0.20102646305E+04  0.00000000000E+00 0.  1.
<mgrwt>
<rscale>  0 0.31784606E+04</rscale>
<asrwt>0</asrwt>
<pdfrwt beam="1">  1        2 0.19078029E+00 0.31784606E+04</pdfrwt>
<pdfrwt beam="2">  1       -2 0.31333830E+00 0.31784606E+04</pdfrwt>
<totfact> 0.39799398E-01</totfact>
</mgrwt>
</event>
<event>
 6    1  0.9364335E-007  0.4398695E+04  0.7818608E-02  0.7928616E-01
          2   -1    0    0  501    0  0.00000000000E+00  0.00000000000E+00  0.27922821430E+04  0.27922821430E+04  0.00000000000E+00 0. -1.
         -2   -1    0    0    0  501 -0.00000000000E+00 -0.00000000000E+00 -0.17323209176E+04  0.17323209176E+04  0.00000000000E+00 0.  1.
         23    2    1    2    0    0 -0.18179146404E+03 -0.49652546310E+03 -0.16645216303E+04  0.17492846099E+04  0.98887394957E+02 0.  0.
         11    1    3    3    0    0 -0.52076406615E+02 -0.47353727805E+02 -0.21384575263E+03  0.22513181379E+03  0.00000000000E+00 0.  1.
        -11    1    3    3    0    0 -0.12971505742E+03 -0.44917173529E+03 -0.14506758776E+04  0.15241527961E+04  0.00000000000E+00 0. -1.
         22    1    1    2    0    0  0.18179146404E+03  0.49652546310E+03  0.27244828557E+04  0.27753184507E+04  0.00000000000E+00 0. -1.
<mgrwt>
<rscale>  0 0.43986947E+04</rscale>
<asrwt>0</asrwt>
<pdfrwt beam="1">  1        2 0.42958187E+00 0.43986947E+04</pdfrwt>
<pdfrwt beam="2">  1       -2 0.26651091E+00 0.43986947E+04</pdfrwt>
<totfact> 0.90878467E-02</totfact>
</mgrwt>
</event>
<event>
 6    1  0.9364335E-007  0.3230123E+03  0.7818608E-02  0.1074271E+00
          1   -1    0    0  501    0  0.00000000000E+00  0.00000000000E+00  0.12445086118E+04  0.12445086118E+04  0.00000000000E+00 0. -1.
         -1   -1    0    0    0  501 -0.00000000000E+00 -0.00000000000E+00 -0.20959462698E+02  0.20959462698E+02  0.00000000000E+00 0.  1.
         23    2    1    2    0    0  0.78997676726E+02 -0.44713425168E+02  0.11208978820E+04  0.11284381291E+04  0.93384291054E+02 0.  0.
         13    1    3    3    0    0  0.66665817905E+02  0.14261684646E+02  0.50056382600E+03  0.50518498673E+03  0.00000000000E+00 0. -1.
        -13    1    3    3    0    0  0.12331858821E+02 -0.58975109814E+02  0.62033405605E+03  0.62325314232E+03  0.00000000000E+00 0.  1.
         22    1    1    2    0    0 -0.78997676726E+02  0.44713425168E+02  0.10265126704E+03  0.13702994543E+03  0.00000000000E+00 0.  1.
<mgrwt>
<rscale>  0 0.32301227E+03</rscale>
<asrwt>0</asrwt>
<pdfrwt beam="1">  1        1 0.19146280E+00 0.32301227E+03</pdfrwt>
<pdfrwt beam="2">  1       -1 0.32245337E-02 0.32301227E+03</pdfrwt>
<totfact> 0.36202375E+03</totfact>
</mgrwt>
</event>
<event>
 6    1  0.9364335E-007  0.1824975E+04  0.7818608E-02  0.8693129E-01
         -1   -1    0    0    0  501 -0.00000000000E+00  0.00000000000E+00  0.43134725542E+03  0.43134725542E+03  0.00000000000E+00 0.  1.
          1   -1    0    0  501    0  0.00000000000E+00 -0.00000000000E+00 -0.19303097350E+04  0.19303097350E+04  0.00000000000E+00 0. -1.
         23    2    1    2    0    0 -0.58718467914E+03  0.47554111060E+03 -0.94188552736E+02  0.76656608993E+03  0.88469720704E+02 0.  0.
         11    1    3    3    0    0 -0.35811018813E+03  0.32869725890E+03 -0.30109610471E+02  0.48702298046E+03  0.00000000000E+00 0. -1.
        -11    1    3    3    0    0 -0.22907449101E+03  0.14684385170E+03 -0.64078942265E+02  0.27954310947E+03  0.00000000000E+00 0.  1.
         22    1    1    2    0    0  0.58718467914E+03 -0.47554111060E+03 -0.14047739269E+04  0.15950909005E+04  0.00000000000E+00 0. -1.
<mgrwt>
<rscale>  0 0.18249754E+04</rscale>
<asrwt>0</asrwt>
<pdfrwt beam="1">  1        1 0.29697073E+00 0.18249754E+04</pdfrwt>
<pdfrwt beam="2">  1       -1 0.66361116E-01 0.18249754E+04</pdfrwt>
<totfact> 0.71998083E+00</totfact>
</mgrwt>
</event>
<event>
 6    1  0.9364335E-007  0.1574692E+04  0.7818608E-02  0.8836248E-01
          2   -1    0    0  501    0  0.00000000000E+00  0.00000000000E+00  0.31387231505E+03  0.31387231505E+03  0.00000000000E+00 0. -1.
         -2   -1    0    0    0  501 -0.00000000000E+00 -0.00000000000E+00 -0.19750510069E+04  0.19750510069E+04  0.00000000000E+00 0.  1.
         23    2    1    2    0    0  0.58588809913E+03 -0.45113275773E+03 -0.46424987162E+03  0.88200319966E+03  0.12496427934E+03 0.  0.
         11    1    3    3    0    0  0.12759108797E+03 -0.38964811688E+02 -0.89432185392E+02  0.16061089024E+03  0.00000000000E+00 0. -1.
        -11    1    3    3    0    0  0.45829701116E+03 -0.41216794604E+03 -0.37481768623E+03  0.72139230942E+03  0.00000000000E+00 0.  1.
         22    1    1    2    0    0 -0.58588809913E+03  0.45113275773E+03 -0.11969288202E+04  0.14069201223E+04  0.00000000000E+00 0. -1.
<mgrwt>
<rscale>  0 0.15746921E+04</rscale>
<asrwt>0</asrwt>
<pdfrwt beam="1">  1        2 0.48288049E-01 0.15746921E+04</pdfrwt>
<pdfrwt beam="2">  1       -2 0.30385400E+00 0.15746921E+04</pdfrwt>
<totfact> 0.30289666E+00</totfact>
</mgrwt>
</event>
<event>
 6    1  0.9364335E-007  0.2123693E+04  0.7818608E-02  0.8550878E-01
         -1   -1    0    0    0  501 -0.00000000000E+00  0.00000000000E+00  0.50027029317E+03  0.50027029317E+03  0.00000000000E+00 0.  1.
          1   -1    0    0  501    0  0.00000000000E+00 -0.00000000000E+00 -0.22538181931E+04  0.22538181931E+04  0.00000000000E+00 0. -1.
         23    2    1    2    0    0  0.30816710179E+03 -0.56888805098E+03 -0.19671030838E+04  0.20727615503E+04  0.90803772587E+02 0.  0.
         13    1    3    3    0    0  0.20122457946E+03 -0.28726012285E+03 -0.99128822549E+03  0.10515046626E+04  0.00000000000E+00 0.  1.
        -13    1    3    3    0    0  0.10694252233E+03 -0.28162792814E+03 -0.97581485828E+03  0.10212568877E+04  0.00000000000E+00 0. -1.
         22    1    1    2    0    0 -0.30816710179E+03  0.56888805098E+03  0.21355518381E+03  0.68132693599E+03  0.00000000000E+00 0.  1.
<mgrwt>
<rscale>  0 0.21236933E+04</rscale>
<asrwt>0</asrwt>
<pdfrwt beam="1">  1        1 0.34674126E+00 0.21236933E+04</pdfrwt>
<pdfrwt beam="2">  1       -1 0.76964661E-01 0.21236933E+04</pdfrwt>
<totfact> 0.31107025E+00</totfact>
</mgrwt>
</event>
<event>
 6    1  0.9364335E-007  0.2309464E+04  0.7818608E-02  0.8474199E-01
         -1   -1    0    0    0  501 -0.00000000000E+00  0.00000000000E+00  0.14266462949E+04  0.14266462949E+04  0.00000000000E+00 0.  1.
          1   -1    0    0  501    0  0.00000000000E+00 -0.00000000000E+00 -0.93464345147E+03  0.93464345147E+03  0.00000000000E+00 0. -1.
         23    2    1    2    0    0  0.98024630263E+03 -0.53428704056E+03 -0.48004319642E+02  0.11211473385E+04  0.91222170829E+02 0.  0.
         11    1    3    3    0    0  0.87689055322E+03 -0.45268787565E+03 -0.23020229023E+02  0.98711361354E+03  0.00000000000E+00 0. -1.
        -11    1    3    3    0    0  0.10335574940E+03 -0.81599164911E+02 -0.24984090619E+02  0.13403372498E+03  0.00000000000E+00 0.  1.
         22    1    1    2    0    0 -0.98024630263E+03  0.53428704056E+03  0.54000716304E+03  0.12401424078E+04  0.00000000000E+00 0. -1.
<mgrwt>
<rscale>  0 0.23094637E+04</rscale>
<asrwt>0</asrwt>
<pdfrwt beam="1">  1        1 0.14379130E+00 0.23094637E+04</pdfrwt>
<pdfrwt beam="2">  1       -1 0.21948405E+00 0.23094637E+04</pdfrwt>
<totfact> 0.17083450E+00</totfact>
</mgrwt>
</event>
<event>
 6    1  0.9364335E-007  0.1295548E+04  0.7818608E-02  0.9033103E-01
         -2   -1    0    0    0  501 -0.00000000000E+00  0.00000000000E+00  0.23915170700E+03  0.23915170700E+03  0.00000000000E+00 0.  1.
          2   -1    0    0  501    0  0.00000000000E+00 -0.00000000000E+00 -0.17545818810E+04  0.17545818810E+04  0.00000000000E+00 0. -1.
         23    2    1    2    0    0  0.59638268093E+03 -0.19528061167E+03 -0.53462483878E+03  0.82935138057E+03  0.90516157708E+02 0.  0.
         11    1    3    3    0    0  0.45419018130E+03 -0.14455743790E+03 -0.45375277639E+03  0.65808597898E+03  0.00000000000E+00 0.  1.
        -11    1    3    3    0    0  0.14219249963E+03 -0.50723173761E+02 -0.80872062382E+02  0.17126540159E+03  0.00000000000E+00 0. -1.
         22    1    1    2    0    0 -0.59638268093E+03  0.19528061167E+03 -0.98080533522E+03  0.11643822074E+04  0.00000000000E+00 0. -1.
<mgrwt>
<rscale>  0 0.12955481E+04</rscale>
<asrwt>0</asrwt>
<pdfrwt beam="1">  1        2 0.26993568E+00 0.12955481E+04</pdfrwt>
<pdfrwt beam="2">  1       -2 0.36792570E-01 0.12955481E+04</pdfrwt>
<totfact> 0.62393755E+01</totfact>
</mgrwt>
</event>
<event>
 6    1  0.9364335E-007  0.1767280E+04  0.7818608E-02  0.8723896E-01
          1   -1    0    0  501    0  0.00000000000E+00  0.00000000000E+00  0.84838848863E+03  0.84838848863E+03  0.00000000000E+00 0. -1.
         -1   -1    0    0    0  501 -0.00000000000E+00 -0.00000000000E+00 -0.92035610874E+03  0.92035610874E+03  0.00000000000E+00 0.  1.
         23    2    1    2    0    0  0.58423952359E+03  0.61290005687E+03  0.20858859183E+03  0.87672773167E+03  0.90332796900E+02 0.  0.
         13    1    3    3    0    0  0.44736362135E+03  0.49533800073E+03  0.19702187527E+03  0.69592497010E+03  0.00000000000E+00 0.  1.
        -13    1    3    3    0    0  0.13687590224E+03  0.11756205615E+03  0.11566716559E+02  0.18080276157E+03  0.00000000000E+00 0. -1.
         22    1    1    2    0    0 -0.58423952359E+03 -0.61290005687E+03 -0.28055621194E+03  0.89201686570E+03  0.00000000000E+00 0.  1.
<mgrwt>
<rscale>  0 0.17672799E+04</rscale>
<asrwt>0</asrwt>
<pdfrwt beam="1">  1        1 0.13052131E+00 0.17672799E+04</pdfrwt>
<pdfrwt beam="2">  1       -1 0.14159325E+00 0.17672799E+04</pdfrwt>
<totfact> 0.77361505E+00</totfact>
</mgrwt>
</event>
<event>
 6    1  0.9364335E-007  0.2178134E+04  0.7818608E-02  0.8527585E-01
         -2   -1    0    0    0  501 -0.00000000000E+00  0.00000000000E+00  0.30191447207E+03  0.30191447207E+03  0.00000000000E+00 0.  1.
          2   -1    0    0  501    0  0.00000000000E+00 -0.00000000000E+00 -0.39284876364E+04  0.39284876364E+04  0.00000000000E+00 0. -1.
         23    2    1    2    0    0  0.54807929359E+03 -0.14983942493E+03 -0.36166530827E+04  0.36621229752E+04  0.90124353588E+02 0.  0.
         13    1    3    3    0    0  0.92214394345E+02 -0.48753403612E+02 -0.84484050519E+03  0.85125546582E+03  0.00000000000E+00 0. -1.
        -13    1    3    3    0    0  0.45586489925E+03 -0.10108602131E+03 -0.27718125775E+04  0.28108675093E+04  0.00000000000E+00 0.  1.
         22    1    1    2    0    0 -0.54807929359E+03  0.14983942493E+03 -0.99200815947E+01  0.56827913330E+03  0.00000000000E+00 0.  1.
<mgrwt>
<rscale>  0 0.21781343E+04</rscale>
<asrwt>0</asrwt>
<pdfrwt beam="1">  1        2 0.60438270E+00 0.21781343E+04</pdfrwt>
<pdfrwt beam="2">  1       -2 0.46448381E-01 0.21781343E+04</pdfrwt>
<totfact> 0.15816280E+00</totfact>
</mgrwt>
</event>
<event>
 6    1  0.9364335E-007  0.7888335E+03  0.7818608E-02  0.9576322E-01
          2   -1    0    0  501    0  0.00000000000E+00  0.00000000000E+00  0.24902238521E+04  0.24902238521E+04  0.00000000000E+00 0. -1.
         -2   -1    0    0    0  501 -0.00000000000E+00 -0.00000000000E+00 -0.62470119760E+02  0.62470119760E+02  0.00000000000E+00 0.  1.
         23    2    1    2    0    0 -0.10862950203E+03 -0.36756595211E+03  0.14471915658E+04  0.14998847487E+04  0.91573650532E+02 0.  0.
         11    1    3    3    0    0 -0.93266531644E+02 -0.24501452958E+03  0.11168857682E+04  0.11472421649E+04  0.00000000000E+00 0.  1.
        -11    1    3    3    0    0 -0.15362970391E+02 -0.12255142253E+03  0.33030579753E+03  0.35264258380E+03  0.00000000000E+00 0. -1.
         22    1    1    2    0    0  0.10862950203E+03  0.36756595211E+03  0.98056216654E+03  0.10528092231E+04  0.00000000000E+00 0. -1.
<mgrwt>
<rscale>  0 0.78883352E+03</rscale>
<asrwt>0</asrwt>
<pdfrwt beam="1">  1        2 0.38311128E+00 0.78883352E+03</pdfrwt>
<pdfrwt beam="2">  1       -2 0.96107896E-02 0.78883352E+03</pdfrwt>
<totfact> 0.26696848E+02</totfact>
</mgrwt>
</event>
<event>
 6    1  0.9364335E-007  0.4148635E+03  0.7818608E-02  0.1038751E+00
          4   -1    0    0  501    0  0.00000000000E+00  0.00000000000E+00  0.32029289989E+02  0.32029289989E+02  0.00000000000E+00 0. -1.
         -4   -1    0    0    0  501 -0.00000000000E+00 -0.00000000000E+00 -0.13433932254E+04  0.13433932254E+04  0.00000000000E+00 0.  1.
         23    2    1    2    0    0  0.10336960610E+03 -0.13867243501E+03 -0.32789123434E+03  0.37685660698E+03  0.67771092417E+02 0.  0.
         11    1    3    3    0    0  0.30004694152E+02 -0.76038877013E+02 -0.20450631423E+03  0.22023856395E+03  0.00000000000E+00 0. -1.
        -11    1    3    3    0    0  0.73364911944E+02 -0.62633557999E+02 -0.12338492011E+03  0.15661804303E+03  0.00000000000E+00 0.  1.
         22    1    1    2    0    0 -0.10336960610E+03  0.13867243501E+03 -0.98347270108E+03  0.99856590842E+03  0.00000000000E+00 0.  1.
<mgrwt>
<rscale>  0 0.41486350E+03</rscale>
<asrwt>0</asrwt>
<pdfrwt beam="1">  1        4 0.49275828E-02 0.41486350E+03</pdfrwt>
<pdfrwt beam="2">  1       -4 0.20667589E+00 0.41486350E+03</pdfrwt>
<totfact> 0.61099144E+01</totfact>
</mgrwt>
</event>
<event>
 6    1  0.9364335E-007  0.4371577E+04  0.7818608E-02  0.7933514E-01
          2   -1    0    0  501    0  0.00000000000E+00  0.00000000000E+00  0.29126872450E+04  0.29126872450E+04  0.00000000000E+00 0. -1.
         -2   -1    0    0    0  501 -0.00000000000E+00 -0.00000000000E+00 -0.16402964050E+04  0.16402964050E+04  0.00000000000E+00 0.  1.
         23    2    1    2    0    0  0.30480775485E+03 -0.20355527882E+04 -0.12687146785E+03  0.20641449796E+04  0.90637777746E+02 0.  0.
         13    1    3    3    0    0  0.28346158567E+03 -0.19082603378E+04 -0.96842438750E+02  0.19316279262E+04  0.00000000000E+00 0.  1.
        -13    1    3    3    0    0  0.21346169180E+02 -0.12729245038E+03 -0.30029029100E+02  0.13251705344E+03  0.00000000000E+00 0. -1.
         22    1    1    2    0    0 -0.30480775485E+03  0.20355527882E+04  0.13992623079E+04  0.24888386704E+04  0.00000000000E+00 0. -1.
<mgrwt>
<rscale>  0 0.43715766E+04</rscale>
<asrwt>0</asrwt>
<pdfrwt beam="1">  1        2 0.44810573E+00 0.43715766E+04</pdfrwt>
<pdfrwt beam="2">  1       -2 0.25235329E+00 0.43715766E+04</pdfrwt>
<totfact> 0.93859179E-02</totfact>
</mgrwt>
</event>
<event>
 6    1  0.9364335E-007  0.2476085E+04  0.7818608E-02  0.8411555E-01
          1   -1    0    0  501    0  0.00000000000E+00  0.00000000000E+00  0.10404856537E+04  0.10404856537E+04  0.00000000000E+00 0. -1.
         -1   -1    0    0    0  501 -0.00000000000E+00 -0.00000000000E+00 -0.14731097527E+04  0.14731097527E+04  0.00000000000E+00 0.  1.
         23    2    1    2    0    0 -0.95856862703E+03  0.11451776147E+03 -0.10007537055E+04  0.13934439076E+04  0.90608024947E+02 0.  0.
         11    1    3    3    0    0 -0.69847085814E+03  0.43173603142E+02 -0.71253045416E+03  0.99871174409E+03  0.00000000000E+00 0.  1.
        -11    1    3    3    0    0 -0.26009776889E+03  0.71344158331E+02 -0.28822325132E+03  0.39473216351E+03  0.00000000000E+00 0. -1.
         22    1    1    2    0    0  0.95856862703E+03 -0.11451776147E+03  0.56812960655E+03  0.11201514988E+04  0.00000000000E+00 0.  1.
<mgrwt>
<rscale>  0 0.24760853E+04</rscale>
<asrwt>0</asrwt>
<pdfrwt beam="1">  1        1 0.16007472E+00 0.24760853E+04</pdfrwt>
<pdfrwt beam="2">  1       -1 0.22663227E+00 0.24760853E+04</pdfrwt>
<totfact> 0.12451716E+00</totfact>
</mgrwt>
</event>
<event>
 6    1  0.9364335E-007  0.1774667E+04  0.7818608E-02  0.8719888E-01
          2   -1    0    0  501    0  0.00000000000E+00  0.00000000000E+00  0.35329790541E+04  0.35329790541E+04  0.00000000000E+00 0. -1.
         -2   -1    0    0    0  501 -0.00000000000E+00 -0.00000000000E+00 -0.22286033439E+03  0.22286033439E+03  0.00000000000E+00 0.  1.
         23    2    1    2    0    0 -0.10841574252E+03 -0.77536842052E+03  0.78634613122E+03  0.11134203757E+04  0.91730770033E+02 0.  0.
         11    1    3    3    0    0 -0.72212507667E+02 -0.25521714185E+03  0.23191748804E+03  0.35232961417E+03  0.00000000000E+00 0.  1.
        -11    1    3    3    0    0 -0.36203234854E+02 -0.52015127867E+03  0.55442864319E+03  0.76109076154E+03  0.00000000000E+00 0. -1.
         22    1    1    2    0    0  0.10841574252E+03  0.77536842052E+03  0.25237725885E+04  0.26424190128E+04  0.00000000000E+00 0.  1.
<mgrwt>
<rscale>  0 0.17746672E+04</rscale>
<asrwt>0</asrwt>
<pdfrwt beam="1">  1        2 0.54353520E+00 0.17746672E+04</pdfrwt>
<pdfrwt beam="2">  1       -2 0.34286208E-01 0.17746672E+04</pdfrwt>
<totfact> 0.58622455E+00</totfact>
</mgrwt>
</event>
<event>
 6    1  0.9364335E-007  0.3187392E+04  0.7818608E-02  0.8192155E-01
          1   -1    0    0  501    0  0.00000000000E+00  0.00000000000E+00  0.25397946902E+04  0.25397946902E+04  0.00000000000E+00 0. -1.
         -1   -1    0    0    0  501 -0.00000000000E+00 -0.00000000000E+00 -0.10000282924E+04  0.10000282924E+04  0.00000000000E+00 0.  1.
         23    2    1    2    0    0  0.37929426861E+03  0.14188379463E+04  0.89049614887E+02  0.14754721296E+04  0.11010409329E+03 0.  0.
         11    1    3    3    0    0  0.25181143919E+03  0.74777889090E+03  0.70130390595E+02  0.79214931816E+03  0.00000000000E+00 0. -1.
        -11    1    3    3    0    0  0.12748282943E+03  0.67105905541E+03  0.18919224292E+02  0.68332281148E+03  0.00000000000E+00 0.  1.
         22    1    1    2    0    0 -0.37929426861E+03 -0.14188379463E+04  0.14507167829E+04  0.20643508530E+04  0.00000000000E+00 0. -1.
<mgrwt>
<rscale>  0 0.31873918E+04</rscale>
<asrwt>0</asrwt>
<pdfrwt beam="1">  1        1 0.39073764E+00 0.31873918E+04</pdfrwt>
<pdfrwt beam="2">  1       -1 0.15385051E+00 0.31873918E+04</pdfrwt>
<totfact> 0.34661326E-01</totfact>
</mgrwt>
</event>
<event>
 6    1  0.9364335E-007  0.4769055E+03  0.7818608E-02  0.1019989E+00
          1   -1    0    0  501    0  0.00000000000E+00  0.00000000000E+00  0.62711497786E+03  0.62711497786E+03  0.00000000000E+00 0. -1.
         -1   -1    0    0    0  501 -0.00000000000E+00 -0.00000000000E+00 -0.90668740694E+02  0.90668740694E+02  0.00000000000E+00 0.  1.
         23    2    1    2    0    0  0.14307083831E+03 -0.81948906342E+02  0.37269223044E+02  0.19208173125E+03  0.91222302486E+02 0.  0.
         13    1    3    3    0    0  0.30893958809E+02 -0.25255966979E+02  0.51984842434E+02  0.65534146839E+02  0.00000000000E+00 0. -1.
        -13    1    3    3    0    0  0.11217687950E+03 -0.56692939362E+02 -0.14715619390E+02  0.12654758442E+03  0.00000000000E+00 0.  1.
         22    1    1    2    0    0 -0.14307083831E+03  0.81948906342E+02  0.49917701412E+03  0.52570198730E+03  0.00000000000E+00 0. -1.
<mgrwt>
<rscale>  0 0.47690555E+03</rscale>
<asrwt>0</asrwt>
<pdfrwt beam="1">  1        1 0.96479225E-01 0.47690555E+03</pdfrwt>
<pdfrwt beam="2">  1       -1 0.13949037E-01 0.47690555E+03</pdfrwt>
<totfact> 0.11938485E+03</totfact>
</mgrwt>
</event>
<event>
 6    1  0.9364335E-007  0.2633367E+04  0.7818608E-02  0.8356955E-01
         -2   -1    0    0    0  501 -0.00000000000E+00  0.00000000000E+00  0.17177216570E+04  0.17177216570E+04  0.00000000000E+00 0.  1.
          2   -1    0    0  501    0  0.00000000000E+00 -0.00000000000E+00 -0.10092764241E+04  0.10092764241E+04  0.00000000000E+00 0. -1.
         23    2    1    2    0    0  0.31460631707E+03 -0.61198104885E+03 -0.80583275785E+03  0.10637074354E+04  0.92785427917E+02 0.  0.
         13    1    3    3    0    0  0.20548086186E+03 -0.37601315425E+03 -0.43296034859E+03  0.60914935789E+03  0.00000000000E+00 0. -1.
        -13    1    3    3    0    0  0.10912545520E+03 -0.23596789460E+03 -0.37287240926E+03  0.45455807753E+03  0.00000000000E+00 0.  1.
         22    1    1    2    0    0 -0.31460631707E+03  0.61198104885E+03  0.15142779907E+04  0.16632906457E+04  0.00000000000E+00 0.  1.
<mgrwt>
<rscale>  0 0.26333674E+04</rscale>
<asrwt>0</asrwt>
<pdfrwt beam="1">  1        2 0.15527330E+00 0.26333674E+04</pdfrwt>
<pdfrwt beam="2">  1       -2 0.26426487E+00 0.26333674E+04</pdfrwt>
<totfact> 0.11514542E+00</totfact>
</mgrwt>
</event>
<event>
 6    1  0.9364335E-007  0.1834702E+04  0.7818608E-02  0.8688060E-01
         -1   -1    0    0    0  501 -0.00000000000E+00  0.00000000000E+00  0.12508114111E+04  0.12508114111E+04  0.00000000000E+00 0.  1.
          1   -1    0    0  501    0  0.00000000000E+00 -0.00000000000E+00 -0.67278942839E+03  0.67278942839E+03  0.00000000000E+00 0. -1.
         23    2    1    2    0    0 -0.22246190208E+02 -0.41824443298E+03  0.11427732772E+04  0.12204882431E+04  0.90760616788E+02 0.  0.
         13    1    3    3    0    0 -0.39453467539E+02 -0.79626376106E+02  0.26531107806E+03  0.27979797000E+03  0.00000000000E+00 0. -1.
        -13    1    3    3    0    0  0.17207277331E+02 -0.33861805687E+03  0.87746219919E+03  0.94069027306E+03  0.00000000000E+00 0.  1.
         22    1    1    2    0    0  0.22246190208E+02  0.41824443298E+03 -0.56475129449E+03  0.70311259648E+03  0.00000000000E+00 0. -1.
<mgrwt>
<rscale>  0 0.18347018E+04</rscale>
<asrwt>0</asrwt>
<pdfrwt beam="1">  1        1 0.10350607E+00 0.18347018E+04</pdfrwt>
<pdfrwt beam="2">  1       -1 0.19243252E+00 0.18347018E+04</pdfrwt>
<totfact> 0.46231867E+00</totfact>
</mgrwt>
</event>
<event>
 6    1  0.9364335E-007  0.2683347E+04  0.7818608E-02  0.8340428E-01
          2   -1    0    0  501    0  0.00000000000E+00  0.00000000000E+00  0.16766159698E+04  0.16766159698E+04  0.00000000000E+00 0. -1.
         -2   -1    0    0    0  501 -0.00000000000E+00 -0.00000000000E+00 -0.10736436649E+04  0.10736436649E+04  0.00000000000E+00 0.  1.
         23    2    1    2    0    0 -0.12276298569E+04  0.13726122136E+03 -0.23064378838E+03  0.12600141854E+04  0.92322705588E+02 0.  0.
         11    1    3    3    0    0 -0.96952854480E+03  0.74219393215E+02 -0.19810162080E+03  0.99233984586E+03  0.00000000000E+00 0.  1.
        -11    1    3    3    0    0 -0.25810131205E+03  0.63041828145E+02 -0.32542167572E+02  0.26767433954E+03  0.00000000000E+00 0. -1.
         22    1    1    2    0    0  0.12276298569E+04 -0.13726122136E+03  0.83361609319E+03  0.14902454493E+04  0.00000000000E+00 0. -1.
<mgrwt>
<rscale>  0 0.26833472E+04</rscale>
<asrwt>0</asrwt>
<pdfrwt beam="1">  1        2 0.25794092E+00 0.26833472E+04</pdfrwt>
<pdfrwt beam="2">  1       -2 0.16517595E+00 0.26833472E+04</pdfrwt>
<totfact> 0.20496291E+00</totfact>
</mgrwt>
</event>
<event>
 6    1  0.9364335E-007  0.3490366E+04  0.7818608E-02  0.8116077E-01
         -1   -1    0    0    0  501 -0.00000000000E+00  0.00000000000E+00  0.16683838829E+04  0.16683838829E+04  0.00000000000E+00 0.  1.
          1   -1    0    0  501    0  0.00000000000E+00 -0.00000000000E+00 -0.18255169001E+04  0.18255169001E+04  0.00000000000E+00 0. -1.
         23    2    1    2    0    0 -0.58657741376E+02  0.39966985556E+03 -0.17768942861E+04  0.18245286578E+04  0.91513905819E+02 0.  0.
         11    1    3    3    0    0  0.14682017089E+02  0.15518337261E+03 -0.56937868156E+03  0.59033001260E+03  0.00000000000E+00 0.  1.
        -11    1    3    3    0    0 -0.73339758465E+02  0.24448648295E+03 -0.12075156045E+04  0.12341986452E+04  0.00000000000E+00 0. -1.
         22    1    1    2    0    0  0.58657741376E+02 -0.39966985556E+03  0.16197612690E+04  0.16693721252E+04  0.00000000000E+00 0.  1.
<mgrwt>
<rscale>  0 0.34903656E+04</rscale>
<asrwt>0</asrwt>
<pdfrwt beam="1">  1        1 0.28084876E+00 0.34903656E+04</pdfrwt>
<pdfrwt beam="2">  1       -1 0.25667444E+00 0.34903656E+04</pdfrwt>
<totfact> 0.20158237E-01</totfact>
</mgrwt>
</event>
<event>
 6    1  0.1437940E-006  0.3149889E+04  0.7818608E-02  0.8202178E-01
         -2   -1    0    0    0  501 -0.00000000000E+00  0.00000000000E+00  0.11236778711E+04  0.11236778711E+04  0.00000000000E+00 0.  1.
          2   -1    0    0  501    0  0.00000000000E+00 -0.00000000000E+00 -0.22074390102E+04  0.22074390102E+04  0.00000000000E+00 0. -1.
         23    2    1    2    0    0 -0.78001218837E+03  0.33098582474E+03 -0.19446312569E+04  0.21231980141E+04  0.91697607920E+02 0.  0.
         11    1    3    3    0    0 -0.33336733502E+03  0.14167762573E+03 -0.71991489426E+03  0.80590556808E+03  0.00000000000E+00 0. -1.
        -11    1    3    3    0    0 -0.44664485335E+03  0.18930819901E+03 -0.12247163627E+04  0.13172924460E+04  0.00000000000E+00 0.  1.
         22    1    1    2    0    0  0.78001218837E+03 -0.33098582474E+03  0.86087011782E+03  0.12079188673E+04  0.00000000000E+00 0.  1.
<mgrwt>
<rscale>  0 0.31498891E+04</rscale>
<asrwt>0</asrwt>
<pdfrwt beam="1">  1        2 0.33960600E+00 0.31498891E+04</pdfrwt>
<pdfrwt beam="2">  1       -2 0.17287352E+00 0.31498891E+04</pdfrwt>
<totfact> 0.87944222E-01</totfact>
</mgrwt>
</event>
<event>
 6    1  0.9364335E-007  0.2829973E+04  0.7818608E-02  0.8294023E-01
          2   -1    0    0  501    0  0.00000000000E+00  0.00000000000E+00  0.23977062475E+04  0.23977062475E+04  0.00000000000E+00 0. -1.
         -2   -1    0    0    0  501 -0.00000000000E+00 -0.00000000000E+00 -0.83504243837E+03  0.83504243837E+03  0.00000000000E+00 0.  1.
         23    2    1    2    0    0 -0.77810744371E+02  0.98002713278E+03  0.19423189185E+04  0.21788769219E+04  0.91619683905E+02 0.  0.
         13    1    3    3    0    0 -0.42377018826E+02  0.42711615179E+03  0.94742344797E+03  0.10401130749E+04  0.00000000000E+00 0. -1.
        -13    1    3    3    0    0 -0.35433725546E+02  0.55291098099E+03  0.99489547055E+03  0.11387638470E+04  0.00000000000E+00 0.  1.
         22    1    1    2    0    0  0.77810744371E+02 -0.98002713278E+03 -0.37965510937E+03  0.10538717640E+04  0.00000000000E+00 0.  1.
<mgrwt>
<rscale>  0 0.28299728E+04</rscale>
<asrwt>0</asrwt>
<pdfrwt beam="1">  1        2 0.36887788E+00 0.28299728E+04</pdfrwt>
<pdfrwt beam="2">  1       -2 0.12846807E+00 0.28299728E+04</pdfrwt>
<totfact> 0.15487746E+00</totfact>
</mgrwt>
</event>
<event>
 6    1  0.9364335E-007  0.2587612E+04  0.7818608E-02  0.8372421E-01
         -2   -1    0    0    0  501 -0.00000000000E+00  0.00000000000E+00  0.10276802933E+04  0.10276802933E+04  0.00000000000E+00 0.  1.
          2   -1    0    0  501    0  0.00000000000E+00 -0.00000000000E+00 -0.16288471641E+04  0.16288471641E+04  0.00000000000E+00 0. -1.
         23    2    1    2    0    0  0.92421263421E+03  0.89636034577E+03 -0.41506351846E+03  0.13556564721E+04  0.88858782679E+02 0.  0.
         11    1    3    3    0    0  0.68764146727E+03  0.62102612927E+03 -0.27434061803E+03  0.96632655735E+03  0.00000000000E+00 0.  1.
        -11    1    3    3    0    0  0.23657116694E+03  0.27533421649E+03 -0.14072290043E+03  0.38932991473E+03  0.00000000000E+00 0. -1.
         22    1    1    2    0    0 -0.92421263421E+03 -0.89636034577E+03 -0.18610335237E+03  0.13008709853E+04  0.00000000000E+00 0.  1.
<mgrwt>
<rscale>  0 0.25876121E+04</rscale>
<asrwt>0</asrwt>
<pdfrwt beam="1">  1        2 0.25059187E+00 0.25876121E+04</pdfrwt>
<pdfrwt beam="2">  1       -2 0.15810466E+00 0.25876121E+04</pdfrwt>
<totfact> 0.24759876E+00</totfact>
</mgrwt>
</event>
<event>
 6    1  0.9364335E-007  0.2397141E+04  0.7818608E-02  0.8440575E-01
         -2   -1    0    0    0  501 -0.00000000000E+00  0.00000000000E+00  0.11882871522E+04  0.11882871522E+04  0.00000000000E+00 0.  1.
          2   -1    0    0  501    0  0.00000000000E+00 -0.00000000000E+00 -0.12089429057E+04  0.12089429057E+04  0.00000000000E+00 0. -1.
         23    2    1    2    0    0 -0.38167738621E+03 -0.91708562350E+03 -0.67793592498E+03  0.12061209563E+04  0.91689557536E+02 0.  0.
         13    1    3    3    0    0 -0.18299681664E+03 -0.37453731375E+03 -0.33000615174E+03  0.53166727798E+03  0.00000000000E+00 0.  1.
        -13    1    3    3    0    0 -0.19868056957E+03 -0.54254830975E+03 -0.34792977324E+03  0.67445367835E+03  0.00000000000E+00 0. -1.
         22    1    1    2    0    0  0.38167738621E+03  0.91708562350E+03  0.65728017150E+03  0.11911091016E+04  0.00000000000E+00 0.  1.
<mgrwt>
<rscale>  0 0.23971411E+04</rscale>
<asrwt>0</asrwt>
<pdfrwt beam="1">  1        2 0.18599122E+00 0.23971411E+04</pdfrwt>
<pdfrwt beam="2">  1       -2 0.18281341E+00 0.23971411E+04</pdfrwt>
<totfact> 0.29182257E+00</totfact>
</mgrwt>
</event>
<event>
 6    1  0.9364335E-007  0.3573962E+04  0.7818608E-02  0.8096482E-01
          2   -1    0    0  501    0  0.00000000000E+00  0.00000000000E+00  0.25219531828E+04  0.25219531828E+04  0.00000000000E+00 0. -1.
         -2   -1    0    0    0  501 -0.00000000000E+00 -0.00000000000E+00 -0.12662014839E+04  0.12662014839E+04  0.00000000000E+00 0.  1.
         23    2    1    2    0    0  0.41996312134E+03 -0.11702460680E+04 -0.73051414853E+03  0.14448457029E+04  0.89907179449E+02 0.  0.
         11    1    3    3    0    0  0.16428462077E+03 -0.40102036782E+03 -0.29936010072E+03  0.52670982707E+03  0.00000000000E+00 0. -1.
        -11    1    3    3    0    0  0.25567850057E+03 -0.76922570019E+03 -0.43115404781E+03  0.91813587580E+03  0.00000000000E+00 0.  1.
         22    1    1    2    0    0 -0.41996312134E+03  0.11702460680E+04  0.19862658475E+04  0.23433089638E+04  0.00000000000E+00 0. -1.
<mgrwt>
<rscale>  0 0.35739619E+04</rscale>
<asrwt>0</asrwt>
<pdfrwt beam="1">  1        2 0.38799280E+00 0.35739619E+04</pdfrwt>
<pdfrwt beam="2">  1       -2 0.19480023E+00 0.35739619E+04</pdfrwt>
<totfact> 0.39742160E-01</totfact>
</mgrwt>
</event>
<event>
 6    1  0.9364335E-007  0.2336704E+04  0.7818608E-02  0.8463588E-01
         -2   -1    0    0    0  501 -0.00000000000E+00  0.00000000000E+00  0.62860090724E+03  0.62860090724E+03  0.00000000000E+00 0.  1.
          2   -1    0    0  501    0  0.00000000000E+00 -0.00000000000E+00 -0.21715623868E+04  0.21715623868E+04  0.00000000000E+00 0. -1.
         23    2    1    2    0    0  0.27428695326E+03 -0.51501855797E+03 -0.19831742453E+04  0.20692291473E+04  0.90839027685E+02 0.  0.
         11    1    3    3    0    0  0.31522905262E+02 -0.12374306876E+03 -0.35856423043E+03  0.38062363033E+03  0.00000000000E+00 0. -1.
        -11    1    3    3    0    0  0.24276404799E+03 -0.39127548921E+03 -0.16246100149E+04  0.16886055170E+04  0.00000000000E+00 0.  1.
         22    1    1    2    0    0 -0.27428695326E+03  0.51501855797E+03  0.44021276574E+03  0.73093414676E+03  0.00000000000E+00 0.  1.
<mgrwt>
<rscale>  0 0.23367037E+04</rscale>
<asrwt>0</asrwt>
<pdfrwt beam="1">  1        2 0.33408652E+00 0.23367037E+04</pdfrwt>
<pdfrwt beam="2">  1       -2 0.96707831E-01 0.23367037E+04</pdfrwt>
<totfact> 0.43282429E+00</totfact>
</mgrwt>
</event>
<event>
 6    1  0.9364335E-007  0.2192825E+04  0.7818608E-02  0.8521421E-01
         -1   -1    0    0    0  501 -0.00000000000E+00  0.00000000000E+00  0.17768379835E+04  0.17768379835E+04  0.00000000000E+00 0.  1.
          1   -1    0    0  501    0  0.00000000000E+00 -0.00000000000E+00 -0.67655022176E+03  0.67655022176E+03  0.00000000000E+00 0. -1.
         23    2    1    2    0    0 -0.34855790754E+03  0.70392873838E+03 -0.30167022741E+03  0.84637405257E+03  0.91300750943E+02 0.  0.
         13    1    3    3    0    0 -0.99015799767E+02  0.22457462034E+03 -0.51123971869E+02  0.25070211248E+03  0.00000000000E+00 0.  1.
        -13    1    3    3    0    0 -0.24954210778E+03  0.47935411805E+03 -0.25054625554E+03  0.59567194009E+03  0.00000000000E+00 0. -1.
         22    1    1    2    0    0  0.34855790754E+03 -0.70392873838E+03  0.14019579892E+04  0.16070141527E+04  0.00000000000E+00 0.  1.
<mgrwt>
<rscale>  0 0.21928248E+04</rscale>
<asrwt>0</asrwt>
<pdfrwt beam="1">  1        1 0.10408465E+00 0.21928248E+04</pdfrwt>
<pdfrwt beam="2">  1       -1 0.27335969E+00 0.21928248E+04</pdfrwt>
<totfact> 0.12861846E+00</totfact>
</mgrwt>
</event>
<event>
 6    1  0.9364335E-007  0.1002478E+04  0.7818608E-02  0.9305832E-01
         -2   -1    0    0    0  501 -0.00000000000E+00  0.00000000000E+00  0.79017076871E+03  0.79017076871E+03  0.00000000000E+00 0.  1.
          2   -1    0    0  501    0  0.00000000000E+00 -0.00000000000E+00 -0.31795695723E+03  0.31795695723E+03  0.00000000000E+00 0. -1.
         23    2    1    2    0    0 -0.30117641524E+03  0.35572997680E+03  0.46569615992E+02  0.47691933670E+03  0.89622960772E+02 0.  0.
         11    1    3    3    0    0 -0.19799222273E+03  0.17737647837E+03  0.51690817030E+02  0.27080486684E+03  0.00000000000E+00 0. -1.
        -11    1    3    3    0    0 -0.10318419251E+03  0.17835349843E+03 -0.51212010388E+01  0.20611446986E+03  0.00000000000E+00 0.  1.
         22    1    1    2    0    0  0.30117641524E+03 -0.35572997680E+03  0.42564419549E+03  0.63120838924E+03  0.00000000000E+00 0.  1.
<mgrwt>
<rscale>  0 0.10024775E+04</rscale>
<asrwt>0</asrwt>
<pdfrwt beam="1">  1        2 0.48916455E-01 0.10024775E+04</pdfrwt>
<pdfrwt beam="2">  1       -2 0.12156473E+00 0.10024775E+04</pdfrwt>
<totfact> 0.52783115E+01</totfact>
</mgrwt>
</event>
<event>
 6    1  0.9364335E-007  0.3984806E+03  0.7818608E-02  0.1044307E+00
          1   -1    0    0  501    0  0.00000000000E+00  0.00000000000E+00  0.17352674728E+04  0.17352674728E+04  0.00000000000E+00 0. -1.
         -1   -1    0    0    0  501 -0.00000000000E+00 -0.00000000000E+00 -0.22876419663E+02  0.22876419663E+02  0.00000000000E+00 0.  1.
         23    2    1    2    0    0 -0.98611460732E+02 -0.14232395529E+03  0.12331807085E+04  0.12486118691E+04  0.91195456961E+02 0.  0.
         11    1    3    3    0    0 -0.58832868550E+02 -0.11176597763E+03  0.10815402550E+04  0.10888903817E+04  0.00000000000E+00 0. -1.
        -11    1    3    3    0    0 -0.39778592182E+02 -0.30557977662E+02  0.15164045350E+03  0.15972148738E+03  0.00000000000E+00 0.  1.
         22    1    1    2    0    0  0.98611460732E+02  0.14232395529E+03  0.47921034459E+03  0.50953202333E+03  0.00000000000E+00 0.  1.
<mgrwt>
<rscale>  0 0.39848065E+03</rscale>
<asrwt>0</asrwt>
<pdfrwt beam="1">  1        1 0.26696412E+00 0.39848065E+03</pdfrwt>
<pdfrwt beam="2">  1       -1 0.35194505E-02 0.39848065E+03</pdfrwt>
<totfact> 0.14832062E+03</totfact>
</mgrwt>
</event>
<event>
 6    1  0.9364335E-007  0.1122011E+04  0.7818608E-02  0.9184000E-01
          2   -1    0    0  501    0  0.00000000000E+00  0.00000000000E+00  0.23806202925E+04  0.23806202925E+04  0.00000000000E+00 0. -1.
         -2   -1    0    0    0  501 -0.00000000000E+00 -0.00000000000E+00 -0.13220376958E+03  0.13220376958E+03  0.00000000000E+00 0.  1.
         23    2    1    2    0    0  0.25516055246E+03 -0.25701173133E+03  0.18163324867E+03  0.41454976155E+03  0.87743547923E+02 0.  0.
         13    1    3    3    0    0  0.11912022453E+03 -0.17511406272E+03  0.82109789433E+02  0.22714880668E+03  0.00000000000E+00 0. -1.
        -13    1    3    3    0    0  0.13604032793E+03 -0.81897668612E+02  0.99523459239E+02  0.18740095487E+03  0.00000000000E+00 0.  1.
         22    1    1    2    0    0 -0.25516055246E+03  0.25701173133E+03  0.20667832743E+04  0.20982743005E+04  0.00000000000E+00 0. -1.
<mgrwt>
<rscale>  0 0.11220107E+04</rscale>
<asrwt>0</asrwt>
<pdfrwt beam="1">  1        2 0.36624924E+00 0.11220107E+04</pdfrwt>
<pdfrwt beam="2">  1       -2 0.20339043E-01 0.11220107E+04</pdfrwt>
<totfact> 0.84457394E+01</totfact>
</mgrwt>
</event>
<event>
 6    1  0.9364335E-007  0.1456746E+04  0.7818608E-02  0.8913737E-01
          1   -1    0    0  501    0  0.00000000000E+00  0.00000000000E+00  0.73853174345E+03  0.73853174345E+03  0.00000000000E+00 0. -1.
         -1   -1    0    0    0  501 -0.00000000000E+00 -0.00000000000E+00 -0.71835438346E+03  0.71835438346E+03  0.00000000000E+00 0.  1.
         23    2    1    2    0    0  0.64285689765E+03  0.32220351545E+03  0.10605471587E+03  0.73269346161E+03  0.92260553357E+02 0.  0.
         11    1    3    3    0    0  0.62772399723E+03  0.31120299128E+03  0.87038968516E+02  0.70601735143E+03  0.00000000000E+00 0.  1.
        -11    1    3    3    0    0  0.15132900428E+02  0.11000524165E+02  0.19015747353E+02  0.26676110186E+02  0.00000000000E+00 0. -1.
         22    1    1    2    0    0 -0.64285689765E+03 -0.32220351545E+03 -0.85877355878E+02  0.72419266530E+03  0.00000000000E+00 0.  1.
<mgrwt>
<rscale>  0 0.14567464E+04</rscale>
<asrwt>0</asrwt>
<pdfrwt beam="1">  1        1 0.11362027E+00 0.14567464E+04</pdfrwt>
<pdfrwt beam="2">  1       -1 0.11051606E+00 0.14567464E+04</pdfrwt>
<totfact> 0.18387949E+01</totfact>
</mgrwt>
</event>
<event>
 6    1  0.9364335E-007  0.1740898E+04  0.7818608E-02  0.8738377E-01
         -2   -1    0    0    0  501 -0.00000000000E+00  0.00000000000E+00  0.12891992926E+04  0.12891992926E+04  0.00000000000E+00 0.  1.
          2   -1    0    0  501    0  0.00000000000E+00 -0.00000000000E+00 -0.58771442988E+03  0.58771442988E+03  0.00000000000E+00 0. -1.
         23    2    1    2    0    0  0.84069656407E+03  0.47608077313E+01  0.58336457696E+03  0.10279462437E+04  0.97805276854E+02 0.  0.
         13    1    3    3    0    0  0.75015234290E+03 -0.19392006297E+02  0.54110359212E+03  0.92514738549E+03  0.00000000000E+00 0. -1.
        -13    1    3    3    0    0  0.90544221168E+02  0.24152814028E+02  0.42260984835E+02  0.10279885822E+03  0.00000000000E+00 0.  1.
         22    1    1    2    0    0 -0.84069656407E+03 -0.47608077313E+01  0.11812028577E+03  0.84896747879E+03  0.00000000000E+00 0. -1.
<mgrwt>
<rscale>  0 0.17408975E+04</rscale>
<asrwt>0</asrwt>
<pdfrwt beam="1">  1        2 0.90417605E-01 0.17408975E+04</pdfrwt>
<pdfrwt beam="2">  1       -2 0.19833835E+00 0.17408975E+04</pdfrwt>
<totfact> 0.65729437E+00</totfact>
</mgrwt>
</event>
<event>
 6    1  0.9364335E-007  0.2702759E+04  0.7818608E-02  0.8334110E-01
         -2   -1    0    0    0  501 -0.00000000000E+00  0.00000000000E+00  0.14543536161E+04  0.14543536161E+04  0.00000000000E+00 0.  1.
          2   -1    0    0  501    0  0.00000000000E+00 -0.00000000000E+00 -0.12556966164E+04  0.12556966164E+04  0.00000000000E+00 0. -1.
         23    2    1    2    0    0 -0.21965932134E+03 -0.67769073634E+03 -0.10501715739E+04  0.12723132058E+04  0.91682099058E+02 0.  0.
         13    1    3    3    0    0 -0.20546524424E+03 -0.51370693344E+03 -0.82705354091E+03  0.99505192809E+03  0.00000000000E+00 0. -1.
        -13    1    3    3    0    0 -0.14194077097E+02 -0.16398380291E+03 -0.22311803300E+03  0.27726127766E+03  0.00000000000E+00 0.  1.
         22    1    1    2    0    0  0.21965932134E+03  0.67769073634E+03  0.12488285737E+04  0.14377370267E+04  0.00000000000E+00 0.  1.
<mgrwt>
<rscale>  0 0.27027593E+04</rscale>
<asrwt>0</asrwt>
<pdfrwt beam="1">  1        2 0.19318409E+00 0.27027593E+04</pdfrwt>
<pdfrwt beam="2">  1       -2 0.22374671E+00 0.27027593E+04</pdfrwt>
<totfact> 0.14407399E+00</totfact>
</mgrwt>
</event>
<event>
 6    1  0.9364335E-007  0.3781821E+04  0.7818608E-02  0.8050067E-01
         -2   -1    0    0    0  501 -0.00000000000E+00  0.00000000000E+00  0.16306269800E+04  0.16306269800E+04  0.00000000000E+00 0.  1.
          2   -1    0    0  501    0  0.00000000000E+00 -0.00000000000E+00 -0.21927406034E+04  0.21927406034E+04  0.00000000000E+00 0. -1.
         23    2    1    2    0    0 -0.18648308352E+04 -0.22289913030E+03 -0.68565873359E+02  0.18814954332E+04  0.89697936504E+02 0.  0.
         11    1    3    3    0    0 -0.12658072909E+04 -0.18289155775E+03 -0.18971324261E+02  0.12790923855E+04  0.00000000000E+00 0.  1.
        -11    1    3    3    0    0 -0.59902354437E+03 -0.40007572554E+02 -0.49594549098E+02  0.60240304770E+03  0.00000000000E+00 0. -1.
         22    1    1    2    0    0  0.18648308352E+04  0.22289913030E+03 -0.49354775008E+03  0.19418721503E+04  0.00000000000E+00 0. -1.
<mgrwt>
<rscale>  0 0.37818207E+04</rscale>
<asrwt>0</asrwt>
<pdfrwt beam="1">  1        2 0.33734471E+00 0.37818207E+04</pdfrwt>
<pdfrwt beam="2">  1       -2 0.25086569E+00 0.37818207E+04</pdfrwt>
<totfact> 0.26572356E-01</totfact>
</mgrwt>
</event>
<event>
 6    1  0.9364335E-007  0.8909191E+03  0.7818608E-02  0.9437005E-01
         -2   -1    0    0    0  501 -0.00000000000E+00  0.00000000000E+00  0.17444335688E+03  0.17444335688E+03  0.00000000000E+00 0.  1.
          2   -1    0    0  501    0  0.00000000000E+00 -0.00000000000E+00 -0.11375279736E+04  0.11375279736E+04  0.00000000000E+00 0. -1.
         23    2    1    2    0    0 -0.13859220700E+03 -0.24956447698E+03  0.62221843084E+01  0.30150317039E+03  0.96825710273E+02 0.  0.
         11    1    3    3    0    0 -0.90783023479E+01 -0.37277795855E+02 -0.31932994988E+02  0.49917590149E+02  0.00000000000E+00 0. -1.
        -11    1    3    3    0    0 -0.12951390465E+03 -0.21228668112E+03  0.38155179297E+02  0.25158558025E+03  0.00000000000E+00 0.  1.
         22    1    1    2    0    0  0.13859220700E+03  0.24956447698E+03 -0.96930680100E+03  0.10104681600E+04  0.00000000000E+00 0. -1.
<mgrwt>
<rscale>  0 0.89091907E+03</rscale>
<asrwt>0</asrwt>
<pdfrwt beam="1">  1        2 0.17500430E+00 0.89091907E+03</pdfrwt>
<pdfrwt beam="2">  1       -2 0.26837439E-01 0.89091907E+03</pdfrwt>
<totfact> 0.26075335E+02</totfact>
</mgrwt>
</event>
<event>
 6    1  0.9364335E-007  0.9331126E+03  0.7818608E-02  0.9385110E-01
          1   -1    0    0  501    0  0.00000000000E+00  0.00000000000E+00  0.92584500697E+03  0.92584500697E+03  0.00000000000E+00 0. -1.
         -1   -1    0    0    0  501 -0.00000000000E+00 -0.00000000000E+00 -0.23510930322E+03  0.23510930322E+03  0.00000000000E+00 0.  1.
         23    2    1    2    0    0  0.18828430592E+02 -0.15620246728E+03  0.88917562103E+03  0.90771110427E+03  0.92479420405E+02 0.  0.
         13    1    3    3    0    0  0.18172324827E+02 -0.66176395322E+02  0.17650885342E+03  0.18938036863E+03  0.00000000000E+00 0.  1.
        -13    1    3    3    0    0  0.65610576473E+00 -0.90026071954E+02  0.71266676761E+03  0.71833073563E+03  0.00000000000E+00 0. -1.
         22    1    1    2    0    0 -0.18828430592E+02  0.15620246728E+03 -0.19843991728E+03  0.25324320593E+03  0.00000000000E+00 0.  1.
<mgrwt>
<rscale>  0 0.93311259E+03</rscale>
<asrwt>0</asrwt>
<pdfrwt beam="1">  1        1 0.14243769E+00 0.93311259E+03</pdfrwt>
<pdfrwt beam="2">  1       -1 0.36170662E-01 0.93311259E+03</pdfrwt>
<totfact> 0.12740175E+02</totfact>
</mgrwt>
</event>
<event>
 6    1  0.9364335E-007  0.2207195E+04  0.7818608E-02  0.8515440E-01
         -1   -1    0    0    0  501 -0.00000000000E+00  0.00000000000E+00  0.46320450267E+03  0.46320450267E+03  0.00000000000E+00 0.  1.
          1   -1    0    0  501    0  0.00000000000E+00 -0.00000000000E+00 -0.26293503786E+04  0.26293503786E+04  0.00000000000E+00 0. -1.
         23    2    1    2    0    0 -0.70064392382E+03 -0.28810270188E+02  0.10554725128E+03  0.71509371358E+03  0.92124140688E+02 0.  0.
         13    1    3    3    0    0 -0.55862101531E+03 -0.10846525839E+02  0.47926876208E+02  0.56077809455E+03  0.00000000000E+00 0. -1.
        -13    1    3    3    0    0 -0.14202290851E+03 -0.17963744349E+02  0.57620375069E+02  0.15431561903E+03  0.00000000000E+00 0.  1.
         22    1    1    2    0    0  0.70064392382E+03  0.28810270188E+02 -0.22716931272E+04  0.23774611677E+04  0.00000000000E+00 0. -1.
<mgrwt>
<rscale>  0 0.22071945E+04</rscale>
<asrwt>0</asrwt>
<pdfrwt beam="1">  1        1 0.40451544E+00 0.22071945E+04</pdfrwt>
<pdfrwt beam="2">  1       -1 0.71262231E-01 0.22071945E+04</pdfrwt>
<totfact> 0.19942666E+00</totfact>
</mgrwt>
</event>
<event>
 6    1  0.9364335E-007  0.1589061E+04  0.7818608E-02  0.8827296E-01
         -2   -1    0    0    0  501 -0.00000000000E+00  0.00000000000E+00  0.78942691132E+03  0.78942691132E+03  0.00000000000E+00 0.  1.
          2   -1    0    0  501    0  0.00000000000E+00 -0.00000000000E+00 -0.79966743856E+03  0.79966743856E+03  0.00000000000E+00 0. -1.
         23    2    1    2    0    0  0.23287209268E+03 -0.71091807814E+03 -0.26491942244E+03  0.79884422173E+03  0.91300957486E+02 0.  0.
         13    1    3    3    0    0  0.27610534021E+02 -0.21470134550E+03 -0.68379573769E+02  0.22701272091E+03  0.00000000000E+00 0. -1.
        -13    1    3    3    0    0  0.20526155865E+03 -0.49621673264E+03 -0.19653984867E+03  0.57183150082E+03  0.00000000000E+00 0.  1.
         22    1    1    2    0    0 -0.23287209268E+03  0.71091807814E+03  0.25467889520E+03  0.79025012815E+03  0.00000000000E+00 0. -1.
<mgrwt>
<rscale>  0 0.15890614E+04</rscale>
<asrwt>0</asrwt>
<pdfrwt beam="1">  1        2 0.12302576E+00 0.15890614E+04</pdfrwt>
<pdfrwt beam="2">  1       -2 0.12145029E+00 0.15890614E+04</pdfrwt>
<totfact> 0.17044874E+01</totfact>
</mgrwt>
</event>
<event>
 6    1  0.9364335E-007  0.1261393E+04  0.7818608E-02  0.9060754E-01
         -1   -1    0    0    0  501 -0.00000000000E+00  0.00000000000E+00  0.21191517631E+03  0.21191517631E+03  0.00000000000E+00 0.  1.
          1   -1    0    0  501    0  0.00000000000E+00 -0.00000000000E+00 -0.18770627255E+04  0.18770627255E+04  0.00000000000E+00 0. -1.
         23    2    1    2    0    0 -0.33425351477E+02  0.49830167142E+02 -0.18711517418E+04  0.18744131632E+04  0.92820072328E+02 0.  0.
         11    1    3    3    0    0 -0.51577957592E+01  0.26623408419E+02 -0.16525927251E+04  0.16528152117E+04  0.00000000000E+00 0.  1.
        -11    1    3    3    0    0 -0.28267555718E+02  0.23206758723E+02 -0.21855901669E+03  0.22159795155E+03  0.00000000000E+00 0. -1.
         22    1    1    2    0    0  0.33425351477E+02 -0.49830167142E+02  0.20600419262E+03  0.21456473861E+03  0.00000000000E+00 0.  1.
<mgrwt>
<rscale>  0 0.12613930E+04</rscale>
<asrwt>0</asrwt>
<pdfrwt beam="1">  1        1 0.28877886E+00 0.12613930E+04</pdfrwt>
<pdfrwt beam="2">  1       -1 0.32602337E-01 0.12613930E+04</pdfrwt>
<totfact> 0.31370985E+01</totfact>
</mgrwt>
</event>
<event>
 6    1  0.9364335E-007  0.3597754E+04  0.7818608E-02  0.8091006E-01
         -4   -1    0    0    0  501 -0.00000000000E+00  0.00000000000E+00  0.13415045014E+04  0.13415045014E+04  0.00000000000E+00 0.  1.
          4   -1    0    0  501    0  0.00000000000E+00 -0.00000000000E+00 -0.24121860816E+04  0.24121860816E+04  0.00000000000E+00 0. -1.
         23    2    1    2    0    0 -0.17578604998E+04 -0.24717149638E+03 -0.23963558939E+03  0.17936383581E+04  0.92444893583E+02 0.  0.
         11    1    3    3    0    0 -0.38485213608E+03 -0.22323641042E+02 -0.30404075095E+02  0.38669615899E+03  0.00000000000E+00 0. -1.
        -11    1    3    3    0    0 -0.13730083637E+04 -0.22484785534E+03 -0.20923151429E+03  0.14069421991E+04  0.00000000000E+00 0.  1.
         22    1    1    2    0    0  0.17578604998E+04  0.24717149638E+03 -0.83104599088E+03  0.19600522249E+04  0.00000000000E+00 0. -1.
<mgrwt>
<rscale>  0 0.35977540E+04</rscale>
<asrwt>0</asrwt>
<pdfrwt beam="1">  1        4 0.37110555E+00 0.35977540E+04</pdfrwt>
<pdfrwt beam="2">  1       -4 0.20638531E+00 0.35977540E+04</pdfrwt>
<totfact> 0.20596048E-03</totfact>
</mgrwt>
</event>
<event>
 6    1  0.9364335E-007  0.1168293E+04  0.7818608E-02  0.9141071E-01
          2   -1    0    0  501    0  0.00000000000E+00  0.00000000000E+00  0.12447844827E+04  0.12447844827E+04  0.00000000000E+00 0. -1.
         -2   -1    0    0    0  501 -0.00000000000E+00 -0.00000000000E+00 -0.27412563759E+03  0.27412563759E+03  0.00000000000E+00 0.  1.
         23    2    1    2    0    0 -0.28936743653E+03  0.93454204273E+01  0.11423079980E+04  0.11823328158E+04  0.96033716972E+02 0.  0.
         11    1    3    3    0    0 -0.23401938593E+03 -0.16680239311E+02  0.76719789213E+03  0.80226922480E+03  0.00000000000E+00 0.  1.
        -11    1    3    3    0    0 -0.55348050595E+02  0.26025659738E+02  0.37511010586E+03  0.38006359098E+03  0.00000000000E+00 0. -1.
         22    1    1    2    0    0  0.28936743653E+03 -0.93454204273E+01 -0.17164915290E+03  0.33657730449E+03  0.00000000000E+00 0.  1.
<mgrwt>
<rscale>  0 0.11682934E+04</rscale>
<asrwt>0</asrwt>
<pdfrwt beam="1">  1        2 0.19150530E+00 0.11682934E+04</pdfrwt>
<pdfrwt beam="2">  1       -2 0.42173176E-01 0.11682934E+04</pdfrwt>
<totfact> 0.93802029E+01</totfact>
</mgrwt>
</event>
<event>
 6    1  0.9364335E-007  0.3454561E+04  0.7818608E-02  0.8124644E-01
         -2   -1    0    0    0  501 -0.00000000000E+00  0.00000000000E+00  0.23370807583E+04  0.23370807583E+04  0.00000000000E+00 0.  1.
          2   -1    0    0  501    0  0.00000000000E+00 -0.00000000000E+00 -0.12765920120E+04  0.12765920120E+04  0.00000000000E+00 0. -1.
         23    2    1    2    0    0  0.10986220106E+04  0.52622842868E+03  0.18098375347E+04  0.21834943590E+04  0.90824183415E+02 0.  0.
         11    1    3    3    0    0  0.71731686632E+03  0.31757684223E+03  0.10980586302E+04  0.13494929762E+04  0.00000000000E+00 0.  1.
        -11    1    3    3    0    0  0.38130514432E+03  0.20865158645E+03  0.71177890448E+03  0.83400138278E+03  0.00000000000E+00 0. -1.
         22    1    1    2    0    0 -0.10986220106E+04 -0.52622842868E+03 -0.74934878840E+03  0.14301784113E+04  0.00000000000E+00 0. -1.
<mgrwt>
<rscale>  0 0.34545614E+04</rscale>
<asrwt>0</asrwt>
<pdfrwt beam="1">  1        2 0.19639877E+00 0.34545614E+04</pdfrwt>
<pdfrwt beam="2">  1       -2 0.35955089E+00 0.34545614E+04</pdfrwt>
<totfact> 0.19037827E-01</totfact>
</mgrwt>
</event>
<event>
 6    1  0.9364335E-007  0.1703112E+04  0.7818608E-02  0.8759591E-01
          3   -1    0    0  501    0  0.00000000000E+00  0.00000000000E+00  0.51641684919E+03  0.51641684919E+03  0.00000000000E+00 0. -1.
         -3   -1    0    0    0  501 -0.00000000000E+00 -0.00000000000E+00 -0.14041908778E+04  0.14041908778E+04  0.00000000000E+00 0.  1.
         23    2    1    2    0    0 -0.37732722187E+03 -0.74853562909E+03 -0.59667926159E+03  0.10332421970E+04  0.94243705877E+02 0.  0.
         11    1    3    3    0    0 -0.26645309932E+03 -0.44627030548E+03 -0.40111640973E+03  0.65654307844E+03  0.00000000000E+00 0. -1.
        -11    1    3    3    0    0 -0.11087412255E+03 -0.30226532361E+03 -0.19556285186E+03  0.37669911857E+03  0.00000000000E+00 0.  1.
         22    1    1    2    0    0  0.37732722187E+03  0.74853562909E+03 -0.29109476699E+03  0.88736552995E+03  0.00000000000E+00 0. -1.
<mgrwt>
<rscale>  0 0.17031122E+04</rscale>
<asrwt>0</asrwt>
<pdfrwt beam="1">  1        3 0.79448746E-01 0.17031122E+04</pdfrwt>
<pdfrwt beam="2">  1       -3 0.21602937E+00 0.17031122E+04</pdfrwt>
<totfact> 0.42824774E-01</totfact>
</mgrwt>
</event>
<event>
 6    1  0.9364335E-007  0.1714517E+04  0.7818608E-02  0.8753128E-01
          2   -1    0    0  501    0  0.00000000000E+00  0.00000000000E+00  0.20644434443E+04  0.20644434443E+04  0.00000000000E+00 0. -1.
         -2   -1    0    0    0  501 -0.00000000000E+00 -0.00000000000E+00 -0.35597587061E+03  0.35597587061E+03  0.00000000000E+00 0.  1.
         23    2    1    2    0    0 -0.75271395726E+03  0.40511633105E+03  0.85061804583E+03  0.12093853123E+04  0.91456167109E+02 0.  0.
         11    1    3    3    0    0 -0.28038236103E+03  0.20012609720E+03  0.35702962019E+03  0.49611981703E+03  0.00000000000E+00 0. -1.
        -11    1    3    3    0    0 -0.47233159623E+03  0.20499023385E+03  0.49358842564E+03  0.71326549523E+03  0.00000000000E+00 0.  1.
         22    1    1    2    0    0  0.75271395726E+03 -0.40511633105E+03  0.85784952791E+03  0.12110340027E+04  0.00000000000E+00 0.  1.
<mgrwt>
<rscale>  0 0.17145169E+04</rscale>
<asrwt>0</asrwt>
<pdfrwt beam="1">  1        2 0.31760668E+00 0.17145169E+04</pdfrwt>
<pdfrwt beam="2">  1       -2 0.54765519E-01 0.17145169E+04</pdfrwt>
<totfact> 0.18341526E+01</totfact>
</mgrwt>
</event>
<event>
 6    1  0.9364335E-007  0.3809486E+04  0.7818608E-02  0.8044122E-01
          2   -1    0    0  501    0  0.00000000000E+00  0.00000000000E+00  0.21432454749E+04  0.21432454749E+04  0.00000000000E+00 0. -1.
         -2   -1    0    0    0  501 -0.00000000000E+00 -0.00000000000E+00 -0.16927809311E+04  0.16927809311E+04  0.00000000000E+00 0.  1.
         23    2    1    2    0    0  0.18907889649E+04  0.14680464353E+03  0.59164185655E+02  0.18995991589E+04  0.91334827813E+02 0.  0.
         11    1    3    3    0    0  0.77121613153E+03  0.35229578122E+02  0.61645253956E+02  0.77447761882E+03  0.00000000000E+00 0.  1.
        -11    1    3    3    0    0  0.11195728333E+04  0.11157506541E+03 -0.24810683011E+01  0.11251215401E+04  0.00000000000E+00 0. -1.
         22    1    1    2    0    0 -0.18907889649E+04 -0.14680464353E+03  0.39130035813E+03  0.19364272471E+04  0.00000000000E+00 0. -1.
<mgrwt>
<rscale>  0 0.38094856E+04</rscale>
<asrwt>0</asrwt>
<pdfrwt beam="1">  1        2 0.32973007E+00 0.38094856E+04</pdfrwt>
<pdfrwt beam="2">  1       -2 0.26042784E+00 0.38094856E+04</pdfrwt>
<totfact> 0.24693602E-01</totfact>
</mgrwt>
</event>
<event>
 6    1  0.9364335E-007  0.3330336E+04  0.7818608E-02  0.8155219E-01
          2   -1    0    0  501    0  0.00000000000E+00  0.00000000000E+00  0.14452699755E+04  0.14452699755E+04  0.00000000000E+00 0. -1.
         -2   -1    0    0    0  501 -0.00000000000E+00 -0.00000000000E+00 -0.19185230687E+04  0.19185230687E+04  0.00000000000E+00 0.  1.
         23    2    1    2    0    0  0.75972327081E+03 -0.14423872672E+04  0.99610411883E+02  0.16358367159E+04  0.91537151933E+02 0.  0.
         11    1    3    3    0    0  0.43056972621E+03 -0.73358533523E+03  0.28141843581E+02  0.85107561154E+03  0.00000000000E+00 0.  1.
        -11    1    3    3    0    0  0.32915354460E+03 -0.70880193197E+03  0.71468568302E+02  0.78476110438E+03  0.00000000000E+00 0. -1.
         22    1    1    2    0    0 -0.75972327081E+03  0.14423872672E+04 -0.57286350513E+03  0.17279563282E+04  0.00000000000E+00 0.  1.
<mgrwt>
<rscale>  0 0.33303356E+04</rscale>
<asrwt>0</asrwt>
<pdfrwt beam="1">  1        2 0.22234923E+00 0.33303356E+04</pdfrwt>
<pdfrwt beam="2">  1       -2 0.29515739E+00 0.33303356E+04</pdfrwt>
<totfact> 0.38650176E-01</totfact>
</mgrwt>
</event>
<event>
 6    1  0.9364335E-007  0.2326480E+04  0.7818608E-02  0.8467553E-01
          2   -1    0    0  501    0  0.00000000000E+00  0.00000000000E+00  0.10162903220E+04  0.10162903220E+04  0.00000000000E+00 0. -1.
         -2   -1    0    0    0  501 -0.00000000000E+00 -0.00000000000E+00 -0.13314372284E+04  0.13314372284E+04  0.00000000000E+00 0.  1.
         23    2    1    2    0    0  0.49561582564E+03 -0.10226412871E+04  0.84632694017E+02  0.11430475193E+04  0.89245110811E+02 0.  0.
         13    1    3    3    0    0  0.34329090612E+03 -0.62254211495E+03  0.31114490363E+02  0.71160062017E+03  0.00000000000E+00 0.  1.
        -13    1    3    3    0    0  0.15232491952E+03 -0.40009917210E+03  0.53518203655E+02  0.43144689910E+03  0.00000000000E+00 0. -1.
         22    1    1    2    0    0 -0.49561582564E+03  0.10226412871E+04 -0.39977960046E+03  0.12046800312E+04  0.00000000000E+00 0.  1.
<mgrwt>
<rscale>  0 0.23264795E+04</rscale>
<asrwt>0</asrwt>
<pdfrwt beam="1">  1        2 0.15635236E+00 0.23264795E+04</pdfrwt>
<pdfrwt beam="2">  1       -2 0.20483650E+00 0.23264795E+04</pdfrwt>
<totfact> 0.27503349E+00</totfact>
</mgrwt>
</event>
<event>
 6    1  0.9364335E-007  0.3500732E+04  0.7818608E-02  0.8113617E-01
          2   -1    0    0  501    0  0.00000000000E+00  0.00000000000E+00  0.27649570917E+04  0.27649570917E+04  0.00000000000E+00 0. -1.
         -2   -1    0    0    0  501 -0.00000000000E+00 -0.00000000000E+00 -0.11080752006E+04  0.11080752006E+04  0.00000000000E+00 0.  1.
         23    2    1    2    0    0 -0.64347465830E+03  0.15225356478E+03  0.26207186144E+04  0.27041772914E+04  0.84663946281E+02 0.  0.
         11    1    3    3    0    0 -0.57915512696E+03  0.11388889056E+03  0.23785873273E+04  0.24507282620E+04  0.00000000000E+00 0. -1.
        -11    1    3    3    0    0 -0.64319531344E+02  0.38364674223E+02  0.24213128711E+03  0.25344902946E+03  0.00000000000E+00 0.  1.
         22    1    1    2    0    0  0.64347465830E+03 -0.15225356478E+03 -0.96383672325E+03  0.11688550008E+04  0.00000000000E+00 0.  1.
<mgrwt>
<rscale>  0 0.35007316E+04</rscale>
<asrwt>0</asrwt>
<pdfrwt beam="1">  1        2 0.42537801E+00 0.35007316E+04</pdfrwt>
<pdfrwt beam="2">  1       -2 0.17047311E+00 0.35007316E+04</pdfrwt>
<totfact> 0.42173681E-01</totfact>
</mgrwt>
</event>
<event>
 6    1  0.9364335E-007  0.6385566E+03  0.7818608E-02  0.9828492E-01
         -1   -1    0    0    0  501 -0.00000000000E+00  0.00000000000E+00  0.65350260984E+02  0.65350260984E+02  0.00000000000E+00 0.  1.
          1   -1    0    0  501    0  0.00000000000E+00 -0.00000000000E+00 -0.15598809181E+04  0.15598809181E+04  0.00000000000E+00 0. -1.
         23    2    1    2    0    0  0.40555833385E+02  0.73059143250E+02 -0.15296850485E+04  0.15345766411E+04  0.89480197679E+02 0.  0.
         11    1    3    3    0    0  0.44464246459E+02 -0.45420917243E+01 -0.57634270803E+03  0.57807319338E+03  0.00000000000E+00 0. -1.
        -11    1    3    3    0    0 -0.39084130733E+01  0.77601234974E+02 -0.95334234046E+03  0.95650344771E+03  0.00000000000E+00 0.  1.
         22    1    1    2    0    0 -0.40555833385E+02 -0.73059143250E+02  0.35154391341E+02  0.90654538025E+02  0.00000000000E+00 0.  1.
<mgrwt>
<rscale>  0 0.63855658E+03</rscale>
<asrwt>0</asrwt>
<pdfrwt beam="1">  1        1 0.23998166E+00 0.63855658E+03</pdfrwt>
<pdfrwt beam="2">  1       -1 0.10053887E-01 0.63855658E+03</pdfrwt>
<totfact> 0.38182267E+02</totfact>
</mgrwt>
</event>
<event>
 6    1  0.9364335E-007  0.3395993E+04  0.7818608E-02  0.8138890E-01
         -2   -1    0    0    0  501 -0.00000000000E+00  0.00000000000E+00  0.25413805576E+04  0.25413805576E+04  0.00000000000E+00 0.  1.
          2   -1    0    0  501    0  0.00000000000E+00 -0.00000000000E+00 -0.11344983663E+04  0.11344983663E+04  0.00000000000E+00 0. -1.
         23    2    1    2    0    0 -0.12172676807E+04  0.66477236937E+03  0.17620591789E+04  0.22441619121E+04  0.88018340259E+02 0.  0.
         11    1    3    3    0    0 -0.13633329072E+03  0.10687718216E+03  0.21068514895E+03  0.27275947319E+03  0.00000000000E+00 0.  1.
        -11    1    3    3    0    0 -0.10809343899E+04  0.55789518721E+03  0.15513740300E+04  0.19714024389E+04  0.00000000000E+00 0. -1.
         22    1    1    2    0    0  0.12172676807E+04 -0.66477236937E+03 -0.35517698755E+03  0.14317170118E+04  0.00000000000E+00 0. -1.
<mgrwt>
<rscale>  0 0.33959930E+04</rscale>
<asrwt>0</asrwt>
<pdfrwt beam="1">  1        2 0.17453821E+00 0.33959930E+04</pdfrwt>
<pdfrwt beam="2">  1       -2 0.39098162E+00 0.33959930E+04</pdfrwt>
<totfact> 0.14602093E-01</totfact>
</mgrwt>
</event>
<event>
 6    1  0.9364335E-007  0.3588477E+04  0.7818608E-02  0.8093136E-01
         -1   -1    0    0    0  501 -0.00000000000E+00  0.00000000000E+00  0.16686502938E+04  0.16686502938E+04  0.00000000000E+00 0.  1.
          1   -1    0    0  501    0  0.00000000000E+00 -0.00000000000E+00 -0.19292793128E+04  0.19292793128E+04  0.00000000000E+00 0. -1.
         23    2    1    2    0    0 -0.57636600032E+03  0.11255837767E+04  0.11441029457E+04  0.17078479952E+04  0.92933414085E+02 0.  0.
         11    1    3    3    0    0 -0.20393496472E+03  0.49904791009E+03  0.48737853217E+03  0.72675726348E+03  0.00000000000E+00 0.  1.
        -11    1    3    3    0    0 -0.37243103560E+03  0.62653586666E+03  0.65672441354E+03  0.98109073170E+03  0.00000000000E+00 0. -1.
         22    1    1    2    0    0  0.57636600032E+03 -0.11255837767E+04 -0.14047319647E+04  0.18900816113E+04  0.00000000000E+00 0. -1.
<mgrwt>
<rscale>  0 0.35884774E+04</rscale>
<asrwt>0</asrwt>
<pdfrwt beam="1">  1        1 0.29681220E+00 0.35884774E+04</pdfrwt>
<pdfrwt beam="2">  1       -1 0.25671543E+00 0.35884774E+04</pdfrwt>
<totfact> 0.16989198E-01</totfact>
</mgrwt>
</event>
<event>
 6    1  0.9364335E-007  0.6958417E+03  0.7818608E-02  0.9724370E-01
          2   -1    0    0  501    0  0.00000000000E+00  0.00000000000E+00  0.14389297688E+03  0.14389297688E+03  0.00000000000E+00 0. -1.
         -2   -1    0    0    0  501 -0.00000000000E+00 -0.00000000000E+00 -0.84124276992E+03  0.84124276992E+03  0.00000000000E+00 0.  1.
         23    2    1    2    0    0 -0.20446427953E+02  0.28770079262E+03 -0.97197128747E+02  0.31927313112E+03  0.96427423091E+02 0.  0.
         11    1    3    3    0    0 -0.56892557422E+02  0.13299253389E+03 -0.55681196552E+02  0.15499733163E+03  0.00000000000E+00 0. -1.
        -11    1    3    3    0    0  0.36446129469E+02  0.15470825873E+03 -0.41515932195E+02  0.16427579949E+03  0.00000000000E+00 0.  1.
         22    1    1    2    0    0  0.20446427953E+02 -0.28770079262E+03 -0.60015266430E+03  0.66586261568E+03  0.00000000000E+00 0.  1.
<mgrwt>
<rscale>  0 0.69584172E+03</rscale>
<asrwt>0</asrwt>
<pdfrwt beam="1">  1        2 0.22137381E-01 0.69584172E+03</pdfrwt>
<pdfrwt beam="2">  1       -2 0.12942197E+00 0.69584172E+03</pdfrwt>
<totfact> 0.11210789E+02</totfact>
</mgrwt>
</event>
<event>
 6    1  0.1757914E-006  0.2857838E+04  0.7818608E-02  0.8285534E-01
          2   -1    0    0  501    0  0.00000000000E+00  0.00000000000E+00  0.21412625165E+04  0.21412625165E+04  0.00000000000E+00 0. -1.
         -2   -1    0    0    0  501 -0.00000000000E+00 -0.00000000000E+00 -0.95355373021E+03  0.95355373021E+03  0.00000000000E+00 0.  1.
         23    2    1    2    0    0  0.22679825533E+02  0.79524632701E+03  0.18779805994E+04  0.20415326804E+04  0.90074736343E+02 0.  0.
         13    1    3    3    0    0  0.44354718387E+02  0.30332185578E+03  0.78621467947E+03  0.84386314735E+03  0.00000000000E+00 0. -1.
        -13    1    3    3    0    0 -0.21674892854E+02  0.49192447123E+03  0.10917659200E+04  0.11976695330E+04  0.00000000000E+00 0.  1.
         22    1    1    2    0    0 -0.22679825533E+02 -0.79524632701E+03 -0.69027181314E+03  0.10532835663E+04  0.00000000000E+00 0.  1.
<mgrwt>
<rscale>  0 0.28578375E+04</rscale>
<asrwt>0</asrwt>
<pdfrwt beam="1">  1        2 0.32942500E+00 0.28578375E+04</pdfrwt>
<pdfrwt beam="2">  1       -2 0.14670057E+00 0.28578375E+04</pdfrwt>
<totfact> 0.15333021E+00</totfact>
</mgrwt>
</event>
<event>
 6    1  0.9364335E-007  0.1632873E+04  0.7818608E-02  0.8800604E-01
         -2   -1    0    0    0  501 -0.00000000000E+00  0.00000000000E+00  0.37671704981E+03  0.37671704981E+03  0.00000000000E+00 0.  1.
          2   -1    0    0  501    0  0.00000000000E+00 -0.00000000000E+00 -0.17694139673E+04  0.17694139673E+04  0.00000000000E+00 0. -1.
         23    2    1    2    0    0  0.47602435625E+03  0.60434489345E+03 -0.34973847756E+03  0.85013941011E+03  0.92671872603E+02 0.  0.
         13    1    3    3    0    0  0.33410072549E+03  0.37355638180E+03 -0.19237411155E+03  0.53681976859E+03  0.00000000000E+00 0.  1.
        -13    1    3    3    0    0  0.14192363075E+03  0.23078851164E+03 -0.15736436601E+03  0.31331964152E+03  0.00000000000E+00 0. -1.
         22    1    1    2    0    0 -0.47602435625E+03 -0.60434489345E+03 -0.10429584400E+04  0.12959916070E+04  0.00000000000E+00 0. -1.
<mgrwt>
<rscale>  0 0.16328728E+04</rscale>
<asrwt>0</asrwt>
<pdfrwt beam="1">  1        2 0.27221753E+00 0.16328728E+04</pdfrwt>
<pdfrwt beam="2">  1       -2 0.57956470E-01 0.16328728E+04</pdfrwt>
<totfact> 0.23912864E+01</totfact>
</mgrwt>
</event>
<event>
 6    1  0.9364335E-007  0.4194890E+04  0.7818608E-02  0.7966345E-01
         -2   -1    0    0    0  501 -0.00000000000E+00  0.00000000000E+00  0.25520871995E+04  0.25520871995E+04  0.00000000000E+00 0.  1.
          2   -1    0    0  501    0  0.00000000000E+00 -0.00000000000E+00 -0.17237954797E+04  0.17237954797E+04  0.00000000000E+00 0. -1.
         23    2    1    2    0    0 -0.16282104485E+04 -0.46800913886E+03  0.16730531312E+04  0.23828101341E+04  0.92604193312E+02 0.  0.
         13    1    3    3    0    0 -0.63457444232E+03 -0.16553900956E+03  0.58889463783E+03  0.88141067670E+03  0.00000000000E+00 0. -1.
        -13    1    3    3    0    0 -0.99363600618E+03 -0.30247012930E+03  0.10841584934E+04  0.15013994574E+04  0.00000000000E+00 0.  1.
         22    1    1    2    0    0  0.16282104485E+04  0.46800913886E+03 -0.84476141151E+03  0.18930725451E+04  0.00000000000E+00 0.  1.
<mgrwt>
<rscale>  0 0.41948904E+04</rscale>
<asrwt>0</asrwt>
<pdfrwt beam="1">  1        2 0.26519930E+00 0.41948904E+04</pdfrwt>
<pdfrwt beam="2">  1       -2 0.39262880E+00 0.41948904E+04</pdfrwt>
<totfact> 0.61238031E-02</totfact>
</mgrwt>
</event>
<event>
 6    1  0.9364335E-007  0.1716369E+04  0.7818608E-02  0.8752083E-01
         -2   -1    0    0    0  501 -0.00000000000E+00  0.00000000000E+00  0.24293278590E+04  0.24293278590E+04  0.00000000000E+00 0.  1.
          2   -1    0    0  501    0  0.00000000000E+00 -0.00000000000E+00 -0.30316244189E+03  0.30316244189E+03  0.00000000000E+00 0. -1.
         23    2    1    2    0    0  0.42593499789E+03 -0.35326470692E+03  0.21053144069E+04  0.21787292150E+04  0.91080542194E+02 0.  0.
         13    1    3    3    0    0  0.18809501919E+03 -0.18963530287E+03  0.11578866474E+04  0.11882940598E+04  0.00000000000E+00 0.  1.
        -13    1    3    3    0    0  0.23783997870E+03 -0.16362940405E+03  0.94742775946E+03  0.99043515524E+03  0.00000000000E+00 0. -1.
         22    1    1    2    0    0 -0.42593499789E+03  0.35326470692E+03  0.20851010258E+02  0.55376108586E+03  0.00000000000E+00 0. -1.
<mgrwt>
<rscale>  0 0.17163694E+04</rscale>
<asrwt>0</asrwt>
<pdfrwt beam="1">  1        2 0.46640377E-01 0.17163694E+04</pdfrwt>
<pdfrwt beam="2">  1       -2 0.37374273E+00 0.17163694E+04</pdfrwt>
<totfact> 0.11389234E+00</totfact>
</mgrwt>
</event>
<event>
 6    1  0.9364335E-007  0.3189583E+04  0.7818608E-02  0.8191574E-01
         -2   -1    0    0    0  501 -0.00000000000E+00  0.00000000000E+00  0.18155771181E+04  0.18155771181E+04  0.00000000000E+00 0.  1.
          2   -1    0    0  501    0  0.00000000000E+00 -0.00000000000E+00 -0.14008545787E+04  0.14008545787E+04  0.00000000000E+00 0. -1.
         23    2    1    2    0    0 -0.11805370362E+04 -0.10575755419E+04  0.37357029101E+03  0.16309263425E+04  0.90731756986E+02 0.  0.
         13    1    3    3    0    0 -0.10759842255E+04 -0.93622769316E+03  0.31722559788E+03  0.14611284772E+04  0.00000000000E+00 0. -1.
        -13    1    3    3    0    0 -0.10455281069E+03 -0.12134784871E+03  0.56344693132E+02  0.16979786528E+03  0.00000000000E+00 0.  1.
         22    1    1    2    0    0  0.11805370362E+04  0.10575755419E+04  0.41152248379E+02  0.15855053542E+04  0.00000000000E+00 0. -1.
<mgrwt>
<rscale>  0 0.31895827E+04</rscale>
<asrwt>0</asrwt>
<pdfrwt beam="1">  1        2 0.21551609E+00 0.31895827E+04</pdfrwt>
<pdfrwt beam="2">  1       -2 0.27931956E+00 0.31895827E+04</pdfrwt>
<totfact> 0.51791359E-01</totfact>
</mgrwt>
</event>
<event>
 6    1  0.9364335E-007  0.2188496E+04  0.7818608E-02  0.8523232E-01
          2   -1    0    0  501    0  0.00000000000E+00  0.00000000000E+00  0.17292235340E+04  0.17292235340E+04  0.00000000000E+00 0. -1.
         -2   -1    0    0    0  501 -0.00000000000E+00 -0.00000000000E+00 -0.69243697832E+03  0.69243697832E+03  0.00000000000E+00 0.  1.
         23    2    1    2    0    0 -0.47439975141E+03  0.59922139230E+03 -0.34433182466E+03  0.84317725879E+03  0.90896001732E+02 0.  0.
         13    1    3    3    0    0 -0.28304150848E+03  0.39755648115E+03 -0.25831863668E+03  0.55217041688E+03  0.00000000000E+00 0. -1.
        -13    1    3    3    0    0 -0.19135824293E+03  0.20166491115E+03 -0.86013187982E+02  0.29100684190E+03  0.00000000000E+00 0.  1.
         22    1    1    2    0    0  0.47439975141E+03 -0.59922139230E+03  0.13811183803E+04  0.15784832535E+04  0.00000000000E+00 0. -1.
<mgrwt>
<rscale>  0 0.21884957E+04</rscale>
<asrwt>0</asrwt>
<pdfrwt beam="1">  1        2 0.26603439E+00 0.21884957E+04</pdfrwt>
<pdfrwt beam="2">  1       -2 0.10652877E+00 0.21884957E+04</pdfrwt>
<totfact> 0.61362684E+00</totfact>
</mgrwt>
</event>
<event>
 6    1  0.9364335E-007  0.3242561E+04  0.7818608E-02  0.8177666E-01
         -2   -1    0    0    0  501 -0.00000000000E+00  0.00000000000E+00  0.18778144938E+04  0.18778144938E+04  0.00000000000E+00 0.  1.
          2   -1    0    0  501    0  0.00000000000E+00 -0.00000000000E+00 -0.13997926137E+04  0.13997926137E+04  0.00000000000E+00 0. -1.
         23    2    1    2    0    0 -0.13475637084E+04  0.66947528329E+03 -0.36768667787E+03  0.15515282947E+04  0.89002543875E+02 0.  0.
         11    1    3    3    0    0 -0.66489397602E+03  0.32804502295E+03 -0.22693317848E+03  0.77536843108E+03  0.00000000000E+00 0. -1.
        -11    1    3    3    0    0 -0.68266973240E+03  0.34143026034E+03 -0.14075349940E+03  0.77615986357E+03  0.00000000000E+00 0.  1.
         22    1    1    2    0    0  0.13475637084E+04 -0.66947528329E+03  0.84570855796E+03  0.17260788129E+04  0.00000000000E+00 0.  1.
<mgrwt>
<rscale>  0 0.32425612E+04</rscale>
<asrwt>0</asrwt>
<pdfrwt beam="1">  1        2 0.21535271E+00 0.32425612E+04</pdfrwt>
<pdfrwt beam="2">  1       -2 0.28889454E+00 0.32425612E+04</pdfrwt>
<totfact> 0.45134878E-01</totfact>
</mgrwt>
</event>
<event>
 6    1  0.9364335E-007  0.2903236E+04  0.7818608E-02  0.8271915E-01
          1   -1    0    0  501    0  0.00000000000E+00  0.00000000000E+00  0.86938070813E+03  0.86938070813E+03  0.00000000000E+00 0. -1.
         -1   -1    0    0    0  501 -0.00000000000E+00 -0.00000000000E+00 -0.24237882437E+04  0.24237882437E+04  0.00000000000E+00 0.  1.
         23    2    1    2    0    0 -0.10057050578E+04 -0.22233818527E+03 -0.19360723633E+04  0.21947405415E+04  0.87366562908E+02 0.  0.
         11    1    3    3    0    0 -0.56101660481E+03 -0.16597955380E+03 -0.11258824149E+04  0.12688183697E+04  0.00000000000E+00 0. -1.
        -11    1    3    3    0    0 -0.44468845303E+03 -0.56358631468E+02 -0.81018994843E+03  0.92592217175E+03  0.00000000000E+00 0.  1.
         22    1    1    2    0    0  0.10057050578E+04  0.22233818527E+03  0.38166482774E+03  0.10984284104E+04  0.00000000000E+00 0.  1.
<mgrwt>
<rscale>  0 0.29032359E+04</rscale>
<asrwt>0</asrwt>
<pdfrwt beam="1">  1        1 0.13375088E+00 0.29032359E+04</pdfrwt>
<pdfrwt beam="2">  1       -1 0.37289050E+00 0.29032359E+04</pdfrwt>
<totfact> 0.18080827E-01</totfact>
</mgrwt>
</event>
<event>
 6    1  0.9364335E-007  0.1836984E+04  0.7818608E-02  0.8686875E-01
          1   -1    0    0  501    0  0.00000000000E+00  0.00000000000E+00  0.13977940831E+04  0.13977940831E+04  0.00000000000E+00 0. -1.
         -1   -1    0    0    0  501 -0.00000000000E+00 -0.00000000000E+00 -0.60354232780E+03  0.60354232780E+03  0.00000000000E+00 0.  1.
         23    2    1    2    0    0  0.42976751890E+03  0.77335664766E+03  0.13883122164E+03  0.90026570438E+03  0.91780202661E+02 0.  0.
         13    1    3    3    0    0  0.23291439044E+03  0.45191543701E+03  0.12264089634E+03  0.52298897210E+03  0.00000000000E+00 0. -1.
        -13    1    3    3    0    0  0.19685312846E+03  0.32144121065E+03  0.16190325305E+02  0.37727673228E+03  0.00000000000E+00 0.  1.
         22    1    1    2    0    0 -0.42976751890E+03 -0.77335664766E+03  0.65542053363E+03  0.11010707065E+04  0.00000000000E+00 0.  1.
<mgrwt>
<rscale>  0 0.18369844E+04</rscale>
<asrwt>0</asrwt>
<pdfrwt beam="1">  1        1 0.21504524E+00 0.18369844E+04</pdfrwt>
<pdfrwt beam="2">  1       -1 0.92852667E-01 0.18369844E+04</pdfrwt>
<totfact> 0.81740483E+00</totfact>
</mgrwt>
</event>
<event>
 6    1  0.9364335E-007  0.1098637E+04  0.7818608E-02  0.9206521E-01
         -1   -1    0    0    0  501 -0.00000000000E+00  0.00000000000E+00  0.18726306137E+03  0.18726306137E+03  0.00000000000E+00 0.  1.
          1   -1    0    0  501    0  0.00000000000E+00 -0.00000000000E+00 -0.16113749220E+04  0.16113749220E+04  0.00000000000E+00 0. -1.
         23    2    1    2    0    0 -0.51186790645E+03 -0.18850148722E+03 -0.68319005888E+03  0.87858000657E+03  0.87250255373E+02 0.  0.
         13    1    3    3    0    0 -0.36126021802E+03 -0.13824434697E+03 -0.41814984777E+03  0.56962245372E+03  0.00000000000E+00 0.  1.
        -13    1    3    3    0    0 -0.15060768843E+03 -0.50257140246E+02 -0.26504021111E+03  0.30895755285E+03  0.00000000000E+00 0. -1.
         22    1    1    2    0    0  0.51186790645E+03  0.18850148722E+03 -0.74092180172E+03  0.92005797675E+03  0.00000000000E+00 0.  1.
<mgrwt>
<rscale>  0 0.10986373E+04</rscale>
<asrwt>0</asrwt>
<pdfrwt beam="1">  1        1 0.24790383E+00 0.10986373E+04</pdfrwt>
<pdfrwt beam="2">  1       -1 0.28809703E-01 0.10986373E+04</pdfrwt>
<totfact> 0.59843857E+01</totfact>
</mgrwt>
</event>
<event>
 6    1  0.9364335E-007  0.2418502E+04  0.7818608E-02  0.8432609E-01
         -2   -1    0    0    0  501 -0.00000000000E+00  0.00000000000E+00  0.84251112134E+03  0.84251112134E+03  0.00000000000E+00 0.  1.
          2   -1    0    0  501    0  0.00000000000E+00 -0.00000000000E+00 -0.17356298154E+04  0.17356298154E+04  0.00000000000E+00 0. -1.
         23    2    1    2    0    0  0.87394428947E+03 -0.17502462042E+03 -0.13158690903E+04  0.15916673505E+04  0.86494236106E+02 0.  0.
         11    1    3    3    0    0  0.45755291656E+03 -0.11914934822E+03 -0.75644137482E+03  0.89205089102E+03  0.00000000000E+00 0. -1.
        -11    1    3    3    0    0  0.41639137291E+03 -0.55875272200E+02 -0.55942771550E+03  0.69961645946E+03  0.00000000000E+00 0.  1.
         22    1    1    2    0    0 -0.87394428947E+03  0.17502462042E+03  0.42275039626E+03  0.98647358626E+03  0.00000000000E+00 0.  1.
<mgrwt>
<rscale>  0 0.24185015E+04</rscale>
<asrwt>0</asrwt>
<pdfrwt beam="1">  1        2 0.26701997E+00 0.24185015E+04</pdfrwt>
<pdfrwt beam="2">  1       -2 0.12961710E+00 0.24185015E+04</pdfrwt>
<totfact> 0.36814095E+00</totfact>
</mgrwt>
</event>
<event>
 6    1  0.9364335E-007  0.2830175E+04  0.7818608E-02  0.8293961E-01
         -1   -1    0    0    0  501 -0.00000000000E+00  0.00000000000E+00  0.28550421260E+04  0.28550421260E+04  0.00000000000E+00 0.  1.
          1   -1    0    0  501    0  0.00000000000E+00 -0.00000000000E+00 -0.70138112865E+03  0.70138112865E+03  0.00000000000E+00 0. -1.
         23    2    1    2    0    0  0.85255119107E+03  0.51721824164E+03  0.23369941263E+04  0.25425350562E+04  0.92653779609E+02 0.  0.
         11    1    3    3    0    0  0.35221278578E+03  0.20339063713E+03  0.10682557737E+04  0.11430625512E+04  0.00000000000E+00 0.  1.
        -11    1    3    3    0    0  0.50033840530E+03  0.31382760452E+03  0.12687383525E+04  0.13994725050E+04  0.00000000000E+00 0. -1.
         22    1    1    2    0    0 -0.85255119107E+03 -0.51721824164E+03 -0.18333312888E+03  0.10138881985E+04  0.00000000000E+00 0. -1.
<mgrwt>
<rscale>  0 0.28301750E+04</rscale>
<asrwt>0</asrwt>
<pdfrwt beam="1">  1        1 0.10790479E+00 0.28301750E+04</pdfrwt>
<pdfrwt beam="2">  1       -1 0.43923724E+00 0.28301750E+04</pdfrwt>
<totfact> 0.89968652E-02</totfact>
</mgrwt>
</event>
<event>
 6    1  0.9364335E-007  0.1796752E+04  0.7818608E-02  0.8708028E-01
          2   -1    0    0  501    0  0.00000000000E+00  0.00000000000E+00  0.30727493975E+04  0.30727493975E+04  0.00000000000E+00 0. -1.
         -2   -1    0    0    0  501 -0.00000000000E+00 -0.00000000000E+00 -0.26265720947E+03  0.26265720947E+03  0.00000000000E+00 0.  1.
         23    2    1    2    0    0 -0.79008123984E+03 -0.38630203695E+03  0.10905892001E+04  0.14040474599E+04  0.92232516483E+02 0.  0.
         11    1    3    3    0    0 -0.47092068142E+03 -0.27642234793E+03  0.70066633545E+03  0.88831802653E+03  0.00000000000E+00 0. -1.
        -11    1    3    3    0    0 -0.31916055842E+03 -0.10987968902E+03  0.38992286462E+03  0.51572943339E+03  0.00000000000E+00 0.  1.
         22    1    1    2    0    0  0.79008123984E+03  0.38630203695E+03  0.17195029880E+04  0.19313591471E+04  0.00000000000E+00 0. -1.
<mgrwt>
<rscale>  0 0.17967524E+04</rscale>
<asrwt>0</asrwt>
<pdfrwt beam="1">  1        2 0.47273065E+00 0.17967524E+04</pdfrwt>
<pdfrwt beam="2">  1       -2 0.40408804E-01 0.17967524E+04</pdfrwt>
<totfact> 0.86129062E+00</totfact>
</mgrwt>
</event>
<event>
 6    1  0.9364335E-007  0.1802650E+04  0.7818608E-02  0.8704891E-01
         -1   -1    0    0    0  501 -0.00000000000E+00  0.00000000000E+00  0.80536828566E+03  0.80536828566E+03  0.00000000000E+00 0.  1.
          1   -1    0    0  501    0  0.00000000000E+00 -0.00000000000E+00 -0.10087151209E+04  0.10087151209E+04  0.00000000000E+00 0. -1.
         23    2    1    2    0    0 -0.12686020384E+03  0.11792193268E+03  0.78583578637E+03  0.80985168408E+03  0.91229236224E+02 0.  0.
         13    1    3    3    0    0 -0.94220807793E+02  0.56308964055E+02  0.30839384777E+03  0.32734542215E+03  0.00000000000E+00 0.  1.
        -13    1    3    3    0    0 -0.32639396052E+02  0.61612968626E+02  0.47744193859E+03  0.48250626193E+03  0.00000000000E+00 0. -1.
         22    1    1    2    0    0  0.12686020384E+03 -0.11792193268E+03 -0.98918262158E+03  0.10042317224E+04  0.00000000000E+00 0. -1.
<mgrwt>
<rscale>  0 0.18026505E+04</rscale>
<asrwt>0</asrwt>
<pdfrwt beam="1">  1        1 0.15518694E+00 0.18026505E+04</pdfrwt>
<pdfrwt beam="2">  1       -1 0.12390281E+00 0.18026505E+04</pdfrwt>
<totfact> 0.80398851E+00</totfact>
</mgrwt>
</event>
<event>
 6    1  0.9364335E-007  0.4058240E+04  0.7818608E-02  0.7992900E-01
          2   -1    0    0  501    0  0.00000000000E+00  0.00000000000E+00  0.16580977809E+04  0.16580977809E+04  0.00000000000E+00 0. -1.
         -2   -1    0    0    0  501 -0.00000000000E+00 -0.00000000000E+00 -0.24831637916E+04  0.24831637916E+04  0.00000000000E+00 0.  1.
         23    2    1    2    0    0 -0.17210711169E+04 -0.10219034148E+04 -0.74462222882E+03  0.21380532506E+04  0.10216193163E+03 0.  0.
         13    1    3    3    0    0 -0.10901157882E+04 -0.70096377680E+03 -0.49849732467E+03  0.13885972169E+04  0.00000000000E+00 0. -1.
        -13    1    3    3    0    0 -0.63095532872E+03 -0.32093963797E+03 -0.24612490414E+03  0.74945603373E+03  0.00000000000E+00 0.  1.
         22    1    1    2    0    0  0.17210711169E+04  0.10219034148E+04 -0.80443781900E+02  0.20032083218E+04  0.00000000000E+00 0. -1.
<mgrwt>
<rscale>  0 0.40582402E+04</rscale>
<asrwt>0</asrwt>
<pdfrwt beam="1">  1        2 0.25509197E+00 0.40582402E+04</pdfrwt>
<pdfrwt beam="2">  1       -2 0.38202520E+00 0.40582402E+04</pdfrwt>
<totfact> 0.78910522E-02</totfact>
</mgrwt>
</event>
<event>
 6    1  0.9364335E-007  0.3236384E+04  0.7818608E-02  0.8179274E-01
         -1   -1    0    0    0  501 -0.00000000000E+00  0.00000000000E+00  0.11744678578E+04  0.11744678578E+04  0.00000000000E+00 0.  1.
          1   -1    0    0  501    0  0.00000000000E+00 -0.00000000000E+00 -0.22295583936E+04  0.22295583936E+04  0.00000000000E+00 0. -1.
         23    2    1    2    0    0 -0.93118125817E+03  0.12143343126E+04  0.21127589285E+02  0.15332104371E+04  0.92636445689E+02 0.  0.
         11    1    3    3    0    0 -0.49204936169E+03  0.56563886156E+03  0.83976933080E+01  0.74975357105E+03  0.00000000000E+00 0. -1.
        -11    1    3    3    0    0 -0.43913189648E+03  0.64869545107E+03  0.12729895977E+02  0.78345686608E+03  0.00000000000E+00 0.  1.
         22    1    1    2    0    0  0.93118125817E+03 -0.12143343126E+04 -0.10762181251E+04  0.18708158143E+04  0.00000000000E+00 0.  1.
<mgrwt>
<rscale>  0 0.32363836E+04</rscale>
<asrwt>0</asrwt>
<pdfrwt beam="1">  1        1 0.34300898E+00 0.32363836E+04</pdfrwt>
<pdfrwt beam="2">  1       -1 0.18068736E+00 0.32363836E+04</pdfrwt>
<totfact> 0.35686613E-01</totfact>
</mgrwt>
</event>
<event>
 6    1  0.9364335E-007  0.2571499E+04  0.7818608E-02  0.8377947E-01
         -2   -1    0    0    0  501 -0.00000000000E+00  0.00000000000E+00  0.62073506473E+03  0.62073506473E+03  0.00000000000E+00 0.  1.
          2   -1    0    0  501    0  0.00000000000E+00 -0.00000000000E+00 -0.26632162395E+04  0.26632162395E+04  0.00000000000E+00 0. -1.
         23    2    1    2    0    0 -0.49205573367E+03  0.11503109753E+04 -0.65331330517E+03  0.14144268848E+04  0.91929062960E+02 0.  0.
         11    1    3    3    0    0 -0.75171850470E+02  0.21002681469E+03 -0.80707361828E+02  0.23722510037E+03  0.00000000000E+00 0.  1.
        -11    1    3    3    0    0 -0.41688388320E+03  0.94028416066E+03 -0.57260594335E+03  0.11772017844E+04  0.00000000000E+00 0. -1.
         22    1    1    2    0    0  0.49205573367E+03 -0.11503109753E+04 -0.13891678696E+04  0.18695244195E+04  0.00000000000E+00 0. -1.
<mgrwt>
<rscale>  0 0.25714989E+04</rscale>
<asrwt>0</asrwt>
<pdfrwt beam="1">  1        2 0.40972558E+00 0.25714989E+04</pdfrwt>
<pdfrwt beam="2">  1       -2 0.95497702E-01 0.25714989E+04</pdfrwt>
<totfact> 0.22792262E+00</totfact>
</mgrwt>
</event>
<event>
 6    1  0.9364335E-007  0.2266101E+04  0.7818608E-02  0.8491408E-01
          2   -1    0    0  501    0  0.00000000000E+00  0.00000000000E+00  0.16989341966E+04  0.16989341966E+04  0.00000000000E+00 0. -1.
         -2   -1    0    0    0  501 -0.00000000000E+00 -0.00000000000E+00 -0.75565211633E+03  0.75565211633E+03  0.00000000000E+00 0.  1.
         23    2    1    2    0    0 -0.18944046224E+03  0.49344408209E+03  0.15557092795E+04  0.16456105251E+04  0.91803523919E+02 0.  0.
         13    1    3    3    0    0 -0.47273128776E+02  0.13781844870E+03  0.31355375687E+03  0.34575226963E+03  0.00000000000E+00 0. -1.
        -13    1    3    3    0    0 -0.14216733346E+03  0.35562563339E+03  0.12421555226E+04  0.12998582555E+04  0.00000000000E+00 0.  1.
         22    1    1    2    0    0  0.18944046224E+03 -0.49344408209E+03 -0.61242719927E+03  0.80897578783E+03  0.00000000000E+00 0.  1.
<mgrwt>
<rscale>  0 0.22661008E+04</rscale>
<asrwt>0</asrwt>
<pdfrwt beam="1">  1        2 0.26137449E+00 0.22661008E+04</pdfrwt>
<pdfrwt beam="2">  1       -2 0.11625417E+00 0.22661008E+04</pdfrwt>
<totfact> 0.51269776E+00</totfact>
</mgrwt>
</event>
<event>
 6    1  0.9364335E-007  0.2169415E+04  0.7818608E-02  0.8531267E-01
         -2   -1    0    0    0  501 -0.00000000000E+00  0.00000000000E+00  0.47379159805E+03  0.47379159805E+03  0.00000000000E+00 0.  1.
          2   -1    0    0  501    0  0.00000000000E+00 -0.00000000000E+00 -0.24833491907E+04  0.24833491907E+04  0.00000000000E+00 0. -1.
         23    2    1    2    0    0  0.67018613585E+03  0.85070539904E+03 -0.10074476048E+04  0.14816498331E+04  0.86524093314E+02 0.  0.
         11    1    3    3    0    0  0.13998312674E+03  0.16278397872E+03 -0.15606307469E+03  0.26542340285E+03  0.00000000000E+00 0. -1.
        -11    1    3    3    0    0  0.53020300911E+03  0.68792142032E+03 -0.85138453014E+03  0.12162264302E+04  0.00000000000E+00 0.  1.
         22    1    1    2    0    0 -0.67018613585E+03 -0.85070539904E+03 -0.10021099879E+04  0.14754909557E+04  0.00000000000E+00 0. -1.
<mgrwt>
<rscale>  0 0.21694147E+04</rscale>
<asrwt>0</asrwt>
<pdfrwt beam="1">  1        2 0.38205372E+00 0.21694147E+04</pdfrwt>
<pdfrwt beam="2">  1       -2 0.72891015E-01 0.21694147E+04</pdfrwt>
<totfact> 0.55480893E+00</totfact>
</mgrwt>
</event>
<event>
 6    1  0.9364335E-007  0.1909601E+04  0.7818608E-02  0.8650092E-01
         -2   -1    0    0    0  501 -0.00000000000E+00  0.00000000000E+00  0.46460272066E+03  0.46460272066E+03  0.00000000000E+00 0.  1.
          2   -1    0    0  501    0  0.00000000000E+00 -0.00000000000E+00 -0.19622004651E+04  0.19622004651E+04  0.00000000000E+00 0. -1.
         23    2    1    2    0    0  0.69969777989E+03 -0.34891364724E+03 -0.14421463530E+04  0.16429712055E+04  0.90832606377E+02 0.  0.
         11    1    3    3    0    0  0.37367151712E+03 -0.21897195733E+03 -0.72410949493E+03  0.84374977419E+03  0.00000000000E+00 0. -1.
        -11    1    3    3    0    0  0.32602626277E+03 -0.12994168991E+03 -0.71803685805E+03  0.79922143134E+03  0.00000000000E+00 0.  1.
         22    1    1    2    0    0 -0.69969777989E+03  0.34891364724E+03 -0.55451391467E+02  0.78383198023E+03  0.00000000000E+00 0.  1.
<mgrwt>
<rscale>  0 0.19096007E+04</rscale>
<asrwt>0</asrwt>
<pdfrwt beam="1">  1        2 0.30187700E+00 0.19096007E+04</pdfrwt>
<pdfrwt beam="2">  1       -2 0.71477341E-01 0.19096007E+04</pdfrwt>
<totfact> 0.11652898E+01</totfact>
</mgrwt>
</event>
<event>
 6    1  0.9364335E-007  0.2312765E+04  0.7818608E-02  0.8472905E-01
         -1   -1    0    0    0  501 -0.00000000000E+00  0.00000000000E+00  0.38922972087E+03  0.38922972087E+03  0.00000000000E+00 0.  1.
          1   -1    0    0  501    0  0.00000000000E+00 -0.00000000000E+00 -0.34355550729E+04  0.34355550729E+04  0.00000000000E+00 0. -1.
         23    2    1    2    0    0 -0.40073176276E+03  0.92142002063E+03 -0.58534601077E+03  0.11665861333E+04  0.93233331527E+02 0.  0.
         13    1    3    3    0    0 -0.19875065606E+03  0.46787307940E+03 -0.24244084229E+03  0.56319144500E+03  0.00000000000E+00 0. -1.
        -13    1    3    3    0    0 -0.20198110670E+03  0.45354694122E+03 -0.34290516848E+03  0.60339468834E+03  0.00000000000E+00 0.  1.
         22    1    1    2    0    0  0.40073176276E+03 -0.92142002063E+03 -0.24609793413E+04  0.26581986604E+04  0.00000000000E+00 0. -1.
<mgrwt>
<rscale>  0 0.23127647E+04</rscale>
<asrwt>0</asrwt>
<pdfrwt beam="1">  1        1 0.52854692E+00 0.23127647E+04</pdfrwt>
<pdfrwt beam="2">  1       -1 0.59881498E-01 0.23127647E+04</pdfrwt>
<totfact> 0.71798611E-01</totfact>
</mgrwt>
</event>
<event>
 6    1  0.9364335E-007  0.4044108E+04  0.7818608E-02  0.7995707E-01
         -2   -1    0    0    0  501 -0.00000000000E+00  0.00000000000E+00  0.13452656609E+04  0.13452656609E+04  0.00000000000E+00 0.  1.
          2   -1    0    0  501    0  0.00000000000E+00 -0.00000000000E+00 -0.30393271255E+04  0.30393271255E+04  0.00000000000E+00 0. -1.
         23    2    1    2    0    0  0.17633309386E+04  0.51405625249E+03  0.66691280228E+02  0.18402185887E+04  0.91470746480E+02 0.  0.
         11    1    3    3    0    0  0.48628229745E+03  0.11591622648E+03 -0.14126249178E+02  0.50010658393E+03  0.00000000000E+00 0. -1.
        -11    1    3    3    0    0  0.12770486411E+04  0.39814002601E+03  0.80817529406E+02  0.13401120047E+04  0.00000000000E+00 0.  1.
         22    1    1    2    0    0 -0.17633309386E+04 -0.51405625249E+03 -0.17607527449E+04  0.25443741978E+04  0.00000000000E+00 0. -1.
<mgrwt>
<rscale>  0 0.40441080E+04</rscale>
<asrwt>0</asrwt>
<pdfrwt beam="1">  1        2 0.46758878E+00 0.40441080E+04</pdfrwt>
<pdfrwt beam="2">  1       -2 0.20696395E+00 0.40441080E+04</pdfrwt>
<totfact> 0.15477011E-01</totfact>
</mgrwt>
</event>
<event>
 6    1  0.9364335E-007  0.1616663E+04  0.7818608E-02  0.8810376E-01
         -1   -1    0    0    0  501 -0.00000000000E+00  0.00000000000E+00  0.67677039806E+03  0.67677039806E+03  0.00000000000E+00 0.  1.
          1   -1    0    0  501    0  0.00000000000E+00 -0.00000000000E+00 -0.96546798142E+03  0.96546798142E+03  0.00000000000E+00 0. -1.
         23    2    1    2    0    0 -0.41759139365E+03 -0.51181768693E+03 -0.61354551590E+03  0.90612283422E+03  0.90997658784E+02 0.  0.
         13    1    3    3    0    0 -0.12785638761E+03 -0.95940555356E+02 -0.15371659823E+03  0.22176708184E+03  0.00000000000E+00 0.  1.
        -13    1    3    3    0    0 -0.28973500604E+03 -0.41587713157E+03 -0.45982891766E+03  0.68435575238E+03  0.00000000000E+00 0. -1.
         22    1    1    2    0    0  0.41759139365E+03  0.51181768693E+03  0.32484793254E+03  0.73611554527E+03  0.00000000000E+00 0.  1.
<mgrwt>
<rscale>  0 0.16166634E+04</rscale>
<asrwt>0</asrwt>
<pdfrwt beam="1">  1        1 0.14853354E+00 0.16166634E+04</pdfrwt>
<pdfrwt beam="2">  1       -1 0.10411852E+00 0.16166634E+04</pdfrwt>
<totfact> 0.13406720E+01</totfact>
</mgrwt>
</event>
<event>
 6    1  0.9364335E-007  0.3317625E+04  0.7818608E-02  0.8158425E-01
          2   -1    0    0  501    0  0.00000000000E+00  0.00000000000E+00  0.32728989717E+04  0.32728989717E+04  0.00000000000E+00 0. -1.
         -2   -1    0    0    0  501 -0.00000000000E+00 -0.00000000000E+00 -0.84074053241E+03  0.84074053241E+03  0.00000000000E+00 0.  1.
         23    2    1    2    0    0  0.79640488117E+03  0.76970754853E+03  0.27461022118E+04  0.29624352923E+04  0.90747221941E+02 0.  0.
         13    1    3    3    0    0  0.26665214387E+03  0.30061193670E+03  0.10781012373E+04  0.11505534234E+04  0.00000000000E+00 0. -1.
        -13    1    3    3    0    0  0.52975273730E+03  0.46909561183E+03  0.16680009746E+04  0.18118818689E+04  0.00000000000E+00 0.  1.
         22    1    1    2    0    0 -0.79640488117E+03 -0.76970754853E+03 -0.31394377252E+03  0.11512042118E+04  0.00000000000E+00 0.  1.
<mgrwt>
<rscale>  0 0.33176249E+04</rscale>
<asrwt>0</asrwt>
<pdfrwt beam="1">  1        2 0.50352291E+00 0.33176249E+04</pdfrwt>
<pdfrwt beam="2">  1       -2 0.12934470E+00 0.33176249E+04</pdfrwt>
<totfact> 0.42550800E-01</totfact>
</mgrwt>
</event>
<event>
 6    1  0.9364335E-007  0.6998653E+03  0.7818608E-02  0.9717463E-01
          2   -1    0    0  501    0  0.00000000000E+00  0.00000000000E+00  0.31014470499E+03  0.31014470499E+03  0.00000000000E+00 0. -1.
         -2   -1    0    0    0  501 -0.00000000000E+00 -0.00000000000E+00 -0.39482488588E+03  0.39482488588E+03  0.00000000000E+00 0.  1.
         23    2    1    2    0    0  0.30211606337E+03 -0.15950602471E+03 -0.31366909840E+01  0.35373515575E+03  0.91664791057E+02 0.  0.
         13    1    3    3    0    0  0.12309241221E+03 -0.11263107116E+03 -0.19367309396E+02  0.16796604659E+03  0.00000000000E+00 0. -1.
        -13    1    3    3    0    0  0.17902365116E+03 -0.46874953557E+02  0.16230618412E+02  0.18576910916E+03  0.00000000000E+00 0.  1.
         22    1    1    2    0    0 -0.30211606337E+03  0.15950602471E+03 -0.81543489902E+02  0.35123443512E+03  0.00000000000E+00 0. -1.
<mgrwt>
<rscale>  0 0.69986527E+03</rscale>
<asrwt>0</asrwt>
<pdfrwt beam="1">  1        2 0.47714570E-01 0.69986527E+03</pdfrwt>
<pdfrwt beam="2">  1       -2 0.60742290E-01 0.69986527E+03</pdfrwt>
<totfact> 0.26954085E+02</totfact>
</mgrwt>
</event>
<event>
 6    1  0.9364335E-007  0.2985758E+04  0.7818608E-02  0.8247809E-01
         -1   -1    0    0    0  501 -0.00000000000E+00  0.00000000000E+00  0.31758741968E+04  0.31758741968E+04  0.00000000000E+00 0.  1.
          1   -1    0    0  501    0  0.00000000000E+00 -0.00000000000E+00 -0.70175572908E+03  0.70175572908E+03  0.00000000000E+00 0. -1.
         23    2    1    2    0    0  0.98296676392E+03 -0.10512163853E+04  0.73004580114E+03  0.16164202907E+04  0.92564230908E+02 0.  0.
         11    1    3    3    0    0  0.81217072376E+03 -0.81541893724E+03  0.57389741879E+03  0.12860356041E+04  0.00000000000E+00 0. -1.
        -11    1    3    3    0    0  0.17079604016E+03 -0.23579744808E+03  0.15614838236E+03  0.33038468664E+03  0.00000000000E+00 0.  1.
         22    1    1    2    0    0 -0.98296676392E+03  0.10512163853E+04  0.17440726666E+04  0.22612096351E+04  0.00000000000E+00 0.  1.
<mgrwt>
<rscale>  0 0.29857581E+04</rscale>
<asrwt>0</asrwt>
<pdfrwt beam="1">  1        1 0.10796242E+00 0.29857581E+04</pdfrwt>
<pdfrwt beam="2">  1       -1 0.48859602E+00 0.29857581E+04</pdfrwt>
<totfact> 0.40834666E-02</totfact>
</mgrwt>
</event>
<event>
 6    1  0.9364335E-007  0.1120848E+04  0.7818608E-02  0.9185107E-01
          4   -1    0    0  501    0  0.00000000000E+00  0.00000000000E+00  0.19158448857E+03  0.19158448857E+03  0.00000000000E+00 0. -1.
         -4   -1    0    0    0  501 -0.00000000000E+00 -0.00000000000E+00 -0.16393547137E+04  0.16393547137E+04  0.00000000000E+00 0.  1.
         23    2    1    2    0    0  0.13252454279E+01  0.30317015081E+03 -0.14913095894E+04  0.15246557179E+04  0.93042301821E+02 0.  0.
         13    1    3    3    0    0  0.26726386175E+02  0.19327018998E+03 -0.75731255247E+03  0.78204217800E+03  0.00000000000E+00 0. -1.
        -13    1    3    3    0    0 -0.25401140747E+02  0.10989996084E+03 -0.73399703693E+03  0.74261353985E+03  0.00000000000E+00 0.  1.
         22    1    1    2    0    0 -0.13252454279E+01 -0.30317015081E+03  0.43539364225E+02  0.30628348447E+03  0.00000000000E+00 0. -1.
<mgrwt>
<rscale>  0 0.11208478E+04</rscale>
<asrwt>0</asrwt>
<pdfrwt beam="1">  1        4 0.29474537E-01 0.11208478E+04</pdfrwt>
<pdfrwt beam="2">  1       -4 0.25220842E+00 0.11208478E+04</pdfrwt>
<totfact> 0.13575102E+00</totfact>
</mgrwt>
</event>
<event>
 6    1  0.9364335E-007  0.1493902E+04  0.7818608E-02  0.8888518E-01
          2   -1    0    0  501    0  0.00000000000E+00  0.00000000000E+00  0.15038359819E+04  0.15038359819E+04  0.00000000000E+00 0. -1.
         -2   -1    0    0    0  501 -0.00000000000E+00 -0.00000000000E+00 -0.37100849725E+03  0.37100849725E+03  0.00000000000E+00 0.  1.
         23    2    1    2    0    0  0.52762528841E+03 -0.39056717305E+03  0.10074800647E+04  0.12065308273E+04  0.98840248623E+02 0.  0.
         11    1    3    3    0    0  0.20147933903E+03 -0.98494419703E+02  0.30036658994E+03  0.37485352222E+03  0.00000000000E+00 0.  1.
        -11    1    3    3    0    0  0.32614594937E+03 -0.29207275335E+03  0.70711347475E+03  0.83167730504E+03  0.00000000000E+00 0. -1.
         22    1    1    2    0    0 -0.52762528841E+03  0.39056717305E+03  0.12534741998E+03  0.66831365191E+03  0.00000000000E+00 0.  1.
<mgrwt>
<rscale>  0 0.14939022E+04</rscale>
<asrwt>0</asrwt>
<pdfrwt beam="1">  1        2 0.23135938E+00 0.14939022E+04</pdfrwt>
<pdfrwt beam="2">  1       -2 0.57078231E-01 0.14939022E+04</pdfrwt>
<totfact> 0.35122183E+01</totfact>
</mgrwt>
</event>
<event>
 6    1  0.9364335E-007  0.5902100E+03  0.7818608E-02  0.9925928E-01
         -2   -1    0    0    0  501 -0.00000000000E+00  0.00000000000E+00  0.17433476291E+03  0.17433476291E+03  0.00000000000E+00 0.  1.
          2   -1    0    0  501    0  0.00000000000E+00 -0.00000000000E+00 -0.49953875074E+03  0.49953875074E+03  0.00000000000E+00 0. -1.
         23    2    1    2    0    0  0.24200937360E+03 -0.50848238676E+02  0.23188305456E+01  0.26347702629E+03  0.90888316753E+02 0.  0.
         11    1    3    3    0    0  0.68809945666E+02 -0.33090074921E+02  0.38713107300E+02  0.85606462126E+02  0.00000000000E+00 0. -1.
        -11    1    3    3    0    0  0.17319942793E+03 -0.17758163755E+02 -0.36394276755E+02  0.17787056416E+03  0.00000000000E+00 0.  1.
         22    1    1    2    0    0 -0.24200937360E+03  0.50848238676E+02 -0.32752281837E+03  0.41039648736E+03  0.00000000000E+00 0. -1.
<mgrwt>
<rscale>  0 0.59021003E+03</rscale>
<asrwt>0</asrwt>
<pdfrwt beam="1">  1        2 0.76852113E-01 0.59021003E+03</pdfrwt>
<pdfrwt beam="2">  1       -2 0.26820734E-01 0.59021003E+03</pdfrwt>
<totfact> 0.78113001E+02</totfact>
</mgrwt>
</event>
<event>
 6    1  0.9364335E-007  0.4449028E+04  0.7818608E-02  0.7919622E-01
         -2   -1    0    0    0  501 -0.00000000000E+00  0.00000000000E+00  0.20202813493E+04  0.20202813493E+04  0.00000000000E+00 0.  1.
          2   -1    0    0  501    0  0.00000000000E+00 -0.00000000000E+00 -0.24493926295E+04  0.24493926295E+04  0.00000000000E+00 0. -1.
         23    2    1    2    0    0 -0.15769569235E+04 -0.25732603145E+03  0.13389169605E+04  0.20866226396E+04  0.91025205041E+02 0.  0.
         13    1    3    3    0    0 -0.80520988600E+03 -0.16252728733E+03  0.64406274272E+03  0.10438366233E+04  0.00000000000E+00 0. -1.
        -13    1    3    3    0    0 -0.77174703755E+03 -0.94798744120E+02  0.69485421775E+03  0.10427860163E+04  0.00000000000E+00 0.  1.
         22    1    1    2    0    0  0.15769569235E+04  0.25732603145E+03 -0.17680282407E+04  0.23830513392E+04  0.00000000000E+00 0. -1.
<mgrwt>
<rscale>  0 0.44490279E+04</rscale>
<asrwt>0</asrwt>
<pdfrwt beam="1">  1        2 0.37682964E+00 0.44490279E+04</pdfrwt>
<pdfrwt beam="2">  1       -2 0.31081252E+00 0.44490279E+04</pdfrwt>
<totfact> 0.77288996E-02</totfact>
</mgrwt>
</event>
<event>
 6    1  0.9364335E-007  0.6637596E+03  0.7818608E-02  0.9781297E-01
         -1   -1    0    0    0  501 -0.00000000000E+00  0.00000000000E+00  0.12825211375E+03  0.12825211375E+03  0.00000000000E+00 0.  1.
          1   -1    0    0  501    0  0.00000000000E+00 -0.00000000000E+00 -0.85881005505E+03  0.85881005505E+03  0.00000000000E+00 0. -1.
         23    2    1    2    0    0 -0.14843374624E+03  0.17537920898E+03 -0.19618399095E+02  0.23991728550E+03  0.66219168932E+02 0.  0.
         11    1    3    3    0    0 -0.13200119062E+03  0.16366809983E+03 -0.36742968832E+02  0.21345165023E+03  0.00000000000E+00 0.  1.
        -11    1    3    3    0    0 -0.16432555617E+02  0.11711109152E+02  0.17124569737E+02  0.26465635272E+02  0.00000000000E+00 0. -1.
         22    1    1    2    0    0  0.14843374624E+03 -0.17537920898E+03 -0.71093954221E+03  0.74714488330E+03  0.00000000000E+00 0. -1.
<mgrwt>
<rscale>  0 0.66375961E+03</rscale>
<asrwt>0</asrwt>
<pdfrwt beam="1">  1        1 0.13212462E+00 0.66375961E+03</pdfrwt>
<pdfrwt beam="2">  1       -1 0.19731094E-01 0.66375961E+03</pdfrwt>
<totfact> 0.41673266E+02</totfact>
</mgrwt>
</event>
<event>
 6    1  0.9364335E-007  0.3628679E+04  0.7818608E-02  0.8083954E-01
         -2   -1    0    0    0  501 -0.00000000000E+00  0.00000000000E+00  0.17469543589E+04  0.17469543589E+04  0.00000000000E+00 0.  1.
          2   -1    0    0  501    0  0.00000000000E+00 -0.00000000000E+00 -0.18843236139E+04  0.18843236139E+04  0.00000000000E+00 0. -1.
         23    2    1    2    0    0  0.54398596532E+03 -0.23457593446E+03 -0.17836212451E+04  0.18816802435E+04  0.92028221574E+02 0.  0.
         13    1    3    3    0    0  0.69843744845E+02  0.14737310201E+01 -0.20607850189E+03  0.21759749428E+03  0.00000000000E+00 0. -1.
        -13    1    3    3    0    0  0.47414222047E+03 -0.23604966548E+03 -0.15775427432E+04  0.16640827493E+04  0.00000000000E+00 0.  1.
         22    1    1    2    0    0 -0.54398596532E+03  0.23457593446E+03  0.16462519900E+04  0.17495977292E+04  0.00000000000E+00 0.  1.
<mgrwt>
<rscale>  0 0.36286787E+04</rscale>
<asrwt>0</asrwt>
<pdfrwt beam="1">  1        2 0.28989594E+00 0.36286787E+04</pdfrwt>
<pdfrwt beam="2">  1       -2 0.26876221E+00 0.36286787E+04</pdfrwt>
<totfact> 0.31068954E-01</totfact>
</mgrwt>
</event>
<event>
 6    1  0.9364335E-007  0.3301606E+04  0.7818608E-02  0.8162487E-01
          2   -1    0    0  501    0  0.00000000000E+00  0.00000000000E+00  0.22360277376E+04  0.22360277376E+04  0.00000000000E+00 0. -1.
         -2   -1    0    0    0  501 -0.00000000000E+00 -0.00000000000E+00 -0.12187465710E+04  0.12187465710E+04  0.00000000000E+00 0.  1.
         23    2    1    2    0    0 -0.64893030242E+03  0.33179681040E+03  0.20574793196E+04  0.21846515357E+04  0.91002862789E+02 0.  0.
         11    1    3    3    0    0 -0.52342693059E+03  0.27299856757E+03  0.15509242849E+04  0.16594788661E+04  0.00000000000E+00 0. -1.
        -11    1    3    3    0    0 -0.12550337183E+03  0.58798242824E+02  0.50655503472E+03  0.52517266960E+03  0.00000000000E+00 0.  1.
         22    1    1    2    0    0  0.64893030242E+03 -0.33179681040E+03 -0.10401981530E+04  0.12701227729E+04  0.00000000000E+00 0.  1.
<mgrwt>
<rscale>  0 0.33016064E+04</rscale>
<asrwt>0</asrwt>
<pdfrwt beam="1">  1        2 0.34400427E+00 0.33016064E+04</pdfrwt>
<pdfrwt beam="2">  1       -2 0.18749947E+00 0.33016064E+04</pdfrwt>
<totfact> 0.66310501E-01</totfact>
</mgrwt>
</event>
<event>
 6    1  0.9364335E-007  0.4470368E+04  0.7818608E-02  0.7915845E-01
         -1   -1    0    0    0  501 -0.00000000000E+00  0.00000000000E+00  0.30492229603E+04  0.30492229603E+04  0.00000000000E+00 0.  1.
          1   -1    0    0  501    0  0.00000000000E+00 -0.00000000000E+00 -0.16384655971E+04  0.16384655971E+04  0.00000000000E+00 0. -1.
         23    2    1    2    0    0  0.10030580126E+04  0.18720912216E+04 -0.21974643988E+02  0.21257416565E+04  0.86277382966E+02 0.  0.
         13    1    3    3    0    0  0.19887949761E+03  0.33741050840E+03  0.25362724924E+02  0.39248206782E+03  0.00000000000E+00 0.  1.
        -13    1    3    3    0    0  0.80417851502E+03  0.15346807132E+04 -0.47337368911E+02  0.17332595887E+04  0.00000000000E+00 0. -1.
         22    1    1    2    0    0 -0.10030580126E+04 -0.18720912216E+04  0.14327320072E+04  0.25619469009E+04  0.00000000000E+00 0.  1.
<mgrwt>
<rscale>  0 0.44703677E+04</rscale>
<asrwt>0</asrwt>
<pdfrwt beam="1">  1        1 0.25207163E+00 0.44703677E+04</pdfrwt>
<pdfrwt beam="2">  1       -1 0.46911122E+00 0.44703677E+04</pdfrwt>
<totfact> 0.94808440E-03</totfact>
</mgrwt>
</event>
<event>
 6    1  0.9364335E-007  0.1147020E+04  0.7818608E-02  0.9160537E-01
         -2   -1    0    0    0  501 -0.00000000000E+00  0.00000000000E+00  0.19844702594E+03  0.19844702594E+03  0.00000000000E+00 0.  1.
          2   -1    0    0  501    0  0.00000000000E+00 -0.00000000000E+00 -0.16574393563E+04  0.16574393563E+04  0.00000000000E+00 0. -1.
         23    2    1    2    0    0 -0.63263685166E+02 -0.32757543016E+03  0.13330116540E+02  0.34623697130E+03  0.91620914550E+02 0.  0.
         11    1    3    3    0    0  0.14998695336E+02 -0.20441241885E+02  0.14657460444E+02  0.29285600186E+02  0.00000000000E+00 0. -1.
        -11    1    3    3    0    0 -0.78262380502E+02 -0.30713418828E+03 -0.13273439040E+01  0.31695137112E+03  0.00000000000E+00 0.  1.
         22    1    1    2    0    0  0.63263685166E+02  0.32757543016E+03 -0.14723224469E+04  0.15096494110E+04  0.00000000000E+00 0. -1.
<mgrwt>
<rscale>  0 0.11470203E+04</rscale>
<asrwt>0</asrwt>
<pdfrwt beam="1">  1        2 0.25499067E+00 0.11470203E+04</pdfrwt>
<pdfrwt beam="2">  1       -2 0.30530311E-01 0.11470203E+04</pdfrwt>
<totfact> 0.10173402E+02</totfact>
</mgrwt>
</event>
<event>
 6    1  0.1043165E-006  0.3054186E+04  0.7818608E-02  0.8228425E-01
          2   -1    0    0  501    0  0.00000000000E+00  0.00000000000E+00  0.20568662596E+04  0.20568662596E+04  0.00000000000E+00 0. -1.
         -2   -1    0    0    0  501 -0.00000000000E+00 -0.00000000000E+00 -0.11337697862E+04  0.11337697862E+04  0.00000000000E+00 0.  1.
         23    2    1    2    0    0 -0.15109557202E+03 -0.62358481597E+03  0.19080554081E+04  0.20151225420E+04  0.91408557318E+02 0.  0.
         11    1    3    3    0    0 -0.58075044606E+02 -0.35507362898E+03  0.95159290626E+03  0.10173392021E+04  0.00000000000E+00 0. -1.
        -11    1    3    3    0    0 -0.93020527410E+02 -0.26851118699E+03  0.95646250184E+03  0.99778333995E+03  0.00000000000E+00 0.  1.
         22    1    1    2    0    0  0.15109557202E+03  0.62358481597E+03 -0.98495893473E+03  0.11755135038E+04  0.00000000000E+00 0.  1.
<mgrwt>
<rscale>  0 0.30541859E+04</rscale>
<asrwt>0</asrwt>
<pdfrwt beam="1">  1        2 0.31644096E+00 0.30541859E+04</pdfrwt>
<pdfrwt beam="2">  1       -2 0.17442612E+00 0.30541859E+04</pdfrwt>
<totfact> 0.10497727E+00</totfact>
</mgrwt>
</event>
<event>
 6    1  0.9364335E-007  0.1930844E+04  0.7818608E-02  0.8639654E-01
         -1   -1    0    0    0  501 -0.00000000000E+00  0.00000000000E+00  0.49909621612E+03  0.49909621612E+03  0.00000000000E+00 0.  1.
          1   -1    0    0  501    0  0.00000000000E+00 -0.00000000000E+00 -0.18674551164E+04  0.18674551164E+04  0.00000000000E+00 0. -1.
         23    2    1    2    0    0  0.88694203354E+03  0.16113077021E+03 -0.11019608667E+04  0.14265528175E+04  0.90032735783E+02 0.  0.
         13    1    3    3    0    0  0.78853548482E+03  0.11372088117E+03 -0.97209681498E+03  0.12568583322E+04  0.00000000000E+00 0. -1.
        -13    1    3    3    0    0  0.98406548718E+02  0.47409889036E+02 -0.12986405169E+03  0.16969448527E+03  0.00000000000E+00 0.  1.
         22    1    1    2    0    0 -0.88694203354E+03 -0.16113077021E+03 -0.26639803364E+03  0.93999851505E+03  0.00000000000E+00 0.  1.
<mgrwt>
<rscale>  0 0.19308441E+04</rscale>
<asrwt>0</asrwt>
<pdfrwt beam="1">  1        1 0.28730078E+00 0.19308441E+04</pdfrwt>
<pdfrwt beam="2">  1       -1 0.76784034E-01 0.19308441E+04</pdfrwt>
<totfact> 0.58209493E+00</totfact>
</mgrwt>
</event>
<event>
 6    1  0.9364335E-007  0.7033090E+03  0.7818608E-02  0.9711590E-01
         -2   -1    0    0    0  501 -0.00000000000E+00  0.00000000000E+00  0.32840370542E+02  0.32840370542E+02  0.00000000000E+00 0.  1.
          2   -1    0    0  501    0  0.00000000000E+00 -0.00000000000E+00 -0.37655146982E+04  0.37655146982E+04  0.00000000000E+00 0. -1.
         23    2    1    2    0    0  0.45600682056E+02  0.11357083150E+03 -0.36443120956E+04  0.36474059382E+04  0.87072794668E+02 0.  0.
         11    1    3    3    0    0  0.71363297048E+02  0.81306053092E+02 -0.24692596377E+04  0.24716283201E+04  0.00000000000E+00 0. -1.
        -11    1    3    3    0    0 -0.25762614992E+02  0.32264778408E+02 -0.11750524580E+04  0.11757776181E+04  0.00000000000E+00 0.  1.
         22    1    1    2    0    0 -0.45600682056E+02 -0.11357083150E+03 -0.88362232061E+02  0.15094913059E+03  0.00000000000E+00 0.  1.
<mgrwt>
<rscale>  0 0.70330903E+03</rscale>
<asrwt>0</asrwt>
<pdfrwt beam="1">  1        2 0.57930961E+00 0.70330903E+03</pdfrwt>
<pdfrwt beam="2">  1       -2 0.50523677E-02 0.70330903E+03</pdfrwt>
<totfact> 0.11619862E+02</totfact>
</mgrwt>
</event>
<event>
 6    1  0.9364335E-007  0.2311749E+04  0.7818608E-02  0.8473303E-01
          1   -1    0    0  501    0  0.00000000000E+00  0.00000000000E+00  0.57170030163E+03  0.57170030163E+03  0.00000000000E+00 0. -1.
         -1   -1    0    0    0  501 -0.00000000000E+00 -0.00000000000E+00 -0.23369681597E+04  0.23369681597E+04  0.00000000000E+00 0.  1.
         23    2    1    2    0    0  0.37691402891E+03 -0.82223779757E+03 -0.17857971974E+04  0.20039250531E+04  0.92221512654E+02 0.  0.
         11    1    3    3    0    0  0.10859633945E+03 -0.20572226474E+03 -0.54723185695E+03  0.59462384784E+03  0.00000000000E+00 0. -1.
        -11    1    3    3    0    0  0.26831768946E+03 -0.61651553283E+03 -0.12385653404E+04  0.14093012053E+04  0.00000000000E+00 0.  1.
         22    1    1    2    0    0 -0.37691402891E+03  0.82223779757E+03  0.20529339307E+02  0.90474340822E+03  0.00000000000E+00 0. -1.
<mgrwt>
<rscale>  0 0.23117486E+04</rscale>
<asrwt>0</asrwt>
<pdfrwt beam="1">  1        1 0.87953892E-01 0.23117486E+04</pdfrwt>
<pdfrwt beam="2">  1       -1 0.35953356E+00 0.23117486E+04</pdfrwt>
<totfact> 0.44542257E-01</totfact>
</mgrwt>
</event>
<event>
 6    1  0.9364335E-007  0.2514596E+04  0.7818608E-02  0.8397804E-01
          1   -1    0    0  501    0  0.00000000000E+00  0.00000000000E+00  0.44520134879E+04  0.44520134879E+04  0.00000000000E+00 0. -1.
         -1   -1    0    0    0  501 -0.00000000000E+00 -0.00000000000E+00 -0.35507481259E+03  0.35507481259E+03  0.00000000000E+00 0.  1.
         23    2    1    2    0    0 -0.14460735278E+03 -0.95959769362E+03  0.35742825664E+04  0.37048594548E+04  0.93534459284E+02 0.  0.
         13    1    3    3    0    0 -0.25743175639E+02 -0.37662668601E+03  0.15176851227E+04  0.15639304663E+04  0.00000000000E+00 0.  1.
        -13    1    3    3    0    0 -0.11886417714E+03 -0.58297100761E+03  0.20565974437E+04  0.21409289885E+04  0.00000000000E+00 0. -1.
         22    1    1    2    0    0  0.14460735278E+03  0.95959769362E+03  0.52265610887E+03  0.11022288457E+04  0.00000000000E+00 0.  1.
<mgrwt>
<rscale>  0 0.25145957E+04</rscale>
<asrwt>0</asrwt>
<pdfrwt beam="1">  1        1 0.68492511E+00 0.25145957E+04</pdfrwt>
<pdfrwt beam="2">  1       -1 0.54626897E-01 0.25145957E+04</pdfrwt>
<totfact> 0.10879697E-01</totfact>
</mgrwt>
</event>
<event>
 6    1  0.9364335E-007  0.2015479E+04  0.7818608E-02  0.8599418E-01
          1   -1    0    0  501    0  0.00000000000E+00  0.00000000000E+00  0.11146084970E+04  0.11146084970E+04  0.00000000000E+00 0. -1.
         -1   -1    0    0    0  501 -0.00000000000E+00 -0.00000000000E+00 -0.91111675708E+03  0.91111675708E+03  0.00000000000E+00 0.  1.
         23    2    1    2    0    0 -0.67480745076E+03 -0.70614900842E+03  0.34267037911E+03  0.10391239105E+04  0.91345469925E+02 0.  0.
         13    1    3    3    0    0 -0.38426100372E+03 -0.35966838377E+03  0.14734006171E+03  0.54655919994E+03  0.00000000000E+00 0. -1.
        -13    1    3    3    0    0 -0.29054644704E+03 -0.34648062465E+03  0.19533031740E+03  0.49256471051E+03  0.00000000000E+00 0.  1.
         22    1    1    2    0    0  0.67480745076E+03  0.70614900842E+03 -0.13917863917E+03  0.98660134365E+03  0.00000000000E+00 0.  1.
<mgrwt>
<rscale>  0 0.20154786E+04</rscale>
<asrwt>0</asrwt>
<pdfrwt beam="1">  1        1 0.17147823E+00 0.20154786E+04</pdfrwt>
<pdfrwt beam="2">  1       -1 0.14017181E+00 0.20154786E+04</pdfrwt>
<totfact> 0.47853949E+00</totfact>
</mgrwt>
</event>
<event>
 6    1  0.9364335E-007  0.1864710E+04  0.7818608E-02  0.8672625E-01
          2   -1    0    0  501    0  0.00000000000E+00  0.00000000000E+00  0.77032274037E+03  0.77032274037E+03  0.00000000000E+00 0. -1.
         -2   -1    0    0    0  501 -0.00000000000E+00 -0.00000000000E+00 -0.11284697078E+04  0.11284697078E+04  0.00000000000E+00 0.  1.
         23    2    1    2    0    0 -0.45067161554E+03 -0.57776813425E+03  0.40360367811E+03  0.84182273810E+03  0.94067376919E+02 0.  0.
         13    1    3    3    0    0 -0.22838853682E+03 -0.35893901486E+03  0.25834436832E+03  0.49773522357E+03  0.00000000000E+00 0. -1.
        -13    1    3    3    0    0 -0.22228307873E+03 -0.21882911939E+03  0.14525930979E+03  0.34408751454E+03  0.00000000000E+00 0.  1.
         22    1    1    2    0    0  0.45067161554E+03  0.57776813425E+03 -0.76175064555E+03  0.10569697101E+04  0.00000000000E+00 0.  1.
<mgrwt>
<rscale>  0 0.18647100E+04</rscale>
<asrwt>0</asrwt>
<pdfrwt beam="1">  1        2 0.11851119E+00 0.18647100E+04</pdfrwt>
<pdfrwt beam="2">  1       -2 0.17361072E+00 0.18647100E+04</pdfrwt>
<totfact> 0.68308904E+00</totfact>
</mgrwt>
</event>
<event>
 6    1  0.9364335E-007  0.1192219E+04  0.7818608E-02  0.9119695E-01
         -2   -1    0    0    0  501 -0.00000000000E+00  0.00000000000E+00  0.15843435282E+03  0.15843435282E+03  0.00000000000E+00 0.  1.
          2   -1    0    0  501    0  0.00000000000E+00 -0.00000000000E+00 -0.22428610948E+04  0.22428610948E+04  0.00000000000E+00 0. -1.
         23    2    1    2    0    0 -0.20651875277E+03  0.53833026635E+03 -0.77248838367E+03  0.96824564845E+03  0.91169413277E+02 0.  0.
         11    1    3    3    0    0 -0.24589371710E+02  0.13181226213E+02 -0.33627477693E+02  0.43694269436E+02  0.00000000000E+00 0.  1.
        -11    1    3    3    0    0 -0.18192938106E+03  0.52514904014E+03 -0.73886090598E+03  0.92455137901E+03  0.00000000000E+00 0. -1.
         22    1    1    2    0    0  0.20651875277E+03 -0.53833026635E+03 -0.13119383583E+04  0.14330497992E+04  0.00000000000E+00 0. -1.
<mgrwt>
<rscale>  0 0.11922185E+04</rscale>
<asrwt>0</asrwt>
<pdfrwt beam="1">  1        2 0.34505557E+00 0.11922185E+04</pdfrwt>
<pdfrwt beam="2">  1       -2 0.24374515E-01 0.11922185E+04</pdfrwt>
<totfact> 0.72681434E+01</totfact>
</mgrwt>
</event>
<event>
 6    1  0.1418893E-006  0.4306592E+04  0.7818608E-02  0.7945400E-01
         -1   -1    0    0    0  501 -0.00000000000E+00  0.00000000000E+00  0.17482338863E+04  0.17482338863E+04  0.00000000000E+00 0.  1.
          1   -1    0    0  501    0  0.00000000000E+00 -0.00000000000E+00 -0.26522101526E+04  0.26522101526E+04  0.00000000000E+00 0. -1.
         23    2    1    2    0    0 -0.48081002051E+03  0.79356796113E+03 -0.24365537972E+04  0.26088742599E+04  0.92206901227E+02 0.  0.
         11    1    3    3    0    0 -0.26391654080E+03  0.34716708248E+03 -0.11280283168E+04  0.12093902626E+04  0.00000000000E+00 0. -1.
        -11    1    3    3    0    0 -0.21689347971E+03  0.44640087865E+03 -0.13085254803E+04  0.13994839973E+04  0.00000000000E+00 0.  1.
         22    1    1    2    0    0  0.48081002051E+03 -0.79356796113E+03  0.15325775309E+04  0.17915697790E+04  0.00000000000E+00 0.  1.
<mgrwt>
<rscale>  0 0.43065920E+04</rscale>
<asrwt>0</asrwt>
<pdfrwt beam="1">  1        1 0.40803233E+00 0.43065920E+04</pdfrwt>
<pdfrwt beam="2">  1       -1 0.26895906E+00 0.43065920E+04</pdfrwt>
<totfact> 0.42483239E-02</totfact>
</mgrwt>
</event>
<event>
 6    1  0.9364335E-007  0.1755666E+04  0.7818608E-02  0.8730238E-01
         -2   -1    0    0    0  501 -0.00000000000E+00  0.00000000000E+00  0.71597304319E+03  0.71597304319E+03  0.00000000000E+00 0.  1.
          2   -1    0    0  501    0  0.00000000000E+00 -0.00000000000E+00 -0.10762840803E+04  0.10762840803E+04  0.00000000000E+00 0. -1.
         23    2    1    2    0    0  0.69223011460E+03 -0.47526606335E+03 -0.43163147210E+03  0.94955494180E+03  0.10143222992E+03 0.  0.
         13    1    3    3    0    0  0.30095865086E+03 -0.23537960377E+03 -0.24637931044E+03  0.45462339580E+03  0.00000000000E+00 0. -1.
        -13    1    3    3    0    0  0.39127146374E+03 -0.23988645958E+03 -0.18525216166E+03  0.49493154600E+03  0.00000000000E+00 0.  1.
         22    1    1    2    0    0 -0.69223011460E+03  0.47526606335E+03  0.71320435015E+02  0.84270218166E+03  0.00000000000E+00 0.  1.
<mgrwt>
<rscale>  0 0.17556656E+04</rscale>
<asrwt>0</asrwt>
<pdfrwt beam="1">  1        2 0.16558217E+00 0.17556656E+04</pdfrwt>
<pdfrwt beam="2">  1       -2 0.11014970E+00 0.17556656E+04</pdfrwt>
<totfact> 0.13984417E+01</totfact>
</mgrwt>
</event>
<event>
 6    1  0.9364335E-007  0.3161794E+04  0.7818608E-02  0.8198981E-01
         -2   -1    0    0    0  501 -0.00000000000E+00  0.00000000000E+00  0.33340942206E+04  0.33340942206E+04  0.00000000000E+00 0.  1.
          2   -1    0    0  501    0  0.00000000000E+00 -0.00000000000E+00 -0.74959939399E+03  0.74959939399E+03  0.00000000000E+00 0. -1.
         23    2    1    2    0    0  0.14605291052E+04 -0.21544740641E+03  0.20188081162E+04  0.25026925690E+04  0.91219695714E+02 0.  0.
         11    1    3    3    0    0  0.96042240883E+03 -0.13438425523E+03  0.13971459493E+04  0.17007313530E+04  0.00000000000E+00 0. -1.
        -11    1    3    3    0    0  0.50010669633E+03 -0.81063151171E+02  0.62166216692E+03  0.80196121600E+03  0.00000000000E+00 0.  1.
         22    1    1    2    0    0 -0.14605291052E+04  0.21544740641E+03  0.56568671043E+03  0.15810010456E+04  0.00000000000E+00 0.  1.
<mgrwt>
<rscale>  0 0.31617938E+04</rscale>
<asrwt>0</asrwt>
<pdfrwt beam="1">  1        2 0.11532299E+00 0.31617938E+04</pdfrwt>
<pdfrwt beam="2">  1       -2 0.51293757E+00 0.31617938E+04</pdfrwt>
<totfact> 0.43452855E-02</totfact>
</mgrwt>
</event>
<event>
 6    1  0.9364335E-007  0.1526641E+04  0.7818608E-02  0.8866928E-01
         -2   -1    0    0    0  501 -0.00000000000E+00  0.00000000000E+00  0.23204398087E+03  0.23204398087E+03  0.00000000000E+00 0.  1.
          2   -1    0    0  501    0  0.00000000000E+00 -0.00000000000E+00 -0.25109823399E+04  0.25109823399E+04  0.00000000000E+00 0. -1.
         23    2    1    2    0    0  0.10783639504E+03 -0.45195936856E+03 -0.22256096699E+04  0.22753299363E+04  0.88836690726E+02 0.  0.
         13    1    3    3    0    0  0.34916642605E+02 -0.20460192310E+03 -0.11985639225E+04  0.12164031384E+04  0.00000000000E+00 0. -1.
        -13    1    3    3    0    0  0.72919752438E+02 -0.24735744545E+03 -0.10270457474E+04  0.10589267979E+04  0.00000000000E+00 0.  1.
         22    1    1    2    0    0 -0.10783639504E+03  0.45195936856E+03 -0.53328689152E+02  0.46769638443E+03  0.00000000000E+00 0.  1.
<mgrwt>
<rscale>  0 0.15266412E+04</rscale>
<asrwt>0</asrwt>
<pdfrwt beam="1">  1        2 0.38630496E+00 0.15266412E+04</pdfrwt>
<pdfrwt beam="2">  1       -2 0.35699075E-01 0.15266412E+04</pdfrwt>
<totfact> 0.24461774E+01</totfact>
</mgrwt>
</event>
<event>
 6    1  0.9364335E-007  0.1070706E+04  0.7818608E-02  0.9234224E-01
          1   -1    0    0  501    0  0.00000000000E+00  0.00000000000E+00  0.96079318521E+03  0.96079318521E+03  0.00000000000E+00 0. -1.
         -1   -1    0    0    0  501 -0.00000000000E+00 -0.00000000000E+00 -0.29829802709E+03  0.29829802709E+03  0.00000000000E+00 0.  1.
         23    2    1    2    0    0 -0.30327920566E+03 -0.26325332680E+03 -0.75580631124E+02  0.41883145405E+03  0.91797409768E+02 0.  0.
         11    1    3    3    0    0 -0.29969975301E+03 -0.23749768440E+03 -0.56425229601E+02  0.38653447270E+03  0.00000000000E+00 0.  1.
        -11    1    3    3    0    0 -0.35794526539E+01 -0.25755642403E+02 -0.19155401523E+02  0.32296981352E+02  0.00000000000E+00 0. -1.
         22    1    1    2    0    0  0.30327920566E+03  0.26325332680E+03  0.73807578925E+03  0.84025975825E+03  0.00000000000E+00 0.  1.
<mgrwt>
<rscale>  0 0.10707058E+04</rscale>
<asrwt>0</asrwt>
<pdfrwt beam="1">  1        1 0.14781433E+00 0.10707058E+04</pdfrwt>
<pdfrwt beam="2">  1       -1 0.45892005E-01 0.10707058E+04</pdfrwt>
<totfact> 0.76535814E+01</totfact>
</mgrwt>
</event>
<event>
 6    1  0.9364335E-007  0.2569682E+04  0.7818608E-02  0.8378573E-01
          2   -1    0    0  501    0  0.00000000000E+00  0.00000000000E+00  0.21796443201E+04  0.21796443201E+04  0.00000000000E+00 0. -1.
         -2   -1    0    0    0  501 -0.00000000000E+00 -0.00000000000E+00 -0.75737880451E+03  0.75737880451E+03  0.00000000000E+00 0.  1.
         23    2    1    2    0    0 -0.10110911657E+04  0.76836451792E+03  0.50035799447E+03  0.13677548699E+04  0.87783162160E+02 0.  0.
         13    1    3    3    0    0 -0.36976921112E+03  0.27890640461E+03  0.13743536831E+03  0.48312165392E+03  0.00000000000E+00 0. -1.
        -13    1    3    3    0    0 -0.64132195462E+03  0.48945811332E+03  0.36292262617E+03  0.88463321594E+03  0.00000000000E+00 0.  1.
         22    1    1    2    0    0  0.10110911657E+04 -0.76836451792E+03  0.92190752106E+03  0.15692682547E+04  0.00000000000E+00 0. -1.
<mgrwt>
<rscale>  0 0.25696820E+04</rscale>
<asrwt>0</asrwt>
<pdfrwt beam="1">  1        2 0.33532989E+00 0.25696820E+04</pdfrwt>
<pdfrwt beam="2">  1       -2 0.11651982E+00 0.25696820E+04</pdfrwt>
<totfact> 0.26843386E+00</totfact>
</mgrwt>
</event>
<event>
 6    1  0.9364335E-007  0.4013403E+04  0.7818608E-02  0.8001848E-01
         -1   -1    0    0    0  501 -0.00000000000E+00  0.00000000000E+00  0.23012949037E+04  0.23012949037E+04  0.00000000000E+00 0.  1.
          1   -1    0    0  501    0  0.00000000000E+00 -0.00000000000E+00 -0.17498200248E+04  0.17498200248E+04  0.00000000000E+00 0. -1.
         23    2    1    2    0    0 -0.61768591418E+03  0.99381330741E+03  0.19201838786E+04  0.22504025404E+04  0.89468921011E+02 0.  0.
         13    1    3    3    0    0 -0.30847620604E+03  0.48010345738E+03  0.10206651857E+04  0.11693649220E+04  0.00000000000E+00 0. -1.
        -13    1    3    3    0    0 -0.30920970814E+03  0.51370985003E+03  0.89951869284E+03  0.10810376184E+04  0.00000000000E+00 0.  1.
         22    1    1    2    0    0  0.61768591418E+03 -0.99381330741E+03 -0.13687089997E+04  0.18007123880E+04  0.00000000000E+00 0. -1.
<mgrwt>
<rscale>  0 0.40134035E+04</rscale>
<asrwt>0</asrwt>
<pdfrwt beam="1">  1        1 0.26920308E+00 0.40134035E+04</pdfrwt>
<pdfrwt beam="2">  1       -1 0.35404537E+00 0.40134035E+04</pdfrwt>
<totfact> 0.50306676E-02</totfact>
</mgrwt>
</event>
<event>
 6    1  0.9364335E-007  0.1907712E+04  0.7818608E-02  0.8651027E-01
          1   -1    0    0  501    0  0.00000000000E+00  0.00000000000E+00  0.97350413699E+03  0.97350413699E+03  0.00000000000E+00 0. -1.
         -1   -1    0    0    0  501 -0.00000000000E+00 -0.00000000000E+00 -0.93460442887E+03  0.93460442887E+03  0.00000000000E+00 0.  1.
         23    2    1    2    0    0 -0.83947787998E+03  0.37370757498E+02  0.46652089715E+03  0.96525143681E+03  0.89156627827E+02 0.  0.
         13    1    3    3    0    0 -0.49286629392E+03 -0.13468319826E+02  0.30234287682E+03  0.57836821705E+03  0.00000000000E+00 0. -1.
        -13    1    3    3    0    0 -0.34661158606E+03  0.50839077324E+02  0.16417802033E+03  0.38688321977E+03  0.00000000000E+00 0.  1.
         22    1    1    2    0    0  0.83947787998E+03 -0.37370757498E+02 -0.42762118903E+03  0.94285712905E+03  0.00000000000E+00 0.  1.
<mgrwt>
<rscale>  0 0.19077120E+04</rscale>
<asrwt>0</asrwt>
<pdfrwt beam="1">  1        1 0.14976987E+00 0.19077120E+04</pdfrwt>
<pdfrwt beam="2">  1       -1 0.14378530E+00 0.19077120E+04</pdfrwt>
<totfact> 0.58001915E+00</totfact>
</mgrwt>
</event>
<event>
 6    1  0.9364335E-007  0.4376644E+04  0.7818608E-02  0.7932596E-01
         -2   -1    0    0    0  501 -0.00000000000E+00  0.00000000000E+00  0.13177280871E+04  0.13177280871E+04  0.00000000000E+00 0.  1.
          2   -1    0    0  501    0  0.00000000000E+00 -0.00000000000E+00 -0.36340987632E+04  0.36340987632E+04  0.00000000000E+00 0. -1.
         23    2    1    2    0    0  0.11517197829E+04  0.12577691354E+04 -0.27084458776E+04  0.32019226758E+04  0.90488085906E+02 0.  0.
         11    1    3    3    0    0  0.10265413544E+04  0.11455515980E+04 -0.24796734934E+04  0.29180226609E+04  0.00000000000E+00 0. -1.
        -11    1    3    3    0    0  0.12517842853E+03  0.11221753743E+03 -0.22877238424E+03  0.28390001491E+03  0.00000000000E+00 0.  1.
         22    1    1    2    0    0 -0.11517197829E+04 -0.12577691354E+04  0.39207520153E+03  0.17499041745E+04  0.00000000000E+00 0.  1.
<mgrwt>
<rscale>  0 0.43766444E+04</rscale>
<asrwt>0</asrwt>
<pdfrwt beam="1">  1        2 0.55909211E+00 0.43766444E+04</pdfrwt>
<pdfrwt beam="2">  1       -2 0.20272740E+00 0.43766444E+04</pdfrwt>
<totfact> 0.63567190E-02</totfact>
</mgrwt>
</event>
<event>
 6    1  0.9364335E-007  0.1469456E+04  0.7818608E-02  0.8905022E-01
         -2   -1    0    0    0  501 -0.00000000000E+00  0.00000000000E+00  0.28746564000E+03  0.28746564000E+03  0.00000000000E+00 0.  1.
          2   -1    0    0  501    0  0.00000000000E+00 -0.00000000000E+00 -0.18778785295E+04  0.18778785295E+04  0.00000000000E+00 0. -1.
         23    2    1    2    0    0  0.63790278089E+03 -0.35735444858E+03 -0.75159433706E+03  0.10525824144E+04  0.91725305937E+02 0.  0.
         11    1    3    3    0    0  0.39063241808E+03 -0.25647265109E+03 -0.43546987622E+03  0.63875341087E+03  0.00000000000E+00 0.  1.
        -11    1    3    3    0    0  0.24727036281E+03 -0.10088179749E+03 -0.31612446084E+03  0.41382900349E+03  0.00000000000E+00 0. -1.
         22    1    1    2    0    0 -0.63790278089E+03  0.35735444858E+03 -0.83881855247E+03  0.11127617552E+04  0.00000000000E+00 0. -1.
<mgrwt>
<rscale>  0 0.14694564E+04</rscale>
<asrwt>0</asrwt>
<pdfrwt beam="1">  1        2 0.28890440E+00 0.14694564E+04</pdfrwt>
<pdfrwt beam="2">  1       -2 0.44225482E-01 0.14694564E+04</pdfrwt>
<totfact> 0.36681467E+01</totfact>
</mgrwt>
</event>
<event>
 6    1  0.9364335E-007  0.5855773E+04  0.7818608E-02  0.7708546E-01
          1   -1    0    0  501    0  0.00000000000E+00  0.00000000000E+00  0.23197085467E+04  0.23197085467E+04  0.00000000000E+00 0. -1.
         -1   -1    0    0    0  501 -0.00000000000E+00 -0.00000000000E+00 -0.36955158423E+04  0.36955158423E+04  0.00000000000E+00 0.  1.
         23    2    1    2    0    0 -0.26242817536E+03 -0.17647101461E+04 -0.30718717124E+04  0.35535775921E+04  0.91909950870E+02 0.  0.
         13    1    3    3    0    0 -0.14288249339E+02 -0.25949400644E+03 -0.49168126206E+03  0.55614005152E+03  0.00000000000E+00 0. -1.
        -13    1    3    3    0    0 -0.24813992602E+03 -0.15052161396E+04 -0.25801904504E+04  0.29974375406E+04  0.00000000000E+00 0.  1.
         22    1    1    2    0    0  0.26242817536E+03  0.17647101461E+04  0.16960644168E+04  0.24616467969E+04  0.00000000000E+00 0. -1.
<mgrwt>
<rscale>  0 0.58557731E+04</rscale>
<asrwt>0</asrwt>
<pdfrwt beam="1">  1        1 0.35687824E+00 0.58557731E+04</pdfrwt>
<pdfrwt beam="2">  1       -1 0.56854089E+00 0.58557731E+04</pdfrwt>
<totfact> 0.75046425E-04</totfact>
</mgrwt>
</event>
<event>
 6    1  0.9364335E-007  0.1845168E+04  0.7818608E-02  0.8682642E-01
         -2   -1    0    0    0  501 -0.00000000000E+00  0.00000000000E+00  0.52884289841E+03  0.52884289841E+03  0.00000000000E+00 0.  1.
          2   -1    0    0  501    0  0.00000000000E+00 -0.00000000000E+00 -0.16094786514E+04  0.16094786514E+04  0.00000000000E+00 0. -1.
         23    2    1    2    0    0 -0.63223811201E+03 -0.54945672432E+03 -0.98352246157E+03  0.12950785756E+04  0.91018472495E+02 0.  0.
         11    1    3    3    0    0 -0.35643425831E+03 -0.26533327373E+03 -0.56703544099E+03  0.72040010965E+03  0.00000000000E+00 0.  1.
        -11    1    3    3    0    0 -0.27580385370E+03 -0.28412345060E+03 -0.41648702057E+03  0.57467846593E+03  0.00000000000E+00 0. -1.
         22    1    1    2    0    0  0.63223811201E+03  0.54945672432E+03 -0.97113291402E+02  0.84324297421E+03  0.00000000000E+00 0.  1.
<mgrwt>
<rscale>  0 0.18451681E+04</rscale>
<asrwt>0</asrwt>
<pdfrwt beam="1">  1        2 0.24761210E+00 0.18451681E+04</pdfrwt>
<pdfrwt beam="2">  1       -2 0.81360446E-01 0.18451681E+04</pdfrwt>
<totfact> 0.13789452E+01</totfact>
</mgrwt>
</event>
<event>
 6    1  0.9364335E-007  0.2841168E+04  0.7818608E-02  0.8290600E-01
          1   -1    0    0  501    0  0.00000000000E+00  0.00000000000E+00  0.25948298055E+04  0.25948298055E+04  0.00000000000E+00 0. -1.
         -1   -1    0    0    0  501 -0.00000000000E+00 -0.00000000000E+00 -0.77772303259E+03  0.77772303259E+03  0.00000000000E+00 0.  1.
         23    2    1    2    0    0 -0.73699442968E+03 -0.12101338676E+04  0.81607682895E+03  0.16377197868E+04  0.92519957164E+02 0.  0.
         13    1    3    3    0    0 -0.20486208949E+03 -0.40670205879E+03  0.23558149754E+03  0.51271208521E+03  0.00000000000E+00 0.  1.
        -13    1    3    3    0    0 -0.53213234019E+03 -0.80343180885E+03  0.58049533141E+03  0.11250077016E+04  0.00000000000E+00 0. -1.
         22    1    1    2    0    0  0.73699442968E+03  0.12101338676E+04  0.10010299439E+04  0.17348330512E+04  0.00000000000E+00 0. -1.
<mgrwt>
<rscale>  0 0.28411680E+04</rscale>
<asrwt>0</asrwt>
<pdfrwt beam="1">  1        1 0.39920458E+00 0.28411680E+04</pdfrwt>
<pdfrwt beam="2">  1       -1 0.11964970E+00 0.28411680E+04</pdfrwt>
<totfact> 0.62556298E-01</totfact>
</mgrwt>
</event>
<event>
 6    1  0.9364335E-007  0.2736220E+04  0.7818608E-02  0.8323348E-01
         -1   -1    0    0    0  501 -0.00000000000E+00  0.00000000000E+00  0.89183695384E+03  0.89183695384E+03  0.00000000000E+00 0.  1.
          1   -1    0    0  501    0  0.00000000000E+00 -0.00000000000E+00 -0.20987296399E+04  0.20987296399E+04  0.00000000000E+00 0. -1.
         23    2    1    2    0    0  0.12941504269E+04 -0.46949035642E+02 -0.12574599263E+03  0.13035847586E+04  0.80570644972E+02 0.  0.
         11    1    3    3    0    0  0.85986575417E+03 -0.62526483545E+02 -0.10526200233E+03  0.86853829246E+03  0.00000000000E+00 0. -1.
        -11    1    3    3    0    0  0.43428467271E+03  0.15577447904E+02 -0.20483990303E+02  0.43504646613E+03  0.00000000000E+00 0.  1.
         22    1    1    2    0    0 -0.12941504269E+04  0.46949035642E+02 -0.10811466934E+04  0.16869818351E+04  0.00000000000E+00 0. -1.
<mgrwt>
<rscale>  0 0.27362198E+04</rscale>
<asrwt>0</asrwt>
<pdfrwt beam="1">  1        1 0.32288149E+00 0.27362198E+04</pdfrwt>
<pdfrwt beam="2">  1       -1 0.13720568E+00 0.27362198E+04</pdfrwt>
<totfact> 0.98180302E-01</totfact>
</mgrwt>
</event>
<event>
 6    1  0.9364335E-007  0.2695151E+04  0.7818608E-02  0.8336580E-01
         -2   -1    0    0    0  501 -0.00000000000E+00  0.00000000000E+00  0.17868657518E+04  0.17868657518E+04  0.00000000000E+00 0.  1.
          2   -1    0    0  501    0  0.00000000000E+00 -0.00000000000E+00 -0.10162820643E+04  0.10162820643E+04  0.00000000000E+00 0. -1.
         23    2    1    2    0    0 -0.12780048762E+04 -0.38873472859E+03  0.21403413621E+03  0.13560270348E+04  0.92669060633E+02 0.  0.
         13    1    3    3    0    0 -0.55667861485E+03 -0.15438480293E+03  0.48420750166E+02  0.57971572055E+03  0.00000000000E+00 0.  1.
        -13    1    3    3    0    0 -0.72132626137E+03 -0.23434992566E+03  0.16561338604E+03  0.77631131425E+03  0.00000000000E+00 0. -1.
         22    1    1    2    0    0  0.12780048762E+04  0.38873472859E+03  0.55654955129E+03  0.14471207814E+04  0.00000000000E+00 0.  1.
<mgrwt>
<rscale>  0 0.26951509E+04</rscale>
<asrwt>0</asrwt>
<pdfrwt beam="1">  1        2 0.15635109E+00 0.26951509E+04</pdfrwt>
<pdfrwt beam="2">  1       -2 0.27490242E+00 0.26951509E+04</pdfrwt>
<totfact> 0.97628737E-01</totfact>
</mgrwt>
</event>
<event>
 6    1  0.9364335E-007  0.1853410E+04  0.7818608E-02  0.8678401E-01
          1   -1    0    0  501    0  0.00000000000E+00  0.00000000000E+00  0.30481460567E+04  0.30481460567E+04  0.00000000000E+00 0. -1.
         -1   -1    0    0    0  501 -0.00000000000E+00 -0.00000000000E+00 -0.28173924351E+03  0.28173924351E+03  0.00000000000E+00 0.  1.
         23    2    1    2    0    0  0.41099590698E+03 -0.80850365354E+03  0.10654240285E+04  0.14022084011E+04  0.92001339249E+02 0.  0.
         11    1    3    3    0    0  0.25200266065E+03 -0.58093284574E+03  0.76702045414E+03  0.99463997974E+03  0.00000000000E+00 0. -1.
        -11    1    3    3    0    0  0.15899324633E+03 -0.22757080780E+03  0.29840357435E+03  0.40756842140E+03  0.00000000000E+00 0.  1.
         22    1    1    2    0    0 -0.41099590698E+03  0.80850365354E+03  0.17009827847E+04  0.19276768990E+04  0.00000000000E+00 0. -1.
<mgrwt>
<rscale>  0 0.18534102E+04</rscale>
<asrwt>0</asrwt>
<pdfrwt beam="1">  1        1 0.46894552E+00 0.18534102E+04</pdfrwt>
<pdfrwt beam="2">  1       -1 0.43344501E-01 0.18534102E+04</pdfrwt>
<totfact> 0.27269095E+00</totfact>
</mgrwt>
</event>
<event>
 6    1  0.9364335E-007  0.3969653E+04  0.7818608E-02  0.8010697E-01
         -1   -1    0    0    0  501 -0.00000000000E+00  0.00000000000E+00  0.87230225475E+03  0.87230225475E+03  0.00000000000E+00 0.  1.
          1   -1    0    0  501    0  0.00000000000E+00 -0.00000000000E+00 -0.45162505453E+04  0.45162505453E+04  0.00000000000E+00 0. -1.
         23    2    1    2    0    0  0.20686319175E+03  0.16299334194E+04 -0.31394026898E+03  0.16752754396E+04  0.92271199084E+02 0.  0.
         13    1    3    3    0    0  0.13335041603E+03  0.88353199907E+03 -0.12905015486E+03  0.90280954210E+03  0.00000000000E+00 0. -1.
        -13    1    3    3    0    0  0.73512775722E+02  0.74640142036E+03 -0.18489011413E+03  0.77246589751E+03  0.00000000000E+00 0.  1.
         22    1    1    2    0    0 -0.20686319175E+03 -0.16299334194E+04 -0.33300080216E+04  0.37132773605E+04  0.00000000000E+00 0. -1.
<mgrwt>
<rscale>  0 0.39696526E+04</rscale>
<asrwt>0</asrwt>
<pdfrwt beam="1">  1        1 0.69480779E+00 0.39696526E+04</pdfrwt>
<pdfrwt beam="2">  1       -1 0.13420034E+00 0.39696526E+04</pdfrwt>
<totfact> 0.11306476E-02</totfact>
</mgrwt>
</event>
<event>
 6    1  0.2104990E-006  0.4152298E+04  0.7818608E-02  0.7974509E-01
         -2   -1    0    0    0  501 -0.00000000000E+00  0.00000000000E+00  0.14965768686E+04  0.14965768686E+04  0.00000000000E+00 0.  1.
          2   -1    0    0  501    0  0.00000000000E+00 -0.00000000000E+00 -0.28801696615E+04  0.28801696615E+04  0.00000000000E+00 0. -1.
         23    2    1    2    0    0  0.45684336725E+01 -0.40492040998E+03 -0.28373804502E+04  0.28676143419E+04  0.92210548738E+02 0.  0.
         11    1    3    3    0    0  0.28595668238E+02 -0.20579131671E+03 -0.17043999751E+04  0.17170169054E+04  0.00000000000E+00 0.  1.
        -11    1    3    3    0    0 -0.24027234565E+02 -0.19912909327E+03 -0.11329804751E+04  0.11505974364E+04  0.00000000000E+00 0. -1.
         22    1    1    2    0    0 -0.45684336725E+01  0.40492040998E+03  0.14537876573E+04  0.15091321882E+04  0.00000000000E+00 0.  1.
<mgrwt>
<rscale>  0 0.41522983E+04</rscale>
<asrwt>0</asrwt>
<pdfrwt beam="1">  1        2 0.44310302E+00 0.41522983E+04</pdfrwt>
<pdfrwt beam="2">  1       -2 0.23024260E+00 0.41522983E+04</pdfrwt>
<totfact> 0.13713502E-01</totfact>
</mgrwt>
</event>
<event>
 6    1  0.9364335E-007  0.2656919E+04  0.7818608E-02  0.8349120E-01
          2   -1    0    0  501    0  0.00000000000E+00  0.00000000000E+00  0.23943517839E+04  0.23943517839E+04  0.00000000000E+00 0. -1.
         -2   -1    0    0    0  501 -0.00000000000E+00 -0.00000000000E+00 -0.73706985042E+03  0.73706985042E+03  0.00000000000E+00 0.  1.
         23    2    1    2    0    0  0.12596502851E+04 -0.22494659299E+03  0.41570970884E+03  0.13484966781E+04  0.91153269940E+02 0.  0.
         13    1    3    3    0    0  0.53224989430E+03 -0.14082256866E+03  0.18072831946E+03  0.57946843855E+03  0.00000000000E+00 0. -1.
        -13    1    3    3    0    0  0.72740039075E+03 -0.84124024331E+02  0.23498138938E+03  0.76902823959E+03  0.00000000000E+00 0.  1.
         22    1    1    2    0    0 -0.12596502851E+04  0.22494659299E+03  0.12415722246E+04  0.17829249561E+04  0.00000000000E+00 0. -1.
<mgrwt>
<rscale>  0 0.26569189E+04</rscale>
<asrwt>0</asrwt>
<pdfrwt beam="1">  1        2 0.36836181E+00 0.26569189E+04</pdfrwt>
<pdfrwt beam="2">  1       -2 0.11339536E+00 0.26569189E+04</pdfrwt>
<totfact> 0.21513892E+00</totfact>
</mgrwt>
</event>
<event>
 6    1  0.9364335E-007  0.2452882E+04  0.7818608E-02  0.8419966E-01
          2   -1    0    0  501    0  0.00000000000E+00  0.00000000000E+00  0.14596040480E+04  0.14596040480E+04  0.00000000000E+00 0. -1.
         -2   -1    0    0    0  501 -0.00000000000E+00 -0.00000000000E+00 -0.10305245676E+04  0.10305245676E+04  0.00000000000E+00 0.  1.
         23    2    1    2    0    0 -0.11093257409E+04 -0.49842419039E+03  0.67721451259E+02  0.12214245925E+04  0.90893164243E+02 0.  0.
         11    1    3    3    0    0 -0.69945359561E+03 -0.36073972244E+03  0.34053068181E+02  0.78773605428E+03  0.00000000000E+00 0. -1.
        -11    1    3    3    0    0 -0.40987214525E+03 -0.13768446795E+03  0.33668383078E+02  0.43368853822E+03  0.00000000000E+00 0.  1.
         22    1    1    2    0    0  0.11093257409E+04  0.49842419039E+03  0.36135802915E+03  0.12687040231E+04  0.00000000000E+00 0.  1.
<mgrwt>
<rscale>  0 0.24528822E+04</rscale>
<asrwt>0</asrwt>
<pdfrwt beam="1">  1        2 0.22455447E+00 0.24528822E+04</pdfrwt>
<pdfrwt beam="2">  1       -2 0.15854224E+00 0.24528822E+04</pdfrwt>
<totfact> 0.30943535E+00</totfact>
</mgrwt>
</event>
<event>
 6    1  0.9364335E-007  0.2766031E+04  0.7818608E-02  0.8313893E-01
          2   -1    0    0  501    0  0.00000000000E+00  0.00000000000E+00  0.14123961962E+04  0.14123961962E+04  0.00000000000E+00 0. -1.
         -2   -1    0    0    0  501 -0.00000000000E+00 -0.00000000000E+00 -0.13542462948E+04  0.13542462948E+04  0.00000000000E+00 0.  1.
         23    2    1    2    0    0 -0.77326284783E+03 -0.53349376718E+03 -0.98403903546E+03  0.13635356484E+04  0.91354308468E+02 0.  0.
         11    1    3    3    0    0 -0.23036125255E+03 -0.21107285025E+03 -0.32287098236E+03  0.44929247272E+03  0.00000000000E+00 0. -1.
        -11    1    3    3    0    0 -0.54290159528E+03 -0.32242091693E+03 -0.66116805309E+03  0.91424317567E+03  0.00000000000E+00 0.  1.
         22    1    1    2    0    0  0.77326284783E+03  0.53349376718E+03  0.10421889369E+04  0.14031068425E+04  0.00000000000E+00 0. -1.
<mgrwt>
<rscale>  0 0.27660313E+04</rscale>
<asrwt>0</asrwt>
<pdfrwt beam="1">  1        2 0.21729172E+00 0.27660313E+04</pdfrwt>
<pdfrwt beam="2">  1       -2 0.20834558E+00 0.27660313E+04</pdfrwt>
<totfact> 0.14579094E+00</totfact>
</mgrwt>
</event>
<event>
 6    1  0.9364335E-007  0.3021597E+04  0.7818608E-02  0.8237590E-01
         -2   -1    0    0    0  501 -0.00000000000E+00  0.00000000000E+00  0.79914591332E+03  0.79914591332E+03  0.00000000000E+00 0.  1.
          2   -1    0    0  501    0  0.00000000000E+00 -0.00000000000E+00 -0.28561894246E+04  0.28561894246E+04  0.00000000000E+00 0. -1.
         23    2    1    2    0    0  0.13229586231E+04 -0.71067635275E+03 -0.12144053674E+04  0.19333250480E+04  0.87663835742E+02 0.  0.
         11    1    3    3    0    0  0.72261091326E+03 -0.35736893196E+03 -0.60733456391E+03  0.10093237132E+04  0.00000000000E+00 0. -1.
        -11    1    3    3    0    0  0.60034770988E+03 -0.35330742079E+03 -0.60707080350E+03  0.92400133485E+03  0.00000000000E+00 0.  1.
         22    1    1    2    0    0 -0.13229586231E+04  0.71067635275E+03 -0.84263814387E+03  0.17220102899E+04  0.00000000000E+00 0.  1.
<mgrwt>
<rscale>  0 0.30215970E+04</rscale>
<asrwt>0</asrwt>
<pdfrwt beam="1">  1        2 0.43941376E+00 0.30215970E+04</pdfrwt>
<pdfrwt beam="2">  1       -2 0.12294552E+00 0.30215970E+04</pdfrwt>
<totfact> 0.91241102E-01</totfact>
</mgrwt>
</event>
<event>
 6    1  0.9364335E-007  0.1065240E+04  0.7818608E-02  0.9239749E-01
          1   -1    0    0  501    0  0.00000000000E+00  0.00000000000E+00  0.83649940233E+03  0.83649940233E+03  0.00000000000E+00 0. -1.
         -1   -1    0    0    0  501 -0.00000000000E+00 -0.00000000000E+00 -0.33913265303E+03  0.33913265303E+03  0.00000000000E+00 0.  1.
         23    2    1    2    0    0  0.23052125290E+03 -0.36548211404E+03  0.58670694656E+03  0.73438507852E+03  0.91537853893E+02 0.  0.
         11    1    3    3    0    0  0.51057118136E+02 -0.92317462991E+02  0.21452440170E+03  0.23906079187E+03  0.00000000000E+00 0.  1.
        -11    1    3    3    0    0  0.17946413477E+03 -0.27316465105E+03  0.37218254486E+03  0.49532428665E+03  0.00000000000E+00 0. -1.
         22    1    1    2    0    0 -0.23052125290E+03  0.36548211404E+03 -0.89340197264E+02  0.44124697684E+03  0.00000000000E+00 0.  1.
<mgrwt>
<rscale>  0 0.10652404E+04</rscale>
<asrwt>0</asrwt>
<pdfrwt beam="1">  1        1 0.12869222E+00 0.10652404E+04</pdfrwt>
<pdfrwt beam="2">  1       -1 0.52174254E-01 0.10652404E+04</pdfrwt>
<totfact> 0.75960146E+01</totfact>
</mgrwt>
</event>
<event>
 6    1  0.9364335E-007  0.9317914E+03  0.7818608E-02  0.9386691E-01
         -2   -1    0    0    0  501 -0.00000000000E+00  0.00000000000E+00  0.68507456322E+02  0.68507456322E+02  0.00000000000E+00 0.  1.
          2   -1    0    0  501    0  0.00000000000E+00 -0.00000000000E+00 -0.31683968364E+04  0.31683968364E+04  0.00000000000E+00 0. -1.
         23    2    1    2    0    0 -0.24084734893E+03  0.35425350714E+03 -0.95302759855E+03  0.10477221391E+04  0.77182150297E+02 0.  0.
         11    1    3    3    0    0 -0.13187939428E+02  0.67849211812E+02 -0.13794010889E+03  0.15428840180E+03  0.00000000000E+00 0.  1.
        -11    1    3    3    0    0 -0.22765940951E+03  0.28640429533E+03 -0.81508748966E+03  0.89343373728E+03  0.00000000000E+00 0. -1.
         22    1    1    2    0    0  0.24084734893E+03 -0.35425350714E+03 -0.21468617815E+04  0.21891821537E+04  0.00000000000E+00 0. -1.
<mgrwt>
<rscale>  0 0.93179141E+03</rscale>
<asrwt>0</asrwt>
<pdfrwt beam="1">  1        2 0.48744554E+00 0.93179141E+03</pdfrwt>
<pdfrwt beam="2">  1       -2 0.10539612E-01 0.93179141E+03</pdfrwt>
<totfact> 0.88981731E+01</totfact>
</mgrwt>
</event>
<event>
 6    1  0.9364335E-007  0.1114535E+04  0.7818608E-02  0.9191139E-01
         -2   -1    0    0    0  501 -0.00000000000E+00  0.00000000000E+00  0.22695765588E+03  0.22695765588E+03  0.00000000000E+00 0.  1.
          2   -1    0    0  501    0  0.00000000000E+00 -0.00000000000E+00 -0.13683051318E+04  0.13683051318E+04  0.00000000000E+00 0. -1.
         23    2    1    2    0    0  0.24262038952E+03  0.11138780199E+03  0.12033322540E+03  0.30564653161E+03  0.87566096796E+02 0.  0.
         13    1    3    3    0    0  0.10052981343E+03  0.92065197011E+02  0.44278748626E+02  0.14332777633E+03  0.00000000000E+00 0. -1.
        -13    1    3    3    0    0  0.14209057609E+03  0.19322604974E+02  0.76054476775E+02  0.16231875528E+03  0.00000000000E+00 0.  1.
         22    1    1    2    0    0 -0.24262038952E+03 -0.11138780199E+03 -0.12616807013E+04  0.12896162561E+04  0.00000000000E+00 0. -1.
<mgrwt>
<rscale>  0 0.11145355E+04</rscale>
<asrwt>0</asrwt>
<pdfrwt beam="1">  1        2 0.21050848E+00 0.11145355E+04</pdfrwt>
<pdfrwt beam="2">  1       -2 0.34916563E-01 0.11145355E+04</pdfrwt>
<totfact> 0.11510310E+02</totfact>
</mgrwt>
</event>
<event>
 6    1  0.9364335E-007  0.7476167E+03  0.7818608E-02  0.9639097E-01
          1   -1    0    0  501    0  0.00000000000E+00  0.00000000000E+00  0.14981096102E+04  0.14981096102E+04  0.00000000000E+00 0. -1.
         -1   -1    0    0    0  501 -0.00000000000E+00 -0.00000000000E+00 -0.93272676794E+02  0.93272676794E+02  0.00000000000E+00 0.  1.
         23    2    1    2    0    0 -0.99803659648E+02  0.20327947559E+03  0.13309296506E+04  0.13531689328E+04  0.91701199948E+02 0.  0.
         13    1    3    3    0    0 -0.59919949426E+02  0.97788936054E+02  0.91724186983E+03  0.92438397007E+03  0.00000000000E+00 0.  1.
        -13    1    3    3    0    0 -0.39883710222E+02  0.10549053954E+03  0.41368778079E+03  0.42878496271E+03  0.00000000000E+00 0. -1.
         22    1    1    2    0    0  0.99803659648E+02 -0.20327947559E+03  0.73907282784E+02  0.23821335421E+03  0.00000000000E+00 0.  1.
<mgrwt>
<rscale>  0 0.74761673E+03</rscale>
<asrwt>0</asrwt>
<pdfrwt beam="1">  1        1 0.23047838E+00 0.74761673E+03</pdfrwt>
<pdfrwt beam="2">  1       -1 0.14349644E-01 0.74761673E+03</pdfrwt>
<totfact> 0.23628262E+02</totfact>
</mgrwt>
</event>
<event>
 6    1  0.9364335E-007  0.7412698E+03  0.7818608E-02  0.9649147E-01
          1   -1    0    0  501    0  0.00000000000E+00  0.00000000000E+00  0.38397619448E+04  0.38397619448E+04  0.00000000000E+00 0. -1.
         -1   -1    0    0    0  501 -0.00000000000E+00 -0.00000000000E+00 -0.35775711436E+02  0.35775711436E+02  0.00000000000E+00 0.  1.
         23    2    1    2    0    0 -0.23932644850E+03  0.27463678298E+03  0.18163611336E+04  0.18548060935E+04  0.91844244393E+02 0.  0.
         11    1    3    3    0    0 -0.27184778177E+01  0.46213457699E+02  0.25788855037E+03  0.26201064522E+03  0.00000000000E+00 0.  1.
        -11    1    3    3    0    0 -0.23660797068E+03  0.22842332528E+03  0.15584725832E+04  0.15927954483E+04  0.00000000000E+00 0. -1.
         22    1    1    2    0    0  0.23932644850E+03 -0.27463678298E+03  0.19876250997E+04  0.20207315627E+04  0.00000000000E+00 0. -1.
<mgrwt>
<rscale>  0 0.74126976E+03</rscale>
<asrwt>0</asrwt>
<pdfrwt beam="1">  1        1 0.59073228E+00 0.74126976E+03</pdfrwt>
<pdfrwt beam="2">  1       -1 0.55039586E-02 0.74126976E+03</pdfrwt>
<totfact> 0.23063561E+01</totfact>
</mgrwt>
</event>
<event>
 6    1  0.9364335E-007  0.4274740E+04  0.7818608E-02  0.7951306E-01
         -1   -1    0    0    0  501 -0.00000000000E+00  0.00000000000E+00  0.27030958189E+04  0.27030958189E+04  0.00000000000E+00 0.  1.
          1   -1    0    0  501    0  0.00000000000E+00 -0.00000000000E+00 -0.16900436227E+04  0.16900436227E+04  0.00000000000E+00 0. -1.
         23    2    1    2    0    0  0.99864844545E+02 -0.21339938896E+04  0.49503633405E+03  0.21949030254E+04  0.92926912111E+02 0.  0.
         11    1    3    3    0    0 -0.94884163954E-01 -0.57983458406E+03  0.16635424572E+03  0.60322623364E+03  0.00000000000E+00 0. -1.
        -11    1    3    3    0    0  0.99959728709E+02 -0.15541593055E+04  0.32868208833E+03  0.15916767918E+04  0.00000000000E+00 0.  1.
         22    1    1    2    0    0 -0.99864844545E+02  0.21339938896E+04  0.51801586214E+03  0.21982364162E+04  0.00000000000E+00 0. -1.
<mgrwt>
<rscale>  0 0.42747397E+04</rscale>
<asrwt>0</asrwt>
<pdfrwt beam="1">  1        1 0.26000671E+00 0.42747397E+04</pdfrwt>
<pdfrwt beam="2">  1       -1 0.41586089E+00 0.42747397E+04</pdfrwt>
<totfact> 0.20622435E-02</totfact>
</mgrwt>
</event>
<event>
 6    1  0.9364335E-007  0.1246516E+04  0.7818608E-02  0.9073088E-01
         -1   -1    0    0    0  501 -0.00000000000E+00  0.00000000000E+00  0.28104030592E+03  0.28104030592E+03  0.00000000000E+00 0.  1.
          1   -1    0    0  501    0  0.00000000000E+00 -0.00000000000E+00 -0.13821887651E+04  0.13821887651E+04  0.00000000000E+00 0. -1.
         23    2    1    2    0    0  0.10018203452E+02 -0.59295174585E+03 -0.31275010534E+03  0.67668758602E+03  0.91658733245E+02 0.  0.
         11    1    3    3    0    0  0.24688268458E+02 -0.22881459194E+03 -0.16625686664E+03  0.28391367313E+03  0.00000000000E+00 0.  1.
        -11    1    3    3    0    0 -0.14670065006E+02 -0.36413715391E+03 -0.14649323869E+03  0.39277391289E+03  0.00000000000E+00 0. -1.
         22    1    1    2    0    0 -0.10018203452E+02  0.59295174585E+03 -0.78839835383E+03  0.98654148500E+03  0.00000000000E+00 0. -1.
<mgrwt>
<rscale>  0 0.12465164E+04</rscale>
<asrwt>0</asrwt>
<pdfrwt beam="1">  1        1 0.21264442E+00 0.12465164E+04</pdfrwt>
<pdfrwt beam="2">  1       -1 0.43236971E-01 0.12465164E+04</pdfrwt>
<totfact> 0.41144349E+01</totfact>
</mgrwt>
</event>
<event>
 6    1  0.9364335E-007  0.1335998E+04  0.7818608E-02  0.9001496E-01
         -3   -1    0    0    0  501 -0.00000000000E+00  0.00000000000E+00  0.72277165812E+03  0.72277165812E+03  0.00000000000E+00 0.  1.
          3   -1    0    0  501    0  0.00000000000E+00 -0.00000000000E+00 -0.61737677614E+03  0.61737677614E+03  0.00000000000E+00 0. -1.
         23    2    1    2    0    0  0.38472379364E+03  0.20473378491E+03  0.55662327406E+03  0.71282444946E+03  0.91437992411E+02 0.  0.
         13    1    3    3    0    0  0.17828145898E+03  0.90291923350E+02  0.18350951203E+03  0.27131651451E+03  0.00000000000E+00 0.  1.
        -13    1    3    3    0    0  0.20644233466E+03  0.11444186156E+03  0.37311376203E+03  0.44150793496E+03  0.00000000000E+00 0. -1.
         22    1    1    2    0    0 -0.38472379364E+03 -0.20473378491E+03 -0.45122839209E+03  0.62732398480E+03  0.00000000000E+00 0. -1.
<mgrwt>
<rscale>  0 0.13359977E+04</rscale>
<asrwt>0</asrwt>
<pdfrwt beam="1">  1        3 0.94981043E-01 0.13359977E+04</pdfrwt>
<pdfrwt beam="2">  1       -3 0.11119564E+00 0.13359977E+04</pdfrwt>
<totfact> 0.17166837E+00</totfact>
</mgrwt>
</event>
<event>
 6    1  0.9364335E-007  0.3010709E+03  0.7818608E-02  0.1084706E+00
          1   -1    0    0  501    0  0.00000000000E+00  0.00000000000E+00  0.48149624256E+02  0.48149624256E+02  0.00000000000E+00 0. -1.
         -1   -1    0    0    0  501 -0.00000000000E+00 -0.00000000000E+00 -0.47063554958E+03  0.47063554958E+03  0.00000000000E+00 0.  1.
         23    2    1    2    0    0 -0.10720044813E+03  0.43641069442E+02 -0.35631137706E+03  0.38546019546E+03  0.90693361605E+02 0.  0.
         11    1    3    3    0    0 -0.54021805670E+02  0.27855286051E+02 -0.65302680133E+02  0.89211616292E+02  0.00000000000E+00 0. -1.
        -11    1    3    3    0    0 -0.53178642462E+02  0.15785783391E+02 -0.29100869693E+03  0.29624857917E+03  0.00000000000E+00 0.  1.
         22    1    1    2    0    0  0.10720044813E+03 -0.43641069442E+02 -0.66174548266E+02  0.13332497838E+03  0.00000000000E+00 0. -1.
<mgrwt>
<rscale>  0 0.30107092E+03</rscale>
<asrwt>0</asrwt>
<pdfrwt beam="1">  1        1 0.74076343E-02 0.30107092E+03</pdfrwt>
<pdfrwt beam="2">  1       -1 0.72405471E-01 0.30107092E+03</pdfrwt>
<totfact> 0.19362529E+03</totfact>
</mgrwt>
</event>
<event>
 6    1  0.9364335E-007  0.2331831E+04  0.7818608E-02  0.8465475E-01
          1   -1    0    0  501    0  0.00000000000E+00  0.00000000000E+00  0.16249887784E+04  0.16249887784E+04  0.00000000000E+00 0. -1.
         -1   -1    0    0    0  501 -0.00000000000E+00 -0.00000000000E+00 -0.83653438771E+03  0.83653438771E+03  0.00000000000E+00 0.  1.
         23    2    1    2    0    0 -0.86607544683E+03 -0.76164568892E+03  0.56143762480E+03  0.12860541334E+04  0.92369867018E+02 0.  0.
         11    1    3    3    0    0 -0.47096802875E+03 -0.46367897927E+03  0.29140135660E+03  0.72230452757E+03  0.00000000000E+00 0. -1.
        -11    1    3    3    0    0 -0.39510741807E+03 -0.29796670965E+03  0.27003626820E+03  0.56374960578E+03  0.00000000000E+00 0.  1.
         22    1    1    2    0    0  0.86607544683E+03  0.76164568892E+03  0.22701676592E+03  0.11754690328E+04  0.00000000000E+00 0. -1.
<mgrwt>
<rscale>  0 0.23318310E+04</rscale>
<asrwt>0</asrwt>
<pdfrwt beam="1">  1        1 0.24999827E+00 0.23318310E+04</pdfrwt>
<pdfrwt beam="2">  1       -1 0.12869760E+00 0.23318310E+04</pdfrwt>
<totfact> 0.25151637E+00</totfact>
</mgrwt>
</event>
<event>
 6    1  0.9364335E-007  0.1626240E+04  0.7818608E-02  0.8804588E-01
          1   -1    0    0  501    0  0.00000000000E+00  0.00000000000E+00  0.25023250631E+03  0.25023250631E+03  0.00000000000E+00 0. -1.
         -1   -1    0    0    0  501 -0.00000000000E+00 -0.00000000000E+00 -0.26422000834E+04  0.26422000834E+04  0.00000000000E+00 0.  1.
         23    2    1    2    0    0  0.39651697484E+03  0.26340441003E+03 -0.23665587160E+04  0.24157217709E+04  0.92216721915E+02 0.  0.
         11    1    3    3    0    0  0.29363799771E+03  0.15671703356E+03 -0.14901606376E+04  0.15268798997E+04  0.00000000000E+00 0. -1.
        -11    1    3    3    0    0  0.10287897714E+03  0.10668737647E+03 -0.87639807835E+03  0.88884187118E+03  0.00000000000E+00 0.  1.
         22    1    1    2    0    0 -0.39651697484E+03 -0.26340441003E+03 -0.25408861153E+02  0.47671081882E+03  0.00000000000E+00 0. -1.
<mgrwt>
<rscale>  0 0.16262403E+04</rscale>
<asrwt>0</asrwt>
<pdfrwt beam="1">  1        1 0.38497309E-01 0.16262403E+04</pdfrwt>
<pdfrwt beam="2">  1       -1 0.40649231E+00 0.16262403E+04</pdfrwt>
<totfact> 0.69020978E-01</totfact>
</mgrwt>
</event>
<event>
 6    1  0.9364335E-007  0.3117145E+04  0.7818608E-02  0.8211048E-01
          2   -1    0    0  501    0  0.00000000000E+00  0.00000000000E+00  0.18844943437E+04  0.18844943437E+04  0.00000000000E+00 0. -1.
         -2   -1    0    0    0  501 -0.00000000000E+00 -0.00000000000E+00 -0.12890188289E+04  0.12890188289E+04  0.00000000000E+00 0.  1.
         23    2    1    2    0    0  0.58472672785E+03  0.14260776526E+04  0.72115248361E+02  0.15457819952E+04  0.92943800185E+02 0.  0.
         13    1    3    3    0    0  0.44110469475E+03  0.11711003752E+04  0.62559720274E+02  0.12529817074E+04  0.00000000000E+00 0.  1.
        -13    1    3    3    0    0  0.14362203310E+03  0.25497727741E+03  0.95555280864E+01  0.29280028775E+03  0.00000000000E+00 0. -1.
         22    1    1    2    0    0 -0.58472672785E+03 -0.14260776526E+04  0.52336026642E+03  0.16277311774E+04  0.00000000000E+00 0.  1.
<mgrwt>
<rscale>  0 0.31171453E+04</rscale>
<asrwt>0</asrwt>
<pdfrwt beam="1">  1        2 0.28992221E+00 0.31171453E+04</pdfrwt>
<pdfrwt beam="2">  1       -2 0.19831059E+00 0.31171453E+04</pdfrwt>
<totfact> 0.89613125E-01</totfact>
</mgrwt>
</event>
<event>
 6    1  0.9364335E-007  0.2146779E+04  0.7818608E-02  0.8540912E-01
          2   -1    0    0  501    0  0.00000000000E+00  0.00000000000E+00  0.24839404383E+04  0.24839404383E+04  0.00000000000E+00 0. -1.
         -2   -1    0    0    0  501 -0.00000000000E+00 -0.00000000000E+00 -0.46384551368E+03  0.46384551368E+03  0.00000000000E+00 0.  1.
         23    2    1    2    0    0  0.39124999694E+03 -0.88809611202E+03  0.16353402587E+04  0.19038379565E+04  0.92032269710E+02 0.  0.
         13    1    3    3    0    0  0.22453055550E+03 -0.40365476974E+03  0.74240909615E+03  0.87436972130E+03  0.00000000000E+00 0. -1.
        -13    1    3    3    0    0  0.16671944144E+03 -0.48444134228E+03  0.89293116256E+03  0.10294682352E+04  0.00000000000E+00 0.  1.
         22    1    1    2    0    0 -0.39124999694E+03  0.88809611202E+03  0.38475466593E+03  0.10439479955E+04  0.00000000000E+00 0.  1.
<mgrwt>
<rscale>  0 0.21467786E+04</rscale>
<asrwt>0</asrwt>
<pdfrwt beam="1">  1        2 0.38214468E+00 0.21467786E+04</pdfrwt>
<pdfrwt beam="2">  1       -2 0.71360849E-01 0.21467786E+04</pdfrwt>
<totfact> 0.58197270E+00</totfact>
</mgrwt>
</event>
<event>
 6    1  0.9364335E-007  0.1709727E+04  0.7818608E-02  0.8755836E-01
          1   -1    0    0  501    0  0.00000000000E+00  0.00000000000E+00  0.16817671180E+04  0.16817671180E+04  0.00000000000E+00 0. -1.
         -1   -1    0    0    0  501 -0.00000000000E+00 -0.00000000000E+00 -0.43453771019E+03  0.43453771019E+03  0.00000000000E+00 0.  1.
         23    2    1    2    0    0 -0.63090299527E+03 -0.52127054836E+03  0.92011959703E+03  0.12349635763E+04  0.93559541751E+02 0.  0.
         13    1    3    3    0    0 -0.36825106951E+03 -0.25074317250E+03  0.53077721208E+03  0.69296856900E+03  0.00000000000E+00 0.  1.
        -13    1    3    3    0    0 -0.26265192575E+03 -0.27052737586E+03  0.38934238494E+03  0.54199500727E+03  0.00000000000E+00 0. -1.
         22    1    1    2    0    0  0.63090299527E+03  0.52127054836E+03  0.32710981078E+03  0.88134125192E+03  0.00000000000E+00 0.  1.
<mgrwt>
<rscale>  0 0.17097266E+04</rscale>
<asrwt>0</asrwt>
<pdfrwt beam="1">  1        1 0.25873340E+00 0.17097266E+04</pdfrwt>
<pdfrwt beam="2">  1       -1 0.66851956E-01 0.17097266E+04</pdfrwt>
<totfact> 0.10571236E+01</totfact>
</mgrwt>
</event>
<event>
 6    1  0.9364335E-007  0.1675096E+04  0.7818608E-02  0.8775697E-01
          2   -1    0    0  501    0  0.00000000000E+00  0.00000000000E+00  0.11285201425E+04  0.11285201425E+04  0.00000000000E+00 0. -1.
         -2   -1    0    0    0  501 -0.00000000000E+00 -0.00000000000E+00 -0.62159902458E+03  0.62159902458E+03  0.00000000000E+00 0.  1.
         23    2    1    2    0    0 -0.78226615495E+03  0.29029629009E+03  0.22145497348E+03  0.86824435012E+03  0.92702065825E+02 0.  0.
         13    1    3    3    0    0 -0.37501802950E+03  0.11921671613E+03  0.14817455116E+03  0.42048406090E+03  0.00000000000E+00 0.  1.
        -13    1    3    3    0    0 -0.40724812544E+03  0.17107957396E+03  0.73280422326E+02  0.44776028922E+03  0.00000000000E+00 0. -1.
         22    1    1    2    0    0  0.78226615495E+03 -0.29029629009E+03  0.28546614446E+03  0.88187481700E+03  0.00000000000E+00 0. -1.
<mgrwt>
<rscale>  0 0.16750964E+04</rscale>
<asrwt>0</asrwt>
<pdfrwt beam="1">  1        2 0.17361848E+00 0.16750964E+04</pdfrwt>
<pdfrwt beam="2">  1       -2 0.95630619E-01 0.16750964E+04</pdfrwt>
<totfact> 0.18310124E+01</totfact>
</mgrwt>
</event>
<event>
 6    1  0.9364335E-007  0.2306382E+04  0.7818608E-02  0.8475409E-01
         -2   -1    0    0    0  501 -0.00000000000E+00  0.00000000000E+00  0.46494704910E+03  0.46494704910E+03  0.00000000000E+00 0.  1.
          2   -1    0    0  501    0  0.00000000000E+00 -0.00000000000E+00 -0.28602166753E+04  0.28602166753E+04  0.00000000000E+00 0. -1.
         23    2    1    2    0    0  0.71633341950E+03  0.55109085358E+02  0.97555691508E+02  0.73087217491E+03  0.92121897132E+02 0.  0.
         13    1    3    3    0    0  0.57636499837E+03  0.37547885320E+02  0.41495966789E+02  0.57907544440E+03  0.00000000000E+00 0.  1.
        -13    1    3    3    0    0  0.13996842112E+03  0.17561200037E+02  0.56059724719E+02  0.15179673051E+03  0.00000000000E+00 0. -1.
         22    1    1    2    0    0 -0.71633341950E+03 -0.55109085358E+02 -0.24928253177E+04  0.25942915495E+04  0.00000000000E+00 0. -1.
<mgrwt>
<rscale>  0 0.23063818E+04</rscale>
<asrwt>0</asrwt>
<pdfrwt beam="1">  1        2 0.44003333E+00 0.23063818E+04</pdfrwt>
<pdfrwt beam="2">  1       -2 0.71530315E-01 0.23063818E+04</pdfrwt>
<totfact> 0.34157709E+00</totfact>
</mgrwt>
</event>
<event>
 6    1  0.9364335E-007  0.2555068E+04  0.7818608E-02  0.8383626E-01
          2   -1    0    0  501    0  0.00000000000E+00  0.00000000000E+00  0.30602206228E+04  0.30602206228E+04  0.00000000000E+00 0. -1.
         -2   -1    0    0    0  501 -0.00000000000E+00 -0.00000000000E+00 -0.53332537058E+03  0.53332537058E+03  0.00000000000E+00 0.  1.
         23    2    1    2    0    0  0.42187720100E+03  0.50686936137E+03  0.28012775051E+04  0.28792753563E+04  0.90410145339E+02 0.  0.
         11    1    3    3    0    0  0.24915867246E+03  0.36558120341E+03  0.18413630525E+04  0.18937654426E+04  0.00000000000E+00 0. -1.
        -11    1    3    3    0    0  0.17271852854E+03  0.14128815796E+03  0.95991445260E+03  0.98550991369E+03  0.00000000000E+00 0.  1.
         22    1    1    2    0    0 -0.42187720100E+03 -0.50686936137E+03 -0.27438225294E+03  0.71427063705E+03  0.00000000000E+00 0.  1.
<mgrwt>
<rscale>  0 0.25550681E+04</rscale>
<asrwt>0</asrwt>
<pdfrwt beam="1">  1        2 0.47080316E+00 0.25550681E+04</pdfrwt>
<pdfrwt beam="2">  1       -2 0.82050059E-01 0.25550681E+04</pdfrwt>
<totfact> 0.18493252E+00</totfact>
</mgrwt>
</event>
<event>
 6    1  0.9364335E-007  0.1048423E+04  0.7818608E-02  0.9256973E-01
          1   -1    0    0  501    0  0.00000000000E+00  0.00000000000E+00  0.36747713454E+03  0.36747713454E+03  0.00000000000E+00 0. -1.
         -1   -1    0    0    0  501 -0.00000000000E+00 -0.00000000000E+00 -0.74779578890E+03  0.74779578890E+03  0.00000000000E+00 0.  1.
         23    2    1    2    0    0  0.46938609126E+02 -0.13198757668E+03  0.34151543230E+03  0.37997135123E+03  0.90119275562E+02 0.  0.
         13    1    3    3    0    0 -0.95262693165E+01 -0.62209907476E+02  0.70630839898E+02  0.94601997548E+02  0.00000000000E+00 0.  1.
        -13    1    3    3    0    0  0.56464878442E+02 -0.69777669201E+02  0.27088459241E+03  0.28536935368E+03  0.00000000000E+00 0. -1.
         22    1    1    2    0    0 -0.46938609126E+02  0.13198757668E+03 -0.72183408667E+03  0.73530157221E+03  0.00000000000E+00 0.  1.
<mgrwt>
<rscale>  0 0.10484233E+04</rscale>
<asrwt>0</asrwt>
<pdfrwt beam="1">  1        1 0.56534944E-01 0.10484233E+04</pdfrwt>
<pdfrwt beam="2">  1       -1 0.11504551E+00 0.10484233E+04</pdfrwt>
<totfact> 0.46058619E+01</totfact>
</mgrwt>
</event>
<event>
 6    1  0.9364335E-007  0.1485321E+04  0.7818608E-02  0.8894274E-01
         -2   -1    0    0    0  501 -0.00000000000E+00  0.00000000000E+00  0.10873969293E+04  0.10873969293E+04  0.00000000000E+00 0.  1.
          2   -1    0    0  501    0  0.00000000000E+00 -0.00000000000E+00 -0.50721540162E+03  0.50721540162E+03  0.00000000000E+00 0. -1.
         23    2    1    2    0    0 -0.26300258278E+03 -0.30543022272E+03 -0.37503307780E+03  0.55784190213E+03  0.89887701207E+02 0.  0.
         13    1    3    3    0    0 -0.15890308708E+03 -0.20596636741E+03 -0.29423222473E+03  0.39274029289E+03  0.00000000000E+00 0.  1.
        -13    1    3    3    0    0 -0.10409949570E+03 -0.99463855314E+02 -0.80800853074E+02  0.16510160925E+03  0.00000000000E+00 0. -1.
         22    1    1    2    0    0  0.26300258278E+03  0.30543022272E+03  0.95521460546E+03  0.10367704288E+04  0.00000000000E+00 0.  1.
<mgrwt>
<rscale>  0 0.14853208E+04</rscale>
<asrwt>0</asrwt>
<pdfrwt beam="1">  1        2 0.78033139E-01 0.14853208E+04</pdfrwt>
<pdfrwt beam="2">  1       -2 0.16729184E+00 0.14853208E+04</pdfrwt>
<totfact> 0.13040568E+01</totfact>
</mgrwt>
</event>
<event>
 6    1  0.9364335E-007  0.5953715E+04  0.7818608E-02  0.7696167E-01
          2   -1    0    0  501    0  0.00000000000E+00  0.00000000000E+00  0.47697834694E+04  0.47697834694E+04  0.00000000000E+00 0. -1.
         -2   -1    0    0    0  501 -0.00000000000E+00 -0.00000000000E+00 -0.18578789863E+04  0.18578789863E+04  0.00000000000E+00 0.  1.
         23    2    1    2    0    0 -0.10758200743E+04 -0.40833742490E+03  0.45117207321E+04  0.46569924388E+04  0.88466524634E+02 0.  0.
         13    1    3    3    0    0 -0.16016197277E+03 -0.34982156659E+02  0.72302880614E+03  0.74138132113E+03  0.00000000000E+00 0.  1.
        -13    1    3    3    0    0 -0.91565810157E+03 -0.37335526824E+03  0.37886919259E+04  0.39156111177E+04  0.00000000000E+00 0. -1.
         22    1    1    2    0    0  0.10758200743E+04  0.40833742490E+03 -0.15998162489E+04  0.19706700169E+04  0.00000000000E+00 0.  1.
<mgrwt>
<rscale>  0 0.59537150E+04</rscale>
<asrwt>0</asrwt>
<pdfrwt beam="1">  1        2 0.73381284E+00 0.59537150E+04</pdfrwt>
<pdfrwt beam="2">  1       -2 0.28582754E+00 0.59537150E+04</pdfrwt>
<totfact> 0.16595164E-03</totfact>
</mgrwt>
</event>
<event>
 6    1  0.9364335E-007  0.4506292E+04  0.7818608E-02  0.7909536E-01
         -2   -1    0    0    0  501 -0.00000000000E+00  0.00000000000E+00  0.15944586731E+04  0.15944586731E+04  0.00000000000E+00 0.  1.
          2   -1    0    0  501    0  0.00000000000E+00 -0.00000000000E+00 -0.31839441204E+04  0.31839441204E+04  0.00000000000E+00 0. -1.
         23    2    1    2    0    0 -0.16020073814E+04 -0.13642018474E+04  0.56632414982E+02  0.21068529910E+04  0.90266077994E+02 0.  0.
         13    1    3    3    0    0 -0.67755396722E+03 -0.58435455353E+03 -0.20198631452E+02  0.89496234974E+03  0.00000000000E+00 0.  1.
        -13    1    3    3    0    0 -0.92445341414E+03 -0.77984729391E+03  0.76831046435E+02  0.12118906413E+04  0.00000000000E+00 0. -1.
         22    1    1    2    0    0  0.16020073814E+04  0.13642018474E+04 -0.16461178622E+04  0.26715498024E+04  0.00000000000E+00 0. -1.
<mgrwt>
<rscale>  0 0.45062922E+04</rscale>
<asrwt>0</asrwt>
<pdfrwt beam="1">  1        2 0.48983756E+00 0.45062922E+04</pdfrwt>
<pdfrwt beam="2">  1       -2 0.24530133E+00 0.45062922E+04</pdfrwt>
<totfact> 0.69041572E-02</totfact>
</mgrwt>
</event>
<event>
 6    1  0.9364335E-007  0.2308548E+04  0.7818608E-02  0.8474558E-01
          2   -1    0    0  501    0  0.00000000000E+00  0.00000000000E+00  0.19537923454E+04  0.19537923454E+04  0.00000000000E+00 0. -1.
         -2   -1    0    0    0  501 -0.00000000000E+00 -0.00000000000E+00 -0.68192954298E+03  0.68192954298E+03  0.00000000000E+00 0.  1.
         23    2    1    2    0    0  0.59891687162E+03 -0.63760438545E+03  0.14935377772E+04  0.17332915221E+04  0.91671353762E+02 0.  0.
         13    1    3    3    0    0  0.21117724725E+03 -0.25157233813E+03  0.64163124829E+03  0.72081560045E+03  0.00000000000E+00 0.  1.
        -13    1    3    3    0    0  0.38773962437E+03 -0.38603204733E+03  0.85190652895E+03  0.10124759217E+04  0.00000000000E+00 0. -1.
         22    1    1    2    0    0 -0.59891687162E+03  0.63760438545E+03 -0.22167497485E+03  0.90243036625E+03  0.00000000000E+00 0.  1.
<mgrwt>
<rscale>  0 0.23085482E+04</rscale>
<asrwt>0</asrwt>
<pdfrwt beam="1">  1        2 0.30058344E+00 0.23085482E+04</pdfrwt>
<pdfrwt beam="2">  1       -2 0.10491224E+00 0.23085482E+04</pdfrwt>
<totfact> 0.47300941E+00</totfact>
</mgrwt>
</event>
<event>
 6    1  0.9364335E-007  0.1012660E+04  0.7818608E-02  0.9294767E-01
         -2   -1    0    0    0  501 -0.00000000000E+00  0.00000000000E+00  0.25820057884E+03  0.25820057884E+03  0.00000000000E+00 0.  1.
          2   -1    0    0  501    0  0.00000000000E+00 -0.00000000000E+00 -0.99291093012E+03  0.99291093012E+03  0.00000000000E+00 0. -1.
         23    2    1    2    0    0 -0.67892253680E+02 -0.49299085341E+03 -0.28422198244E+03  0.57985216256E+03  0.88300936997E+02 0.  0.
         11    1    3    3    0    0 -0.70457135974E+02 -0.23668457139E+03 -0.16619023583E+03  0.29766254187E+03  0.00000000000E+00 0.  1.
        -11    1    3    3    0    0  0.25648822944E+01 -0.25630628202E+03 -0.11803174661E+03  0.28218962070E+03  0.00000000000E+00 0. -1.
         22    1    1    2    0    0  0.67892253680E+02  0.49299085341E+03 -0.45048836885E+03  0.67125934640E+03  0.00000000000E+00 0.  1.
<mgrwt>
<rscale>  0 0.10126602E+04</rscale>
<asrwt>0</asrwt>
<pdfrwt beam="1">  1        2 0.15275553E+00 0.10126602E+04</pdfrwt>
<pdfrwt beam="2">  1       -2 0.39723166E-01 0.10126602E+04</pdfrwt>
<totfact> 0.15212847E+02</totfact>
</mgrwt>
</event>
<event>
 6    1  0.9364335E-007  0.1242849E+04  0.7818608E-02  0.9076156E-01
         -2   -1    0    0    0  501 -0.00000000000E+00  0.00000000000E+00  0.20920192047E+03  0.20920192047E+03  0.00000000000E+00 0.  1.
          2   -1    0    0  501    0  0.00000000000E+00 -0.00000000000E+00 -0.18459130458E+04  0.18459130458E+04  0.00000000000E+00 0. -1.
         23    2    1    2    0    0  0.56285417676E+03  0.92773240877E+02 -0.42943553723E+03  0.71985242875E+03  0.91438175936E+02 0.  0.
         11    1    3    3    0    0  0.35191325382E+03  0.79289636810E+02 -0.31808560629E+03  0.48094515035E+03  0.00000000000E+00 0.  1.
        -11    1    3    3    0    0  0.21094092294E+03  0.13483604067E+02 -0.11134993095E+03  0.23890727840E+03  0.00000000000E+00 0. -1.
         22    1    1    2    0    0 -0.56285417676E+03 -0.92773240877E+02 -0.12072755881E+04  0.13352625375E+04  0.00000000000E+00 0. -1.
<mgrwt>
<rscale>  0 0.12428492E+04</rscale>
<asrwt>0</asrwt>
<pdfrwt beam="1">  1        2 0.28398661E+00 0.12428492E+04</pdfrwt>
<pdfrwt beam="2">  1       -2 0.32184912E-01 0.12428492E+04</pdfrwt>
<totfact> 0.71968625E+01</totfact>
</mgrwt>
</event>
<event>
 6    1  0.9364335E-007  0.8969600E+03  0.7818608E-02  0.9429390E-01
         -1   -1    0    0    0  501 -0.00000000000E+00  0.00000000000E+00  0.18264046231E+03  0.18264046231E+03  0.00000000000E+00 0.  1.
          1   -1    0    0  501    0  0.00000000000E+00 -0.00000000000E+00 -0.11012581822E+04  0.11012581822E+04  0.00000000000E+00 0. -1.
         23    2    1    2    0    0  0.34747712363E+03  0.84894041402E+02 -0.88238936260E+02  0.37975469911E+03  0.92087848869E+02 0.  0.
         11    1    3    3    0    0  0.19755043754E+03  0.15547409537E+01 -0.54489977912E+02  0.20493352651E+03  0.00000000000E+00 0. -1.
        -11    1    3    3    0    0  0.14992668609E+03  0.83339300448E+02 -0.33748958348E+02  0.17482117260E+03  0.00000000000E+00 0.  1.
         22    1    1    2    0    0 -0.34747712363E+03 -0.84894041402E+02 -0.83037878362E+03  0.90414394539E+03  0.00000000000E+00 0. -1.
<mgrwt>
<rscale>  0 0.89695998E+03</rscale>
<asrwt>0</asrwt>
<pdfrwt beam="1">  1        1 0.16942433E+00 0.89695998E+03</pdfrwt>
<pdfrwt beam="2">  1       -1 0.28098533E-01 0.89695998E+03</pdfrwt>
<totfact> 0.14570173E+02</totfact>
</mgrwt>
</event>
<event>
 6    1  0.9364335E-007  0.1690916E+04  0.7818608E-02  0.8766562E-01
         -2   -1    0    0    0  501 -0.00000000000E+00  0.00000000000E+00  0.50757582094E+03  0.50757582094E+03  0.00000000000E+00 0.  1.
          2   -1    0    0  501    0  0.00000000000E+00 -0.00000000000E+00 -0.14082612851E+04  0.14082612851E+04  0.00000000000E+00 0. -1.
         23    2    1    2    0    0 -0.39807801209E+03  0.55841713179E+03  0.10380396108E+03  0.69957446902E+03  0.91287340769E+02 0.  0.
         11    1    3    3    0    0 -0.65736980061E+02  0.15913395492E+03  0.32269273450E+02  0.17517497585E+03  0.00000000000E+00 0.  1.
        -11    1    3    3    0    0 -0.33234103203E+03  0.39928317688E+03  0.71534687628E+02  0.52439949317E+03  0.00000000000E+00 0. -1.
         22    1    1    2    0    0  0.39807801209E+03 -0.55841713179E+03 -0.10044894252E+04  0.12162626370E+04  0.00000000000E+00 0. -1.
<mgrwt>
<rscale>  0 0.16909162E+04</rscale>
<asrwt>0</asrwt>
<pdfrwt beam="1">  1        2 0.21665558E+00 0.16909162E+04</pdfrwt>
<pdfrwt beam="2">  1       -2 0.78088588E-01 0.16909162E+04</pdfrwt>
<totfact> 0.19892266E+01</totfact>
</mgrwt>
</event>
<event>
 6    1  0.9364335E-007  0.1283155E+04  0.7818608E-02  0.9043031E-01
         -2   -1    0    0    0  501 -0.00000000000E+00  0.00000000000E+00  0.76976249161E+03  0.76976249161E+03  0.00000000000E+00 0.  1.
          2   -1    0    0  501    0  0.00000000000E+00 -0.00000000000E+00 -0.53473859502E+03  0.53473859502E+03  0.00000000000E+00 0. -1.
         23    2    1    2    0    0 -0.44716344228E+03 -0.32538013695E+03  0.44206994370E+03  0.71399668931E+03  0.92401621146E+02 0.  0.
         13    1    3    3    0    0 -0.23252890755E+03 -0.22552388325E+03  0.25196431799E+03  0.41038607713E+03  0.00000000000E+00 0. -1.
        -13    1    3    3    0    0 -0.21463453473E+03 -0.99856253698E+02  0.19010562571E+03  0.30361061218E+03  0.00000000000E+00 0.  1.
         22    1    1    2    0    0  0.44716344228E+03  0.32538013695E+03 -0.20704604711E+03  0.59050439732E+03  0.00000000000E+00 0. -1.
<mgrwt>
<rscale>  0 0.12831550E+04</rscale>
<asrwt>0</asrwt>
<pdfrwt beam="1">  1        2 0.82267476E-01 0.12831550E+04</pdfrwt>
<pdfrwt beam="2">  1       -2 0.11842500E+00 0.12831550E+04</pdfrwt>
<totfact> 0.30639917E+01</totfact>
</mgrwt>
</event>
<event>
 6    1  0.9364335E-007  0.4028016E+04  0.7818608E-02  0.7998919E-01
          2   -1    0    0  501    0  0.00000000000E+00  0.00000000000E+00  0.26742691345E+04  0.26742691345E+04  0.00000000000E+00 0. -1.
         -2   -1    0    0    0  501 -0.00000000000E+00 -0.00000000000E+00 -0.15167613864E+04  0.15167613864E+04  0.00000000000E+00 0.  1.
         23    2    1    2    0    0  0.18281162330E+04  0.24768737321E+03  0.14169790227E+04  0.23280535113E+04  0.92981743056E+02 0.  0.
         11    1    3    3    0    0  0.15240286902E+04  0.24037377365E+03  0.11932880976E+04  0.19504818593E+04  0.00000000000E+00 0.  1.
        -11    1    3    3    0    0  0.30408754277E+03  0.73135995628E+01  0.22369092512E+03  0.37757165199E+03  0.00000000000E+00 0. -1.
         22    1    1    2    0    0 -0.18281162330E+04 -0.24768737321E+03 -0.25947127464E+03  0.18629770096E+04  0.00000000000E+00 0. -1.
<mgrwt>
<rscale>  0 0.40280160E+04</rscale>
<asrwt>0</asrwt>
<pdfrwt beam="1">  1        2 0.41142602E+00 0.40280160E+04</pdfrwt>
<pdfrwt beam="2">  1       -2 0.23334791E+00 0.40280160E+04</pdfrwt>
<totfact> 0.17638613E-01</totfact>
</mgrwt>
</event>
<event>
 6    1  0.9364335E-007  0.5702964E+03  0.7818608E-02  0.9969023E-01
         -2   -1    0    0    0  501 -0.00000000000E+00  0.00000000000E+00  0.12886399745E+03  0.12886399745E+03  0.00000000000E+00 0.  1.
          2   -1    0    0  501    0  0.00000000000E+00 -0.00000000000E+00 -0.63097137910E+03  0.63097137910E+03  0.00000000000E+00 0. -1.
         23    2    1    2    0    0 -0.74442088498E+02  0.30916425794E+02 -0.61171875620E+03  0.62377618592E+03  0.91648477915E+02 0.  0.
         13    1    3    3    0    0  0.17932818852E+02  0.15696788055E+02 -0.20715209168E+03  0.20851849855E+03  0.00000000000E+00 0. -1.
        -13    1    3    3    0    0 -0.92374907350E+02  0.15219637739E+02 -0.40456666452E+03  0.41525768737E+03  0.00000000000E+00 0.  1.
         22    1    1    2    0    0  0.74442088498E+02 -0.30916425794E+02  0.10961137455E+03  0.13605919063E+03  0.00000000000E+00 0.  1.
<mgrwt>
<rscale>  0 0.57029639E+03</rscale>
<asrwt>0</asrwt>
<pdfrwt beam="1">  1        2 0.97072519E-01 0.57029639E+03</pdfrwt>
<pdfrwt beam="2">  1       -2 0.19825230E-01 0.57029639E+03</pdfrwt>
<totfact> 0.10144502E+03</totfact>
</mgrwt>
</event>
<event>
 6    1  0.9364335E-007  0.1490049E+04  0.7818608E-02  0.8891097E-01
          2   -1    0    0  501    0  0.00000000000E+00  0.00000000000E+00  0.19912502064E+04  0.19912502064E+04  0.00000000000E+00 0. -1.
         -2   -1    0    0    0  501 -0.00000000000E+00 -0.00000000000E+00 -0.27875017967E+03  0.27875017967E+03  0.00000000000E+00 0.  1.
         23    2    1    2    0    0 -0.73354229087E+03  0.77459145842E+02  0.73378526838E+03  0.10444528391E+04  0.91414994216E+02 0.  0.
         11    1    3    3    0    0 -0.26272014998E+03  0.42751785337E+02  0.20788954071E+03  0.33773903164E+03  0.00000000000E+00 0.  1.
        -11    1    3    3    0    0 -0.47082214089E+03  0.34707360505E+02  0.52589572767E+03  0.70671380742E+03  0.00000000000E+00 0. -1.
         22    1    1    2    0    0  0.73354229087E+03 -0.77459145842E+02  0.97871475834E+03  0.12255475470E+04  0.00000000000E+00 0.  1.
<mgrwt>
<rscale>  0 0.14900488E+04</rscale>
<asrwt>0</asrwt>
<pdfrwt beam="1">  1        2 0.30634618E+00 0.14900488E+04</pdfrwt>
<pdfrwt beam="2">  1       -2 0.42884644E-01 0.14900488E+04</pdfrwt>
<totfact> 0.33690904E+01</totfact>
</mgrwt>
</event>
<event>
 6    1  0.9364335E-007  0.2971554E+04  0.7818608E-02  0.8251901E-01
          1   -1    0    0  501    0  0.00000000000E+00  0.00000000000E+00  0.97451129345E+03  0.97451129345E+03  0.00000000000E+00 0. -1.
         -1   -1    0    0    0  501 -0.00000000000E+00 -0.00000000000E+00 -0.22652714256E+04  0.22652714256E+04  0.00000000000E+00 0.  1.
         23    2    1    2    0    0 -0.14310872266E+04  0.35723900366E+03 -0.82800911499E+03  0.16938949936E+04  0.89726243400E+02 0.  0.
         11    1    3    3    0    0 -0.85172630494E+03  0.19621269975E+03 -0.44315039189E+03  0.97995887256E+03  0.00000000000E+00 0. -1.
        -11    1    3    3    0    0 -0.57936092168E+03  0.16102630391E+03 -0.38485872310E+03  0.71393612100E+03  0.00000000000E+00 0.  1.
         22    1    1    2    0    0  0.14310872266E+04 -0.35723900366E+03 -0.46275101715E+03  0.15458877255E+04  0.00000000000E+00 0. -1.
<mgrwt>
<rscale>  0 0.29715535E+04</rscale>
<asrwt>0</asrwt>
<pdfrwt beam="1">  1        1 0.14992482E+00 0.29715535E+04</pdfrwt>
<pdfrwt beam="2">  1       -1 0.34850329E+00 0.29715535E+04</pdfrwt>
<totfact> 0.21485410E-01</totfact>
</mgrwt>
</event>
<event>
 6    1  0.9364335E-007  0.1791981E+04  0.7818608E-02  0.8710575E-01
         -1   -1    0    0    0  501 -0.00000000000E+00  0.00000000000E+00  0.60198483679E+03  0.60198483679E+03  0.00000000000E+00 0.  1.
          1   -1    0    0  501    0  0.00000000000E+00 -0.00000000000E+00 -0.13335871851E+04  0.13335871851E+04  0.00000000000E+00 0. -1.
         23    2    1    2    0    0 -0.40525218017E+03  0.79362438887E+03 -0.29417963683E+03  0.94289502072E+03  0.91871438567E+02 0.  0.
         11    1    3    3    0    0 -0.26903058817E+02  0.37363751087E+02  0.40608226932E+01  0.46220285049E+02  0.00000000000E+00 0. -1.
        -11    1    3    3    0    0 -0.37834912136E+03  0.75626063779E+03 -0.29824045953E+03  0.89667473567E+03  0.00000000000E+00 0.  1.
         22    1    1    2    0    0  0.40525218017E+03 -0.79362438887E+03 -0.43742271148E+03  0.99267700118E+03  0.00000000000E+00 0. -1.
<mgrwt>
<rscale>  0 0.17919813E+04</rscale>
<asrwt>0</asrwt>
<pdfrwt beam="1">  1        1 0.20516726E+00 0.17919813E+04</pdfrwt>
<pdfrwt beam="2">  1       -1 0.92613052E-01 0.17919813E+04</pdfrwt>
<totfact> 0.91627933E+00</totfact>
</mgrwt>
</event>
<event>
 6    1  0.9364335E-007  0.8997981E+03  0.7818608E-02  0.9425834E-01
         -1   -1    0    0    0  501 -0.00000000000E+00  0.00000000000E+00  0.30540181906E+03  0.30540181906E+03  0.00000000000E+00 0.  1.
          1   -1    0    0  501    0  0.00000000000E+00 -0.00000000000E+00 -0.66276343005E+03  0.66276343005E+03  0.00000000000E+00 0. -1.
         23    2    1    2    0    0  0.28231868332E+03 -0.33360770691E+03 -0.27342456335E+03  0.52314461023E+03  0.89001968020E+02 0.  0.
         11    1    3    3    0    0  0.44951772545E+02 -0.64854398440E+02 -0.92277788799E+02  0.12141641223E+03  0.00000000000E+00 0.  1.
        -11    1    3    3    0    0  0.23736691078E+03 -0.26875330847E+03 -0.18114677455E+03  0.40172819801E+03  0.00000000000E+00 0. -1.
         22    1    1    2    0    0 -0.28231868332E+03  0.33360770691E+03 -0.83937047632E+02  0.44502063888E+03  0.00000000000E+00 0. -1.
<mgrwt>
<rscale>  0 0.89979810E+03</rscale>
<asrwt>0</asrwt>
<pdfrwt beam="1">  1        1 0.10196360E+00 0.89979810E+03</pdfrwt>
<pdfrwt beam="2">  1       -1 0.46984896E-01 0.89979810E+03</pdfrwt>
<totfact> 0.13459794E+02</totfact>
</mgrwt>
</event>
<event>
 6    1  0.9364335E-007  0.3158362E+04  0.7818608E-02  0.8199901E-01
         -2   -1    0    0    0  501 -0.00000000000E+00  0.00000000000E+00  0.17667184046E+04  0.17667184046E+04  0.00000000000E+00 0.  1.
          2   -1    0    0  501    0  0.00000000000E+00 -0.00000000000E+00 -0.14115509663E+04  0.14115509663E+04  0.00000000000E+00 0. -1.
         23    2    1    2    0    0 -0.43479923446E+03  0.14044902975E+04  0.75343081956E+03  0.16550303579E+04  0.99116676710E+02 0.  0.
         11    1    3    3    0    0 -0.87657171648E+02  0.22128714492E+03  0.15828375937E+03  0.28584178969E+03  0.00000000000E+00 0. -1.
        -11    1    3    3    0    0 -0.34714206281E+03  0.11832031525E+04  0.59514706018E+03  0.13691885682E+04  0.00000000000E+00 0.  1.
         22    1    1    2    0    0  0.43479923446E+03 -0.14044902975E+04 -0.39826338121E+03  0.15232390130E+04  0.00000000000E+00 0. -1.
<mgrwt>
<rscale>  0 0.31583623E+04</rscale>
<asrwt>0</asrwt>
<pdfrwt beam="1">  1        2 0.21716169E+00 0.31583623E+04</pdfrwt>
<pdfrwt beam="2">  1       -2 0.27180283E+00 0.31583623E+04</pdfrwt>
<totfact> 0.56902463E-01</totfact>
</mgrwt>
</event>
<event>
 6    1  0.9364335E-007  0.2438670E+04  0.7818608E-02  0.8425166E-01
          2   -1    0    0  501    0  0.00000000000E+00  0.00000000000E+00  0.20254691237E+04  0.20254691237E+04  0.00000000000E+00 0. -1.
         -2   -1    0    0    0  501 -0.00000000000E+00 -0.00000000000E+00 -0.73404146727E+03  0.73404146727E+03  0.00000000000E+00 0.  1.
         23    2    1    2    0    0 -0.10586871166E+04  0.52407674076E+03  0.31671912694E+03  0.12279977577E+04  0.11042031731E+03 0.  0.
         13    1    3    3    0    0 -0.24604477258E+03  0.75165029252E+02  0.87328577747E+02  0.27168749001E+03  0.00000000000E+00 0. -1.
        -13    1    3    3    0    0 -0.81264234402E+03  0.44891171150E+03  0.22939054920E+03  0.95631026769E+03  0.00000000000E+00 0.  1.
         22    1    1    2    0    0  0.10586871166E+04 -0.52407674076E+03  0.97470852952E+03  0.15315128333E+04  0.00000000000E+00 0.  1.
<mgrwt>
<rscale>  0 0.24386704E+04</rscale>
<asrwt>0</asrwt>
<pdfrwt beam="1">  1        2 0.31161063E+00 0.24386704E+04</pdfrwt>
<pdfrwt beam="2">  1       -2 0.11292946E+00 0.24386704E+04</pdfrwt>
<totfact> 0.35726868E+00</totfact>
</mgrwt>
</event>
<event>
 6    1  0.9364335E-007  0.2321350E+04  0.7818608E-02  0.8469550E-01
          1   -1    0    0  501    0  0.00000000000E+00  0.00000000000E+00  0.18587553889E+04  0.18587553889E+04  0.00000000000E+00 0. -1.
         -1   -1    0    0    0  501 -0.00000000000E+00 -0.00000000000E+00 -0.72476786730E+03  0.72476786730E+03  0.00000000000E+00 0.  1.
         23    2    1    2    0    0 -0.21356112002E+03  0.99471577344E+01  0.18354932480E+04  0.18501627840E+04  0.91430660971E+02 0.  0.
         11    1    3    3    0    0 -0.12118337674E+03  0.50873718266E+02  0.10175066569E+04  0.10259597180E+04  0.00000000000E+00 0.  1.
        -11    1    3    3    0    0 -0.92377743288E+02 -0.40926560531E+02  0.81798659113E+03  0.82420306605E+03  0.00000000000E+00 0. -1.
         22    1    1    2    0    0  0.21356112002E+03 -0.99471577344E+01 -0.70150572645E+03  0.73336047219E+03  0.00000000000E+00 0.  1.
<mgrwt>
<rscale>  0 0.23213498E+04</rscale>
<asrwt>0</asrwt>
<pdfrwt beam="1">  1        1 0.28596237E+00 0.23213498E+04</pdfrwt>
<pdfrwt beam="2">  1       -1 0.11150275E+00 0.23213498E+04</pdfrwt>
<totfact> 0.24773626E+00</totfact>
</mgrwt>
</event>
<event>
 6    1  0.9364335E-007  0.2635203E+04  0.7818608E-02  0.8356341E-01
         -2   -1    0    0    0  501 -0.00000000000E+00  0.00000000000E+00  0.66739338024E+03  0.66739338024E+03  0.00000000000E+00 0.  1.
          2   -1    0    0  501    0  0.00000000000E+00 -0.00000000000E+00 -0.26012750615E+04  0.26012750615E+04  0.00000000000E+00 0. -1.
         23    2    1    2    0    0  0.11058241985E+04 -0.26557962541E+03 -0.17895980749E+04  0.21222839275E+04  0.89711226397E+02 0.  0.
         11    1    3    3    0    0  0.67973206916E+03 -0.12014866968E+03 -0.11070132419E+04  0.13045879451E+04  0.00000000000E+00 0.  1.
        -11    1    3    3    0    0  0.42609212931E+03 -0.14543095573E+03 -0.68258483295E+03  0.81769598245E+03  0.00000000000E+00 0. -1.
         22    1    1    2    0    0 -0.11058241985E+04  0.26557962541E+03 -0.14428360640E+03  0.11463845142E+04  0.00000000000E+00 0.  1.
<mgrwt>
<rscale>  0 0.26352030E+04</rscale>
<asrwt>0</asrwt>
<pdfrwt beam="1">  1        2 0.40019616E+00 0.26352030E+04</pdfrwt>
<pdfrwt beam="2">  1       -2 0.10267590E+00 0.26352030E+04</pdfrwt>
<totfact> 0.20776965E+00</totfact>
</mgrwt>
</event>
<event>
 6    1  0.9364335E-007  0.1914986E+04  0.7818608E-02  0.8647433E-01
         -2   -1    0    0    0  501 -0.00000000000E+00  0.00000000000E+00  0.69103751390E+03  0.69103751390E+03  0.00000000000E+00 0.  1.
          2   -1    0    0  501    0  0.00000000000E+00 -0.00000000000E+00 -0.13266899523E+04  0.13266899523E+04  0.00000000000E+00 0. -1.
         23    2    1    2    0    0  0.43002013241E+02  0.28966058740E+03  0.64119037985E+03  0.70773509540E+03  0.63335874621E+02 0.  0.
         11    1    3    3    0    0  0.37715333935E+02  0.95909554372E+02  0.17897999232E+03  0.20653069187E+03  0.00000000000E+00 0. -1.
        -11    1    3    3    0    0  0.52866793056E+01  0.19375103303E+03  0.46221038753E+03  0.50120440353E+03  0.00000000000E+00 0.  1.
         22    1    1    2    0    0 -0.43002013241E+02 -0.28966058740E+03 -0.12768428183E+04  0.13099923708E+04  0.00000000000E+00 0. -1.
<mgrwt>
<rscale>  0 0.19149857E+04</rscale>
<asrwt>0</asrwt>
<pdfrwt beam="1">  1        2 0.20410614E+00 0.19149857E+04</pdfrwt>
<pdfrwt beam="2">  1       -2 0.10631346E+00 0.19149857E+04</pdfrwt>
<totfact> 0.10646506E+01</totfact>
</mgrwt>
</event>
<event>
 6    1  0.9364335E-007  0.2562377E+04  0.7818608E-02  0.8381094E-01
         -2   -1    0    0    0  501 -0.00000000000E+00  0.00000000000E+00  0.22830097622E+04  0.22830097622E+04  0.00000000000E+00 0.  1.
          2   -1    0    0  501    0  0.00000000000E+00 -0.00000000000E+00 -0.71898242834E+03  0.71898242834E+03  0.00000000000E+00 0. -1.
         23    2    1    2    0    0 -0.67559279686E+01  0.42231271036E+03 -0.63202892022E+03  0.76568793151E+03  0.91781177601E+02 0.  0.
         13    1    3    3    0    0  0.26761545603E+02  0.24149951682E+03 -0.29917803150E+03  0.38541625741E+03  0.00000000000E+00 0.  1.
        -13    1    3    3    0    0 -0.33517473572E+02  0.18081319355E+03 -0.33285088873E+03  0.38027167410E+03  0.00000000000E+00 0. -1.
         22    1    1    2    0    0  0.67559279686E+01 -0.42231271036E+03  0.21960562541E+04  0.22363042591E+04  0.00000000000E+00 0.  1.
<mgrwt>
<rscale>  0 0.25623769E+04</rscale>
<asrwt>0</asrwt>
<pdfrwt beam="1">  1        2 0.11061268E+00 0.25623769E+04</pdfrwt>
<pdfrwt beam="2">  1       -2 0.35123227E+00 0.25623769E+04</pdfrwt>
<totfact> 0.53715858E-01</totfact>
</mgrwt>
</event>
<event>
 6    1  0.9364335E-007  0.2121625E+04  0.7818608E-02  0.8551777E-01
         -2   -1    0    0    0  501 -0.00000000000E+00  0.00000000000E+00  0.78132628380E+03  0.78132628380E+03  0.00000000000E+00 0.  1.
          2   -1    0    0  501    0  0.00000000000E+00 -0.00000000000E+00 -0.14402725328E+04  0.14402725328E+04  0.00000000000E+00 0. -1.
         23    2    1    2    0    0  0.45869887633E+03  0.69923430925E+03 -0.10101150439E+04  0.13145967213E+04  0.92189258306E+02 0.  0.
         11    1    3    3    0    0  0.42857747990E+03  0.63642380728E+03 -0.88416966241E+03  0.11706707098E+04  0.00000000000E+00 0.  1.
        -11    1    3    3    0    0  0.30121396432E+02  0.62810501969E+02 -0.12594538145E+03  0.14392601151E+03  0.00000000000E+00 0. -1.
         22    1    1    2    0    0 -0.45869887633E+03 -0.69923430925E+03  0.35116879488E+03  0.90700209530E+03  0.00000000000E+00 0.  1.
<mgrwt>
<rscale>  0 0.21216246E+04</rscale>
<asrwt>0</asrwt>
<pdfrwt beam="1">  1        2 0.22158039E+00 0.21216246E+04</pdfrwt>
<pdfrwt beam="2">  1       -2 0.12020404E+00 0.21216246E+04</pdfrwt>
<totfact> 0.66768014E+00</totfact>
</mgrwt>
</event>
<event>
 6    1  0.9364335E-007  0.3198853E+04  0.7818608E-02  0.8189120E-01
         -2   -1    0    0    0  501 -0.00000000000E+00  0.00000000000E+00  0.11212261521E+04  0.11212261521E+04  0.00000000000E+00 0.  1.
          2   -1    0    0  501    0  0.00000000000E+00 -0.00000000000E+00 -0.22815784967E+04  0.22815784967E+04  0.00000000000E+00 0. -1.
         23    2    1    2    0    0  0.20162049023E+03 -0.13752468768E+04  0.25829073048E+03  0.14167273672E+04  0.91910485190E+02 0.  0.
         11    1    3    3    0    0  0.17648401723E+02 -0.28897923192E+03  0.25271136368E+02  0.29061846620E+03  0.00000000000E+00 0. -1.
        -11    1    3    3    0    0  0.18397208851E+03 -0.10862676449E+04  0.23301959411E+03  0.11261089010E+04  0.00000000000E+00 0.  1.
         22    1    1    2    0    0 -0.20162049023E+03  0.13752468768E+04 -0.14186430751E+04  0.19860772817E+04  0.00000000000E+00 0. -1.
<mgrwt>
<rscale>  0 0.31988532E+04</rscale>
<asrwt>0</asrwt>
<pdfrwt beam="1">  1        2 0.35101207E+00 0.31988532E+04</pdfrwt>
<pdfrwt beam="2">  1       -2 0.17249633E+00 0.31988532E+04</pdfrwt>
<totfact> 0.80023005E-01</totfact>
</mgrwt>
</event>
<event>
 6    1  0.9364335E-007  0.3809239E+04  0.7818608E-02  0.8044175E-01
          1   -1    0    0  501    0  0.00000000000E+00  0.00000000000E+00  0.19687982931E+04  0.19687982931E+04  0.00000000000E+00 0. -1.
         -1   -1    0    0    0  501 -0.00000000000E+00 -0.00000000000E+00 -0.18425329651E+04  0.18425329651E+04  0.00000000000E+00 0.  1.
         23    2    1    2    0    0 -0.80959335300E+03 -0.15641816243E+04 -0.65929365789E+03  0.18828063111E+04  0.90476111441E+02 0.  0.
         13    1    3    3    0    0 -0.14673300710E+03 -0.22898479251E+03 -0.79581360128E+02  0.28336867056E+03  0.00000000000E+00 0. -1.
        -13    1    3    3    0    0 -0.66286034590E+03 -0.13351968318E+04 -0.57971229777E+03  0.15994376405E+04  0.00000000000E+00 0.  1.
         22    1    1    2    0    0  0.80959335300E+03  0.15641816243E+04  0.78555898593E+03  0.19285249471E+04  0.00000000000E+00 0. -1.
<mgrwt>
<rscale>  0 0.38092392E+04</rscale>
<asrwt>0</asrwt>
<pdfrwt beam="1">  1        1 0.30289205E+00 0.38092392E+04</pdfrwt>
<pdfrwt beam="2">  1       -1 0.28346661E+00 0.38092392E+04</pdfrwt>
<totfact> 0.10514525E-01</totfact>
</mgrwt>
</event>
<event>
 6    1  0.9364335E-007  0.4966757E+04  0.7818608E-02  0.7833656E-01
         -1   -1    0    0    0  501 -0.00000000000E+00  0.00000000000E+00  0.23500008871E+04  0.23500008871E+04  0.00000000000E+00 0.  1.
          1   -1    0    0  501    0  0.00000000000E+00 -0.00000000000E+00 -0.26243264004E+04  0.26243264004E+04  0.00000000000E+00 0. -1.
         23    2    1    2    0    0  0.97778203908E+03 -0.86602476534E+03 -0.22515548640E+04  0.26046242437E+04  0.92257981622E+02 0.  0.
         11    1    3    3    0    0  0.45988988678E+03 -0.40603186644E+03 -0.96628656655E+03  0.11445830303E+04  0.00000000000E+00 0.  1.
        -11    1    3    3    0    0  0.51789215231E+03 -0.45999289889E+03 -0.12852682975E+04  0.14600412134E+04  0.00000000000E+00 0. -1.
         22    1    1    2    0    0 -0.97778203908E+03  0.86602476534E+03  0.19772293508E+04  0.23697030438E+04  0.00000000000E+00 0.  1.
<mgrwt>
<rscale>  0 0.49667572E+04</rscale>
<asrwt>0</asrwt>
<pdfrwt beam="1">  1        1 0.40374252E+00 0.49667572E+04</pdfrwt>
<pdfrwt beam="2">  1       -1 0.36153860E+00 0.49667572E+04</pdfrwt>
<totfact> 0.10456894E-02</totfact>
</mgrwt>
</event>
<event>
 6    1  0.9364335E-007  0.2070553E+04  0.7818608E-02  0.8574327E-01
         -2   -1    0    0    0  501 -0.00000000000E+00  0.00000000000E+00  0.10821360391E+04  0.10821360391E+04  0.00000000000E+00 0.  1.
          2   -1    0    0  501    0  0.00000000000E+00 -0.00000000000E+00 -0.99044639126E+03  0.99044639126E+03  0.00000000000E+00 0. -1.
         23    2    1    2    0    0  0.57040277264E+03  0.32129406345E+02  0.90816751042E+03  0.10760746673E+04  0.82321569779E+02 0.  0.
         13    1    3    3    0    0  0.35221422971E+03  0.59851700084E+02  0.56330118101E+03  0.66704221017E+03  0.00000000000E+00 0. -1.
        -13    1    3    3    0    0  0.21818854293E+03 -0.27722293739E+02  0.34486632940E+03  0.40903245714E+03  0.00000000000E+00 0.  1.
         22    1    1    2    0    0 -0.57040277264E+03 -0.32129406345E+02 -0.81647786256E+03  0.99650776307E+03  0.00000000000E+00 0. -1.
<mgrwt>
<rscale>  0 0.20705533E+04</rscale>
<asrwt>0</asrwt>
<pdfrwt beam="1">  1        2 0.15237637E+00 0.20705533E+04</pdfrwt>
<pdfrwt beam="2">  1       -2 0.16648247E+00 0.20705533E+04</pdfrwt>
<totfact> 0.53297029E+00</totfact>
</mgrwt>
</event>
<event>
 6    1  0.9364335E-007  0.3708759E+04  0.7818608E-02  0.8066023E-01
          1   -1    0    0  501    0  0.00000000000E+00  0.00000000000E+00  0.19602626631E+04  0.19602626631E+04  0.00000000000E+00 0. -1.
         -1   -1    0    0    0  501 -0.00000000000E+00 -0.00000000000E+00 -0.17542159640E+04  0.17542159640E+04  0.00000000000E+00 0.  1.
         23    2    1    2    0    0  0.93931192997E+03 -0.13530960825E+04  0.95368142840E+03  0.19055746499E+04  0.92361080715E+02 0.  0.
         11    1    3    3    0    0  0.59924070687E+03 -0.79871499831E+03  0.60763317616E+03  0.11688683202E+04  0.00000000000E+00 0. -1.
        -11    1    3    3    0    0  0.34007122309E+03 -0.55438108420E+03  0.34604825224E+03  0.73670632967E+03  0.00000000000E+00 0.  1.
         22    1    1    2    0    0 -0.93931192997E+03  0.13530960825E+04 -0.74763472926E+03  0.18089039772E+04  0.00000000000E+00 0.  1.
<mgrwt>
<rscale>  0 0.37087594E+04</rscale>
<asrwt>0</asrwt>
<pdfrwt beam="1">  1        1 0.30157887E+00 0.37087594E+04</pdfrwt>
<pdfrwt beam="2">  1       -1 0.26987938E+00 0.37087594E+04</pdfrwt>
<totfact> 0.13159957E-01</totfact>
</mgrwt>
</event>
<event>
 6    1  0.9364335E-007  0.1209019E+04  0.7818608E-02  0.9104999E-01
         -2   -1    0    0    0  501 -0.00000000000E+00  0.00000000000E+00  0.49251966465E+03  0.49251966465E+03  0.00000000000E+00 0.  1.
          2   -1    0    0  501    0  0.00000000000E+00 -0.00000000000E+00 -0.74196326051E+03  0.74196326051E+03  0.00000000000E+00 0. -1.
         23    2    1    2    0    0  0.31547919040E+03  0.30725855847E+03 -0.54321314211E+03  0.70511019481E+03  0.90359989702E+02 0.  0.
         11    1    3    3    0    0  0.26996384659E+03  0.23716831494E+03 -0.38809166188E+03  0.52890871245E+03  0.00000000000E+00 0. -1.
        -11    1    3    3    0    0  0.45515343809E+02  0.70090243525E+02 -0.15512148023E+03  0.17620148237E+03  0.00000000000E+00 0.  1.
         22    1    1    2    0    0 -0.31547919040E+03 -0.30725855847E+03  0.29376954626E+03  0.52937273035E+03  0.00000000000E+00 0.  1.
<mgrwt>
<rscale>  0 0.12090186E+04</rscale>
<asrwt>0</asrwt>
<pdfrwt beam="1">  1        2 0.11414819E+00 0.12090186E+04</pdfrwt>
<pdfrwt beam="2">  1       -2 0.75772256E-01 0.12090186E+04</pdfrwt>
<totfact> 0.58564398E+01</totfact>
</mgrwt>
</event>
<event>
 6    1  0.9364335E-007  0.1649456E+04  0.7818608E-02  0.8790729E-01
         -1   -1    0    0    0  501 -0.00000000000E+00  0.00000000000E+00  0.32971076153E+03  0.32971076153E+03  0.00000000000E+00 0.  1.
          1   -1    0    0  501    0  0.00000000000E+00 -0.00000000000E+00 -0.20629477579E+04  0.20629477579E+04  0.00000000000E+00 0. -1.
         23    2    1    2    0    0  0.65765455441E+03  0.25108016834E+03 -0.14857084118E+04  0.16464540139E+04  0.89053754008E+02 0.  0.
         13    1    3    3    0    0  0.18804570056E+03  0.10925081002E+03 -0.50739379745E+03  0.55203749028E+03  0.00000000000E+00 0.  1.
        -13    1    3    3    0    0  0.46960885385E+03  0.14182935832E+03 -0.97831461434E+03  0.10944165236E+04  0.00000000000E+00 0. -1.
         22    1    1    2    0    0 -0.65765455441E+03 -0.25108016834E+03 -0.24752858454E+03  0.74620450550E+03  0.00000000000E+00 0.  1.
<mgrwt>
<rscale>  0 0.16494558E+04</rscale>
<asrwt>0</asrwt>
<pdfrwt beam="1">  1        1 0.31737658E+00 0.16494558E+04</pdfrwt>
<pdfrwt beam="2">  1       -1 0.50724732E-01 0.16494558E+04</pdfrwt>
<totfact> 0.10082912E+01</totfact>
</mgrwt>
</event>
<event>
 6    1  0.9364335E-007  0.2204977E+04  0.7818608E-02  0.8516360E-01
          2   -1    0    0  501    0  0.00000000000E+00  0.00000000000E+00  0.31912994917E+04  0.31912994917E+04  0.00000000000E+00 0. -1.
         -2   -1    0    0    0  501 -0.00000000000E+00 -0.00000000000E+00 -0.38087319077E+03  0.38087319077E+03  0.00000000000E+00 0.  1.
         23    2    1    2    0    0  0.41280283419E+03 -0.69233003049E+03  0.19364634597E+03  0.83405939342E+03  0.91810203196E+02 0.  0.
         13    1    3    3    0    0  0.13983063132E+03 -0.31056447431E+03  0.57663791078E+02  0.34543886718E+03  0.00000000000E+00 0. -1.
        -13    1    3    3    0    0  0.27297220287E+03 -0.38176555618E+03  0.13598255489E+03  0.48862052623E+03  0.00000000000E+00 0.  1.
         22    1    1    2    0    0 -0.41280283419E+03  0.69233003049E+03  0.26167799549E+04  0.27381132890E+04  0.00000000000E+00 0. -1.
<mgrwt>
<rscale>  0 0.22049766E+04</rscale>
<asrwt>0</asrwt>
<pdfrwt beam="1">  1        2 0.49096914E+00 0.22049766E+04</pdfrwt>
<pdfrwt beam="2">  1       -2 0.58595877E-01 0.22049766E+04</pdfrwt>
<totfact> 0.32747280E+00</totfact>
</mgrwt>
</event>
<event>
 6    1  0.9364335E-007  0.2149070E+04  0.7818608E-02  0.8539931E-01
         -1   -1    0    0    0  501 -0.00000000000E+00  0.00000000000E+00  0.52753989281E+03  0.52753989281E+03  0.00000000000E+00 0.  1.
          1   -1    0    0  501    0  0.00000000000E+00 -0.00000000000E+00 -0.21886970011E+04  0.21886970011E+04  0.00000000000E+00 0. -1.
         23    2    1    2    0    0 -0.75859517639E+03 -0.73902311499E+03 -0.61818662529E+03  0.12298287284E+04  0.93285536716E+02 0.  0.
         11    1    3    3    0    0 -0.54949636648E+03 -0.57769246705E+03 -0.49455724611E+03  0.93822263506E+03  0.00000000000E+00 0. -1.
        -11    1    3    3    0    0 -0.20909880992E+03 -0.16133064793E+03 -0.12362937917E+03  0.29160609333E+03  0.00000000000E+00 0.  1.
         22    1    1    2    0    0  0.75859517639E+03  0.73902311499E+03 -0.10429704830E+04  0.14864081655E+04  0.00000000000E+00 0.  1.
<mgrwt>
<rscale>  0 0.21490695E+04</rscale>
<asrwt>0</asrwt>
<pdfrwt beam="1">  1        1 0.33672263E+00 0.21490695E+04</pdfrwt>
<pdfrwt beam="2">  1       -1 0.81159981E-01 0.21490695E+04</pdfrwt>
<totfact> 0.30714804E+00</totfact>
</mgrwt>
</event>
<event>
 6    1  0.9364335E-007  0.2997819E+04  0.7818608E-02  0.8244354E-01
          1   -1    0    0  501    0  0.00000000000E+00  0.00000000000E+00  0.20201656698E+04  0.20201656698E+04  0.00000000000E+00 0. -1.
         -1   -1    0    0    0  501 -0.00000000000E+00 -0.00000000000E+00 -0.11121509454E+04  0.11121509454E+04  0.00000000000E+00 0.  1.
         23    2    1    2    0    0 -0.57961667443E+03 -0.63529636927E+03 -0.82657299328E+03  0.11962506254E+04  0.90750644823E+02 0.  0.
         11    1    3    3    0    0 -0.25700852119E+03 -0.21632299813E+03 -0.32628182515E+03  0.46830422687E+03  0.00000000000E+00 0.  1.
        -11    1    3    3    0    0 -0.32260815324E+03 -0.41897337114E+03 -0.50029116813E+03  0.72794639856E+03  0.00000000000E+00 0. -1.
         22    1    1    2    0    0  0.57961667443E+03  0.63529636927E+03  0.17345877177E+04  0.19360659897E+04  0.00000000000E+00 0. -1.
<mgrwt>
<rscale>  0 0.29978186E+04</rscale>
<asrwt>0</asrwt>
<pdfrwt beam="1">  1        1 0.31079472E+00 0.29978186E+04</pdfrwt>
<pdfrwt beam="2">  1       -1 0.17110015E+00 0.29978186E+04</pdfrwt>
<totfact> 0.59362690E-01</totfact>
</mgrwt>
</event>
<event>
 6    1  0.9364335E-007  0.2052997E+04  0.7818608E-02  0.8582236E-01
          2   -1    0    0  501    0  0.00000000000E+00  0.00000000000E+00  0.37273899268E+04  0.37273899268E+04  0.00000000000E+00 0. -1.
         -2   -1    0    0    0  501 -0.00000000000E+00 -0.00000000000E+00 -0.28269100785E+03  0.28269100785E+03  0.00000000000E+00 0.  1.
         23    2    1    2    0    0 -0.80659565039E+03  0.48280532033E+02  0.49583089771E+03  0.95250834195E+03  0.92175427053E+02 0.  0.
         13    1    3    3    0    0 -0.64144357464E+03  0.58154975168E+02  0.35616909719E+03  0.73599475975E+03  0.00000000000E+00 0. -1.
        -13    1    3    3    0    0 -0.16515207575E+03 -0.98744431351E+01  0.13966180052E+03  0.21651358220E+03  0.00000000000E+00 0.  1.
         22    1    1    2    0    0  0.80659565039E+03 -0.48280532033E+02  0.29488680212E+04  0.30575725927E+04  0.00000000000E+00 0. -1.
<mgrwt>
<rscale>  0 0.20529974E+04</rscale>
<asrwt>0</asrwt>
<pdfrwt beam="1">  1        2 0.57344457E+00 0.20529974E+04</pdfrwt>
<pdfrwt beam="2">  1       -2 0.43490927E-01 0.20529974E+04</pdfrwt>
<totfact> 0.26011436E+00</totfact>
</mgrwt>
</event>
<event>
 6    1  0.9364335E-007  0.4853358E+04  0.7818608E-02  0.7851535E-01
         -1   -1    0    0    0  501 -0.00000000000E+00  0.00000000000E+00  0.23656216541E+04  0.23656216541E+04  0.00000000000E+00 0.  1.
          1   -1    0    0  501    0  0.00000000000E+00 -0.00000000000E+00 -0.24893118339E+04  0.24893118339E+04  0.00000000000E+00 0. -1.
         23    2    1    2    0    0  0.16023393145E+04  0.49567679097E+03  0.16912043785E+04  0.23836931078E+04  0.92918365158E+02 0.  0.
         13    1    3    3    0    0  0.46181849937E+03  0.18279534724E+03  0.52663921166E+03  0.72390560475E+03  0.00000000000E+00 0. -1.
        -13    1    3    3    0    0  0.11405208151E+04  0.31288144373E+03  0.11645651668E+04  0.16597875030E+04  0.00000000000E+00 0.  1.
         22    1    1    2    0    0 -0.16023393145E+04 -0.49567679097E+03 -0.18148945583E+04  0.24712403803E+04  0.00000000000E+00 0. -1.
<mgrwt>
<rscale>  0 0.48533576E+04</rscale>
<asrwt>0</asrwt>
<pdfrwt beam="1">  1        1 0.38297105E+00 0.48533576E+04</pdfrwt>
<pdfrwt beam="2">  1       -1 0.36394180E+00 0.48533576E+04</pdfrwt>
<totfact> 0.12629456E-02</totfact>
</mgrwt>
</event>
<event>
 6    1  0.9364335E-007  0.1434630E+04  0.7818608E-02  0.8929126E-01
         -2   -1    0    0    0  501 -0.00000000000E+00  0.00000000000E+00  0.22438941285E+03  0.22438941285E+03  0.00000000000E+00 0.  1.
          2   -1    0    0  501    0  0.00000000000E+00 -0.00000000000E+00 -0.22930707888E+04  0.22930707888E+04  0.00000000000E+00 0. -1.
         23    2    1    2    0    0  0.31828282803E+03  0.48498953558E+03 -0.17702463364E+04  0.18650935248E+04  0.91010748849E+02 0.  0.
         11    1    3    3    0    0  0.18159786101E+03  0.25716061838E+03 -0.10982775141E+04  0.11425072712E+04  0.00000000000E+00 0.  1.
        -11    1    3    3    0    0  0.13668496702E+03  0.22782891720E+03 -0.67196882230E+03  0.72258625358E+03  0.00000000000E+00 0. -1.
         22    1    1    2    0    0 -0.31828282803E+03 -0.48498953558E+03 -0.29843503955E+03  0.65236667686E+03  0.00000000000E+00 0.  1.
<mgrwt>
<rscale>  0 0.14346300E+04</rscale>
<asrwt>0</asrwt>
<pdfrwt beam="1">  1        2 0.35278014E+00 0.14346300E+04</pdfrwt>
<pdfrwt beam="2">  1       -2 0.34521446E-01 0.14346300E+04</pdfrwt>
<totfact> 0.35000723E+01</totfact>
</mgrwt>
</event>
<event>
 6    1  0.9364335E-007  0.2241121E+04  0.7818608E-02  0.8501505E-01
          2   -1    0    0  501    0  0.00000000000E+00  0.00000000000E+00  0.40727421393E+04  0.40727421393E+04  0.00000000000E+00 0. -1.
         -2   -1    0    0    0  501 -0.00000000000E+00 -0.00000000000E+00 -0.30830730528E+03  0.30830730528E+03  0.00000000000E+00 0.  1.
         23    2    1    2    0    0 -0.81081780315E+03 -0.42935334055E+03  0.63400753993E+03  0.11189420208E+04  0.91081744639E+02 0.  0.
         11    1    3    3    0    0 -0.39050469285E+03 -0.16098929953E+03  0.31572183720E+03  0.52734405106E+03  0.00000000000E+00 0.  1.
        -11    1    3    3    0    0 -0.42031311030E+03 -0.26836404102E+03  0.31828570273E+03  0.59159796971E+03  0.00000000000E+00 0. -1.
         22    1    1    2    0    0  0.81081780315E+03  0.42935334055E+03  0.31304272941E+04  0.32621074239E+04  0.00000000000E+00 0. -1.
<mgrwt>
<rscale>  0 0.22411213E+04</rscale>
<asrwt>0</asrwt>
<pdfrwt beam="1">  1        2 0.62657567E+00 0.22411213E+04</pdfrwt>
<pdfrwt beam="2">  1       -2 0.47431896E-01 0.22411213E+04</pdfrwt>
<totfact> 0.11525533E+00</totfact>
</mgrwt>
</event>
<event>
 6    1  0.9364335E-007  0.1431054E+04  0.7818608E-02  0.8931642E-01
         -2   -1    0    0    0  501 -0.00000000000E+00  0.00000000000E+00  0.12541448800E+04  0.12541448800E+04  0.00000000000E+00 0.  1.
          2   -1    0    0  501    0  0.00000000000E+00 -0.00000000000E+00 -0.40822928902E+03  0.40822928902E+03  0.00000000000E+00 0. -1.
         23    2    1    2    0    0  0.59598451335E+03 -0.16037709673E+03  0.83829673639E+03  0.10451413116E+04  0.93062289012E+02 0.  0.
         13    1    3    3    0    0  0.14383960903E+03 -0.58802683460E+02  0.27347896518E+03  0.31454464405E+03  0.00000000000E+00 0. -1.
        -13    1    3    3    0    0  0.45214490433E+03 -0.10157441327E+03  0.56481777121E+03  0.73059666754E+03  0.00000000000E+00 0.  1.
         22    1    1    2    0    0 -0.59598451335E+03  0.16037709673E+03  0.76188545510E+01  0.61723285740E+03  0.00000000000E+00 0. -1.
<mgrwt>
<rscale>  0 0.14310537E+04</rscale>
<asrwt>0</asrwt>
<pdfrwt beam="1">  1        2 0.62804507E-01 0.14310537E+04</pdfrwt>
<pdfrwt beam="2">  1       -2 0.19294536E+00 0.14310537E+04</pdfrwt>
<totfact> 0.11165356E+01</totfact>
</mgrwt>
</event>
<event>
 6    1  0.9364335E-007  0.7760807E+03  0.7818608E-02  0.9595300E-01
          2   -1    0    0  501    0  0.00000000000E+00  0.00000000000E+00  0.48677596385E+03  0.48677596385E+03  0.00000000000E+00 0. -1.
         -2   -1    0    0    0  501 -0.00000000000E+00 -0.00000000000E+00 -0.30933182974E+03  0.30933182974E+03  0.00000000000E+00 0.  1.
         23    2    1    2    0    0  0.17484980027E+03  0.71254778837E+02 -0.25184754414E+03  0.32712907213E+03  0.89087306489E+02 0.  0.
         13    1    3    3    0    0 -0.50087257887E+01 -0.59272723398E+01 -0.31358498114E+02  0.32304416036E+02  0.00000000000E+00 0.  1.
        -13    1    3    3    0    0  0.17985852606E+03  0.77182051177E+02 -0.22048904603E+03  0.29482465609E+03  0.00000000000E+00 0. -1.
         22    1    1    2    0    0 -0.17484980027E+03 -0.71254778837E+02  0.42929167825E+03  0.46897872146E+03  0.00000000000E+00 0. -1.
<mgrwt>
<rscale>  0 0.77608066E+03</rscale>
<asrwt>0</asrwt>
<pdfrwt beam="1">  1        2 0.74888610E-01 0.77608066E+03</pdfrwt>
<pdfrwt beam="2">  1       -2 0.47589512E-01 0.77608066E+03</pdfrwt>
<totfact> 0.26782271E+02</totfact>
</mgrwt>
</event>
<event>
 6    1  0.9364335E-007  0.6026430E+03  0.7818608E-02  0.9899938E-01
         -2   -1    0    0    0  501 -0.00000000000E+00  0.00000000000E+00  0.13916185468E+03  0.13916185468E+03  0.00000000000E+00 0.  1.
          2   -1    0    0  501    0  0.00000000000E+00 -0.00000000000E+00 -0.65243928305E+03  0.65243928305E+03  0.00000000000E+00 0. -1.
         23    2    1    2    0    0  0.27261395705E+03 -0.10139273768E+03 -0.32157549326E+03  0.44325003789E+03  0.91983375667E+02 0.  0.
         13    1    3    3    0    0  0.15885631263E+03 -0.16991917620E+02 -0.20432349630E+03  0.25936874228E+03  0.00000000000E+00 0. -1.
        -13    1    3    3    0    0  0.11375764441E+03 -0.84400820057E+02 -0.11725199696E+03  0.18388129562E+03  0.00000000000E+00 0.  1.
         22    1    1    2    0    0 -0.27261395705E+03  0.10139273768E+03 -0.19170193511E+03  0.34835109983E+03  0.00000000000E+00 0.  1.
<mgrwt>
<rscale>  0 0.60264305E+03</rscale>
<asrwt>0</asrwt>
<pdfrwt beam="1">  1        2 0.10037527E+00 0.60264305E+03</pdfrwt>
<pdfrwt beam="2">  1       -2 0.21409517E-01 0.60264305E+03</pdfrwt>
<totfact> 0.85094451E+02</totfact>
</mgrwt>
</event>
<event>
 6    1  0.9963723E-007  0.3470028E+04  0.7818608E-02  0.8120930E-01
         -1   -1    0    0    0  501 -0.00000000000E+00  0.00000000000E+00  0.22889795771E+04  0.22889795771E+04  0.00000000000E+00 0.  1.
          1   -1    0    0  501    0  0.00000000000E+00 -0.00000000000E+00 -0.13151160549E+04  0.13151160549E+04  0.00000000000E+00 0. -1.
         23    2    1    2    0    0 -0.42015592996E+02 -0.54890299933E+03  0.21948854067E+04  0.22647098566E+04  0.91263209446E+02 0.  0.
         11    1    3    3    0    0 -0.53142245741E+02 -0.20766638840E+03  0.74973523381E+03  0.77977711429E+03  0.00000000000E+00 0.  1.
        -11    1    3    3    0    0  0.11126652746E+02 -0.34123661093E+03  0.14451501729E+04  0.14849327424E+04  0.00000000000E+00 0. -1.
         22    1    1    2    0    0  0.42015592996E+02  0.54890299933E+03 -0.12210218845E+04  0.13393857753E+04  0.00000000000E+00 0. -1.
<mgrwt>
<rscale>  0 0.34700281E+04</rscale>
<asrwt>0</asrwt>
<pdfrwt beam="1">  1        1 0.20232555E+00 0.34700281E+04</pdfrwt>
<pdfrwt beam="2">  1       -1 0.35215070E+00 0.34700281E+04</pdfrwt>
<totfact> 0.10845261E-01</totfact>
</mgrwt>
</event>
<event>
 6    1  0.9364335E-007  0.5147462E+04  0.7818608E-02  0.7806154E-01
         -2   -1    0    0    0  501 -0.00000000000E+00  0.00000000000E+00  0.18133865243E+04  0.18133865243E+04  0.00000000000E+00 0.  1.
          2   -1    0    0  501    0  0.00000000000E+00 -0.00000000000E+00 -0.36528846015E+04  0.36528846015E+04  0.00000000000E+00 0. -1.
         23    2    1    2    0    0  0.14258925883E+04  0.56862505102E+03  0.12726638581E+04  0.19961045543E+04  0.90862391315E+02 0.  0.
         13    1    3    3    0    0  0.12338629347E+04  0.45778977272E+03  0.10870728347E+04  0.17069612080E+04  0.00000000000E+00 0.  1.
        -13    1    3    3    0    0  0.19202965361E+03  0.11083527830E+03  0.18559102338E+03  0.28914334635E+03  0.00000000000E+00 0. -1.
         22    1    1    2    0    0 -0.14258925883E+04 -0.56862505102E+03 -0.31121619354E+04  0.34701665715E+04  0.00000000000E+00 0. -1.
<mgrwt>
<rscale>  0 0.51474622E+04</rscale>
<asrwt>0</asrwt>
<pdfrwt beam="1">  1        2 0.56198224E+00 0.51474622E+04</pdfrwt>
<pdfrwt beam="2">  1       -2 0.27898255E+00 0.51474622E+04</pdfrwt>
<totfact> 0.19377895E-02</totfact>
</mgrwt>
</event>
<event>
 6    1  0.9364335E-007  0.3658737E+04  0.7818608E-02  0.8077168E-01
         -3   -1    0    0    0  501 -0.00000000000E+00  0.00000000000E+00  0.17499951069E+04  0.17499951069E+04  0.00000000000E+00 0.  1.
          3   -1    0    0  501    0  0.00000000000E+00 -0.00000000000E+00 -0.19123423047E+04  0.19123423047E+04  0.00000000000E+00 0. -1.
         23    2    1    2    0    0  0.10841891779E+04  0.10398206548E+04 -0.11242493287E+04  0.18785356074E+04  0.90919236373E+02 0.  0.
         11    1    3    3    0    0  0.34012419589E+03  0.31308311786E+03 -0.29564032210E+03  0.54873373085E+03  0.00000000000E+00 0. -1.
        -11    1    3    3    0    0  0.74406498199E+03  0.72673753694E+03 -0.82860900655E+03  0.13298018765E+04  0.00000000000E+00 0.  1.
         22    1    1    2    0    0 -0.10841891779E+04 -0.10398206548E+04  0.96190213077E+03  0.17838018042E+04  0.00000000000E+00 0.  1.
<mgrwt>
<rscale>  0 0.36587373E+04</rscale>
<asrwt>0</asrwt>
<pdfrwt beam="1">  1        3 0.29420651E+00 0.36587373E+04</pdfrwt>
<pdfrwt beam="2">  1       -3 0.26923002E+00 0.36587373E+04</pdfrwt>
<totfact> 0.49389914E-03</totfact>
</mgrwt>
</event>
<event>
 6    1  0.9364335E-007  0.2225461E+04  0.7818608E-02  0.8507905E-01
         -1   -1    0    0    0  501 -0.00000000000E+00  0.00000000000E+00  0.86623588577E+03  0.86623588577E+03  0.00000000000E+00 0.  1.
          1   -1    0    0  501    0  0.00000000000E+00 -0.00000000000E+00 -0.14293673482E+04  0.14293673482E+04  0.00000000000E+00 0. -1.
         23    2    1    2    0    0  0.19896778861E+03 -0.31838139535E+03 -0.13604046099E+04  0.14143544804E+04  0.93504010529E+02 0.  0.
         13    1    3    3    0    0  0.18207502421E+03 -0.21936639822E+03 -0.95123836375E+03  0.99303945328E+03  0.00000000000E+00 0. -1.
        -13    1    3    3    0    0  0.16892764397E+02 -0.99014997134E+02 -0.40916624612E+03  0.42131502716E+03  0.00000000000E+00 0.  1.
         22    1    1    2    0    0 -0.19896778861E+03  0.31838139535E+03  0.79727314749E+03  0.88124875348E+03  0.00000000000E+00 0.  1.
<mgrwt>
<rscale>  0 0.22254611E+04</rscale>
<asrwt>0</asrwt>
<pdfrwt beam="1">  1        1 0.21990267E+00 0.22254611E+04</pdfrwt>
<pdfrwt beam="2">  1       -1 0.13326706E+00 0.22254611E+04</pdfrwt>
<totfact> 0.31736896E+00</totfact>
</mgrwt>
</event>
<event>
 6    1  0.9364335E-007  0.3450339E+04  0.7818608E-02  0.8125661E-01
          2   -1    0    0  501    0  0.00000000000E+00  0.00000000000E+00  0.24364252182E+04  0.24364252182E+04  0.00000000000E+00 0. -1.
         -2   -1    0    0    0  501 -0.00000000000E+00 -0.00000000000E+00 -0.12215474526E+04  0.12215474526E+04  0.00000000000E+00 0.  1.
         23    2    1    2    0    0 -0.94299807884E+03 -0.48734749296E+03  0.20479767501E+04  0.23085999004E+04  0.93122369164E+02 0.  0.
         11    1    3    3    0    0 -0.60388070647E+02 -0.56904902986E+02  0.13959713001E+03  0.16239533788E+03  0.00000000000E+00 0. -1.
        -11    1    3    3    0    0 -0.88261000819E+03 -0.43044258998E+03  0.19083796201E+04  0.21462045625E+04  0.00000000000E+00 0.  1.
         22    1    1    2    0    0  0.94299807884E+03  0.48734749296E+03 -0.83309898450E+03  0.13493727704E+04  0.00000000000E+00 0.  1.
<mgrwt>
<rscale>  0 0.34503385E+04</rscale>
<asrwt>0</asrwt>
<pdfrwt beam="1">  1        2 0.37483465E+00 0.34503385E+04</pdfrwt>
<pdfrwt beam="2">  1       -2 0.18793038E+00 0.34503385E+04</pdfrwt>
<totfact> 0.50023590E-01</totfact>
</mgrwt>
</event>
<event>
 6    1  0.9364335E-007  0.5745010E+03  0.7818608E-02  0.9959768E-01
          2   -1    0    0  501    0  0.00000000000E+00  0.00000000000E+00  0.16617265487E+04  0.16617265487E+04  0.00000000000E+00 0. -1.
         -2   -1    0    0    0  501 -0.00000000000E+00 -0.00000000000E+00 -0.49654886583E+02  0.49654886583E+02  0.00000000000E+00 0.  1.
         23    2    1    2    0    0 -0.18404300649E+03 -0.15675657569E+03  0.40517792478E+03  0.48051306479E+03  0.90990122781E+02 0.  0.
         11    1    3    3    0    0 -0.11350934836E+03 -0.93356962323E+02  0.15810677324E+03  0.21586487978E+03  0.00000000000E+00 0. -1.
        -11    1    3    3    0    0 -0.70533658129E+02 -0.63399613369E+02  0.24707115153E+03  0.26464818500E+03  0.00000000000E+00 0.  1.
         22    1    1    2    0    0  0.18404300649E+03  0.15675657569E+03  0.12068937374E+04  0.12308683705E+04  0.00000000000E+00 0. -1.
<mgrwt>
<rscale>  0 0.57450098E+03</rscale>
<asrwt>0</asrwt>
<pdfrwt beam="1">  1        2 0.25565020E+00 0.57450098E+03</pdfrwt>
<pdfrwt beam="2">  1       -2 0.76392146E-02 0.57450098E+03</pdfrwt>
<totfact> 0.11170093E+03</totfact>
</mgrwt>
</event>
<event>
 6    1  0.1711634E-006  0.4383765E+04  0.7818608E-02  0.7931308E-01
         -2   -1    0    0    0  501 -0.00000000000E+00  0.00000000000E+00  0.16695715231E+04  0.16695715231E+04  0.00000000000E+00 0.  1.
          2   -1    0    0  501    0  0.00000000000E+00 -0.00000000000E+00 -0.28775938235E+04  0.28775938235E+04  0.00000000000E+00 0. -1.
         23    2    1    2    0    0  0.13044219106E+04  0.21083045105E+03 -0.24170380812E+04  0.27561641857E+04  0.91662056414E+02 0.  0.
         13    1    3    3    0    0  0.50637473940E+03  0.10162078186E+03 -0.86159613650E+03  0.10045347492E+04  0.00000000000E+00 0.  1.
        -13    1    3    3    0    0  0.79804717124E+03  0.10920966920E+03 -0.15554419447E+04  0.17516294365E+04  0.00000000000E+00 0. -1.
         22    1    1    2    0    0 -0.13044219106E+04 -0.21083045105E+03  0.12090157808E+04  0.17910011609E+04  0.00000000000E+00 0.  1.
<mgrwt>
<rscale>  0 0.43837649E+04</rscale>
<asrwt>0</asrwt>
<pdfrwt beam="1">  1        2 0.44270673E+00 0.43837649E+04</pdfrwt>
<pdfrwt beam="2">  1       -2 0.25685716E+00 0.43837649E+04</pdfrwt>
<totfact> 0.92475538E-02</totfact>
</mgrwt>
</event>
<event>
 6    1  0.9364335E-007  0.1772345E+04  0.7818608E-02  0.8721146E-01
          2   -1    0    0  501    0  0.00000000000E+00  0.00000000000E+00  0.15327576358E+04  0.15327576358E+04  0.00000000000E+00 0. -1.
         -2   -1    0    0    0  501 -0.00000000000E+00 -0.00000000000E+00 -0.51234588521E+03  0.51234588521E+03  0.00000000000E+00 0.  1.
         23    2    1    2    0    0 -0.10439011788E+03 -0.85767187320E+03  0.72647656229E+03  0.11324720326E+04  0.90699339469E+02 0.  0.
         11    1    3    3    0    0 -0.94073170670E+02 -0.72082186240E+03  0.65112279034E+03  0.97590717123E+03  0.00000000000E+00 0. -1.
        -11    1    3    3    0    0 -0.10316947213E+02 -0.13685001081E+03  0.75353771945E+02  0.15656486133E+03  0.00000000000E+00 0.  1.
         22    1    1    2    0    0  0.10439011788E+03  0.85767187320E+03  0.29393518832E+03  0.91263148846E+03  0.00000000000E+00 0.  1.
<mgrwt>
<rscale>  0 0.17723454E+04</rscale>
<asrwt>0</asrwt>
<pdfrwt beam="1">  1        2 0.23580886E+00 0.17723454E+04</pdfrwt>
<pdfrwt beam="2">  1       -2 0.78822445E-01 0.17723454E+04</pdfrwt>
<totfact> 0.16448631E+01</totfact>
</mgrwt>
</event>
<event>
 6    1  0.9364335E-007  0.2287024E+04  0.7818608E-02  0.8483055E-01
         -2   -1    0    0    0  501 -0.00000000000E+00  0.00000000000E+00  0.81827458978E+03  0.81827458978E+03  0.00000000000E+00 0.  1.
          2   -1    0    0  501    0  0.00000000000E+00 -0.00000000000E+00 -0.15980212264E+04  0.15980212264E+04  0.00000000000E+00 0. -1.
         23    2    1    2    0    0  0.40067757895E+03 -0.29916284632E+03 -0.14751385217E+04  0.15597849846E+04  0.82792567038E+02 0.  0.
         11    1    3    3    0    0  0.29165623932E+03 -0.20841414807E+03 -0.11615616485E+04  0.12156172434E+04  0.00000000000E+00 0.  1.
        -11    1    3    3    0    0  0.10902133963E+03 -0.90748698251E+02 -0.31357687316E+03  0.34416774124E+03  0.00000000000E+00 0. -1.
         22    1    1    2    0    0 -0.40067757895E+03  0.29916284632E+03  0.69539188503E+03  0.85651083161E+03  0.00000000000E+00 0.  1.
<mgrwt>
<rscale>  0 0.22870244E+04</rscale>
<asrwt>0</asrwt>
<pdfrwt beam="1">  1        2 0.24584942E+00 0.22870244E+04</pdfrwt>
<pdfrwt beam="2">  1       -2 0.12588840E+00 0.22870244E+04</pdfrwt>
<totfact> 0.47801879E+00</totfact>
</mgrwt>
</event>
<event>
 6    1  0.9364335E-007  0.4023756E+04  0.7818608E-02  0.7999771E-01
         -2   -1    0    0    0  501 -0.00000000000E+00  0.00000000000E+00  0.19552995077E+04  0.19552995077E+04  0.00000000000E+00 0.  1.
          2   -1    0    0  501    0  0.00000000000E+00 -0.00000000000E+00 -0.20700932482E+04  0.20700932482E+04  0.00000000000E+00 0. -1.
         23    2    1    2    0    0 -0.83428951613E+03 -0.14396241296E+04  0.10716105429E+04  0.19818390485E+04  0.10382787325E+03 0.  0.
         11    1    3    3    0    0 -0.46300453936E+03 -0.88866919009E+03  0.61614582251E+03  0.11763255534E+04  0.00000000000E+00 0.  1.
        -11    1    3    3    0    0 -0.37128497676E+03 -0.55095493953E+03  0.45546472035E+03  0.80551349514E+03  0.00000000000E+00 0. -1.
         22    1    1    2    0    0  0.83428951613E+03  0.14396241296E+04 -0.11864042834E+04  0.20435537074E+04  0.00000000000E+00 0. -1.
<mgrwt>
<rscale>  0 0.40237556E+04</rscale>
<asrwt>0</asrwt>
<pdfrwt beam="1">  1        2 0.31847588E+00 0.40237556E+04</pdfrwt>
<pdfrwt beam="2">  1       -2 0.30081531E+00 0.40237556E+04</pdfrwt>
<totfact> 0.15107276E-01</totfact>
</mgrwt>
</event>
<event>
 6    1  0.9364335E-007  0.2576303E+04  0.7818608E-02  0.8376295E-01
         -2   -1    0    0    0  501 -0.00000000000E+00  0.00000000000E+00  0.22062946579E+04  0.22062946579E+04  0.00000000000E+00 0.  1.
          2   -1    0    0  501    0  0.00000000000E+00 -0.00000000000E+00 -0.75209120170E+03  0.75209120170E+03  0.00000000000E+00 0. -1.
         23    2    1    2    0    0 -0.28505767827E+03  0.33513588337E+03 -0.66054384205E+03  0.79835574969E+03  0.86485811206E+02 0.  0.
         13    1    3    3    0    0 -0.11671065550E+03  0.16969550672E+03 -0.24137448296E+03  0.31730046192E+03  0.00000000000E+00 0.  1.
        -13    1    3    3    0    0 -0.16834702277E+03  0.16544037665E+03 -0.41916935908E+03  0.48105528778E+03  0.00000000000E+00 0. -1.
         22    1    1    2    0    0  0.28505767827E+03 -0.33513588337E+03  0.21147472983E+04  0.21600301099E+04  0.00000000000E+00 0.  1.
<mgrwt>
<rscale>  0 0.25763034E+04</rscale>
<asrwt>0</asrwt>
<pdfrwt beam="1">  1        2 0.11570634E+00 0.25763034E+04</pdfrwt>
<pdfrwt beam="2">  1       -2 0.33942995E+00 0.25763034E+04</pdfrwt>
<totfact> 0.60054729E-01</totfact>
</mgrwt>
</event>
<event>
 6    1  0.9364335E-007  0.2065467E+04  0.7818608E-02  0.8576610E-01
          1   -1    0    0  501    0  0.00000000000E+00  0.00000000000E+00  0.81103012830E+03  0.81103012830E+03  0.00000000000E+00 0. -1.
         -1   -1    0    0    0  501 -0.00000000000E+00 -0.00000000000E+00 -0.13150421425E+04  0.13150421425E+04  0.00000000000E+00 0.  1.
         23    2    1    2    0    0  0.48330920109E+03 -0.18632638687E+03 -0.11697442624E+04  0.12825648716E+04  0.91464222125E+02 0.  0.
         11    1    3    3    0    0  0.14516787442E+03 -0.52893526541E+02 -0.25389909775E+03  0.29721404534E+03  0.00000000000E+00 0. -1.
        -11    1    3    3    0    0  0.33814132667E+03 -0.13343286033E+03 -0.91584516470E+03  0.98535082622E+03  0.00000000000E+00 0.  1.
         22    1    1    2    0    0 -0.48330920109E+03  0.18632638687E+03  0.66573224822E+03  0.84350739927E+03  0.00000000000E+00 0. -1.
<mgrwt>
<rscale>  0 0.20654673E+04</rscale>
<asrwt>0</asrwt>
<pdfrwt beam="1">  1        1 0.12477387E+00 0.20654673E+04</pdfrwt>
<pdfrwt beam="2">  1       -1 0.20231418E+00 0.20654673E+04</pdfrwt>
<totfact> 0.28938353E+00</totfact>
</mgrwt>
</event>
<event>
 6    1  0.9364335E-007  0.8105901E+03  0.7818608E-02  0.9544814E-01
          1   -1    0    0  501    0  0.00000000000E+00  0.00000000000E+00  0.94136162504E+03  0.94136162504E+03  0.00000000000E+00 0. -1.
         -1   -1    0    0    0  501 -0.00000000000E+00 -0.00000000000E+00 -0.17449627015E+03  0.17449627015E+03  0.00000000000E+00 0.  1.
         23    2    1    2    0    0  0.19329681660E+03 -0.89524322855E+01  0.87031151093E+03  0.89643840528E+03  0.93358893745E+02 0.  0.
         13    1    3    3    0    0  0.97154612887E+02  0.38354362685E+02  0.35215688091E+03  0.36732076542E+03  0.00000000000E+00 0.  1.
        -13    1    3    3    0    0  0.96142203718E+02 -0.47306794971E+02  0.51815463003E+03  0.52911763986E+03  0.00000000000E+00 0. -1.
         22    1    1    2    0    0 -0.19329681660E+03  0.89524322855E+01 -0.10344615604E+03  0.21941948991E+03  0.00000000000E+00 0.  1.
<mgrwt>
<rscale>  0 0.81059014E+03</rscale>
<asrwt>0</asrwt>
<pdfrwt beam="1">  1        1 0.14482486E+00 0.81059014E+03</pdfrwt>
<pdfrwt beam="2">  1       -1 0.26845581E-01 0.81059014E+03</pdfrwt>
<totfact> 0.21057256E+02</totfact>
</mgrwt>
</event>
<event>
 6    1  0.9364335E-007  0.7358279E+04  0.7818608E-02  0.7541574E-01
          2   -1    0    0  501    0  0.00000000000E+00  0.00000000000E+00  0.28933692728E+04  0.28933692728E+04  0.00000000000E+00 0. -1.
         -2   -1    0    0    0  501 -0.00000000000E+00 -0.00000000000E+00 -0.46783061249E+04  0.46783061249E+04  0.00000000000E+00 0.  1.
         23    2    1    2    0    0  0.17788334077E+04 -0.10756535364E+04  0.22303303594E+04  0.30502099713E+04  0.90158384748E+02 0.  0.
         13    1    3    3    0    0  0.16090409518E+04 -0.10001127078E+04  0.20146855222E+04  0.27655371931E+04  0.00000000000E+00 0. -1.
        -13    1    3    3    0    0  0.16979245586E+03 -0.75540828604E+02  0.21564483721E+03  0.28467277824E+03  0.00000000000E+00 0.  1.
         22    1    1    2    0    0 -0.17788334077E+04  0.10756535364E+04 -0.40152672114E+04  0.45214654264E+04  0.00000000000E+00 0.  1.
<mgrwt>
<rscale>  0 0.73582789E+04</rscale>
<asrwt>0</asrwt>
<pdfrwt beam="1">  1        2 0.44513374E+00 0.73582789E+04</pdfrwt>
<pdfrwt beam="2">  1       -2 0.71973940E+00 0.73582789E+04</pdfrwt>
<totfact> 0.24253601E-04</totfact>
</mgrwt>
</event>
<event>
 6    1  0.1045997E-006  0.2188897E+04  0.7818608E-02  0.8523064E-01
          1   -1    0    0  501    0  0.00000000000E+00  0.00000000000E+00  0.20475050006E+04  0.20475050006E+04  0.00000000000E+00 0. -1.
         -1   -1    0    0    0  501 -0.00000000000E+00 -0.00000000000E+00 -0.58501343460E+03  0.58501343460E+03  0.00000000000E+00 0.  1.
         23    2    1    2    0    0  0.13451562985E+03  0.82279755446E+02  0.20327558703E+04  0.20408548572E+04  0.90153796709E+02 0.  0.
         13    1    3    3    0    0  0.42485927871E+02 -0.13516867339E+02  0.72496251263E+03  0.72633215851E+03  0.00000000000E+00 0.  1.
        -13    1    3    3    0    0  0.92029701979E+02  0.95796622785E+02  0.13077933576E+04  0.13145226987E+04  0.00000000000E+00 0. -1.
         22    1    1    2    0    0 -0.13451562985E+03 -0.82279755446E+02 -0.57026430428E+03  0.59166357803E+03  0.00000000000E+00 0.  1.
<mgrwt>
<rscale>  0 0.21888974E+04</rscale>
<asrwt>0</asrwt>
<pdfrwt beam="1">  1        1 0.31500076E+00 0.21888974E+04</pdfrwt>
<pdfrwt beam="2">  1       -1 0.90002068E-01 0.21888974E+04</pdfrwt>
<totfact> 0.30492288E+00</totfact>
</mgrwt>
</event>
<event>
 6    1  0.9364335E-007  0.7882866E+03  0.7818608E-02  0.9577128E-01
          1   -1    0    0  501    0  0.00000000000E+00  0.00000000000E+00  0.25300555048E+03  0.25300555048E+03  0.00000000000E+00 0. -1.
         -1   -1    0    0    0  501 -0.00000000000E+00 -0.00000000000E+00 -0.61401388627E+03  0.61401388627E+03  0.00000000000E+00 0.  1.
         23    2    1    2    0    0 -0.46306396319E+02 -0.20554030750E+03  0.17667721161E+03  0.28952757687E+03  0.90665761544E+02 0.  0.
         13    1    3    3    0    0 -0.22312068831E+02 -0.17565458885E+03  0.98885315996E+02  0.20280697404E+03  0.00000000000E+00 0. -1.
        -13    1    3    3    0    0 -0.23994327488E+02 -0.29885718645E+02  0.77791895615E+02  0.86720602823E+02  0.00000000000E+00 0.  1.
         22    1    1    2    0    0  0.46306396319E+02  0.20554030750E+03 -0.53768554740E+03  0.57749185988E+03  0.00000000000E+00 0.  1.
<mgrwt>
<rscale>  0 0.78828655E+03</rscale>
<asrwt>0</asrwt>
<pdfrwt beam="1">  1        1 0.38923931E-01 0.78828655E+03</pdfrwt>
<pdfrwt beam="2">  1       -1 0.94463674E-01 0.78828655E+03</pdfrwt>
<totfact> 0.12028773E+02</totfact>
</mgrwt>
</event>
<event>
 6    1  0.9364335E-007  0.3306664E+04  0.7818608E-02  0.8161202E-01
          1   -1    0    0  501    0  0.00000000000E+00  0.00000000000E+00  0.22669248554E+04  0.22669248554E+04  0.00000000000E+00 0. -1.
         -1   -1    0    0    0  501 -0.00000000000E+00 -0.00000000000E+00 -0.12058218236E+04  0.12058218236E+04  0.00000000000E+00 0.  1.
         23    2    1    2    0    0  0.14385889804E+04 -0.26144038254E+03  0.13386610255E+04  0.19844833394E+04  0.90947539553E+02 0.  0.
         11    1    3    3    0    0  0.12246348675E+04 -0.25514259883E+03  0.11435381268E+04  0.16948474125E+04  0.00000000000E+00 0.  1.
        -11    1    3    3    0    0  0.21395411296E+03 -0.62977837085E+01  0.19512289864E+03  0.28963592682E+03  0.00000000000E+00 0. -1.
         22    1    1    2    0    0 -0.14385889804E+04  0.26144038254E+03 -0.27755799375E+03  0.14882633396E+04  0.00000000000E+00 0.  1.
<mgrwt>
<rscale>  0 0.33066645E+04</rscale>
<asrwt>0</asrwt>
<pdfrwt beam="1">  1        1 0.34875767E+00 0.33066645E+04</pdfrwt>
<pdfrwt beam="2">  1       -1 0.18551105E+00 0.33066645E+04</pdfrwt>
<totfact> 0.30900953E-01</totfact>
</mgrwt>
</event>
<event>
 6    1  0.9364335E-007  0.4530258E+04  0.7818608E-02  0.7905361E-01
         -2   -1    0    0    0  501 -0.00000000000E+00  0.00000000000E+00  0.16647354747E+04  0.16647354747E+04  0.00000000000E+00 0.  1.
          2   -1    0    0  501    0  0.00000000000E+00 -0.00000000000E+00 -0.30820561935E+04  0.30820561935E+04  0.00000000000E+00 0. -1.
         23    2    1    2    0    0  0.57192097786E+03  0.16549677041E+04 -0.22131571165E+04  0.28234177372E+04  0.87244423600E+02 0.  0.
         13    1    3    3    0    0  0.26801581458E+03  0.74559529576E+03 -0.10697408672E+04  0.13311988374E+04  0.00000000000E+00 0. -1.
        -13    1    3    3    0    0  0.30390516329E+03  0.90937240838E+03 -0.11434162494E+04  0.14922188997E+04  0.00000000000E+00 0.  1.
         22    1    1    2    0    0 -0.57192097786E+03 -0.16549677041E+04  0.79583639771E+03  0.19233739310E+04  0.00000000000E+00 0.  1.
<mgrwt>
<rscale>  0 0.45302575E+04</rscale>
<asrwt>0</asrwt>
<pdfrwt beam="1">  1        2 0.47416249E+00 0.45302575E+04</pdfrwt>
<pdfrwt beam="2">  1       -2 0.25611315E+00 0.45302575E+04</pdfrwt>
<totfact> 0.68783158E-02</totfact>
</mgrwt>
</event>
<event>
 6    1  0.9364335E-007  0.1698423E+04  0.7818608E-02  0.8762264E-01
          1   -1    0    0  501    0  0.00000000000E+00  0.00000000000E+00  0.10434712989E+04  0.10434712989E+04  0.00000000000E+00 0. -1.
         -1   -1    0    0    0  501 -0.00000000000E+00 -0.00000000000E+00 -0.69111616094E+03  0.69111616094E+03  0.00000000000E+00 0.  1.
         23    2    1    2    0    0  0.39433321800E+03 -0.73379142100E+03  0.33153776973E+03  0.90129165452E+03  0.91982701638E+02 0.  0.
         11    1    3    3    0    0  0.29570846006E+03 -0.47086373705E+03  0.24349015371E+03  0.60699555779E+03  0.00000000000E+00 0. -1.
        -11    1    3    3    0    0  0.98624757932E+02 -0.26292768394E+03  0.88047616024E+02  0.29429609673E+03  0.00000000000E+00 0.  1.
         22    1    1    2    0    0 -0.39433321800E+03  0.73379142100E+03  0.20817368223E+02  0.83329580532E+03  0.00000000000E+00 0. -1.
<mgrwt>
<rscale>  0 0.16984227E+04</rscale>
<asrwt>0</asrwt>
<pdfrwt beam="1">  1        1 0.16053405E+00 0.16984227E+04</pdfrwt>
<pdfrwt beam="2">  1       -1 0.10632556E+00 0.16984227E+04</pdfrwt>
<totfact> 0.11018139E+01</totfact>
</mgrwt>
</event>
<event>
 6    1  0.9364335E-007  0.9612094E+03  0.7818608E-02  0.9352144E-01
          2   -1    0    0  501    0  0.00000000000E+00  0.00000000000E+00  0.29325922348E+03  0.29325922348E+03  0.00000000000E+00 0. -1.
         -2   -1    0    0    0  501 -0.00000000000E+00 -0.00000000000E+00 -0.78763387701E+03  0.78763387701E+03  0.00000000000E+00 0.  1.
         23    2    1    2    0    0  0.27686581035E+03  0.20651414782E+03 -0.61814101758E+03  0.71398591459E+03  0.91513924740E+02 0.  0.
         11    1    3    3    0    0  0.20054849114E+03  0.17739220458E+03 -0.40276203553E+03  0.48363720784E+03  0.00000000000E+00 0. -1.
        -11    1    3    3    0    0  0.76317319209E+02  0.29121943241E+02 -0.21537898206E+03  0.23034870675E+03  0.00000000000E+00 0.  1.
         22    1    1    2    0    0 -0.27686581035E+03 -0.20651414782E+03  0.12376636406E+03  0.36690718590E+03  0.00000000000E+00 0. -1.
<mgrwt>
<rscale>  0 0.96120944E+03</rscale>
<asrwt>0</asrwt>
<pdfrwt beam="1">  1        2 0.45116804E-01 0.96120944E+03</pdfrwt>
<pdfrwt beam="2">  1       -2 0.12117444E+00 0.96120944E+03</pdfrwt>
<totfact> 0.58357132E+01</totfact>
</mgrwt>
</event>
<event>
 6    1  0.9364335E-007  0.1815622E+04  0.7818608E-02  0.8698036E-01
          2   -1    0    0  501    0  0.00000000000E+00  0.00000000000E+00  0.43223784377E+04  0.43223784377E+04  0.00000000000E+00 0. -1.
         -2   -1    0    0    0  501 -0.00000000000E+00 -0.00000000000E+00 -0.19066381836E+03  0.19066381836E+03  0.00000000000E+00 0.  1.
         23    2    1    2    0    0 -0.58199804529E+03 -0.33707362168E+03  0.35791284226E+04  0.36425872854E+04  0.77081223590E+02 0.  0.
         11    1    3    3    0    0 -0.77113579551E+02 -0.55912068856E+02  0.38538352060E+03  0.39698000144E+03  0.00000000000E+00 0.  1.
        -11    1    3    3    0    0 -0.50488446574E+03 -0.28116155283E+03  0.31937449020E+04  0.32456072840E+04  0.00000000000E+00 0. -1.
         22    1    1    2    0    0  0.58199804529E+03  0.33707362168E+03  0.55258619677E+03  0.87045497070E+03  0.00000000000E+00 0.  1.
<mgrwt>
<rscale>  0 0.18156224E+04</rscale>
<asrwt>0</asrwt>
<pdfrwt beam="1">  1        2 0.66498122E+00 0.18156224E+04</pdfrwt>
<pdfrwt beam="2">  1       -2 0.29332898E-01 0.18156224E+04</pdfrwt>
<totfact> 0.18605220E+00</totfact>
</mgrwt>
</event>
<event>
 6    1  0.9364335E-007  0.3269205E+04  0.7818608E-02  0.8170776E-01
         -3   -1    0    0    0  501 -0.00000000000E+00  0.00000000000E+00  0.19889022406E+04  0.19889022406E+04  0.00000000000E+00 0.  1.
          3   -1    0    0  501    0  0.00000000000E+00 -0.00000000000E+00 -0.13434174662E+04  0.13434174662E+04  0.00000000000E+00 0. -1.
         23    2    1    2    0    0 -0.29346797717E+03  0.72634723586E+03 -0.11378075112E+04  0.13845427338E+04  0.92999399926E+02 0.  0.
         11    1    3    3    0    0 -0.92355340396E+01  0.32451244388E+02 -0.89563615910E+02  0.95707991548E+02  0.00000000000E+00 0. -1.
        -11    1    3    3    0    0 -0.28423244313E+03  0.69389599148E+03 -0.10482438953E+04  0.12888347422E+04  0.00000000000E+00 0.  1.
         22    1    1    2    0    0  0.29346797717E+03 -0.72634723586E+03  0.17832922856E+04  0.19477769730E+04  0.00000000000E+00 0.  1.
<mgrwt>
<rscale>  0 0.32692054E+04</rscale>
<asrwt>0</asrwt>
<pdfrwt beam="1">  1        3 0.20667961E+00 0.32692054E+04</pdfrwt>
<pdfrwt beam="2">  1       -3 0.30598496E+00 0.32692054E+04</pdfrwt>
<totfact> 0.10197402E-02</totfact>
</mgrwt>
</event>
<event>
 6    1  0.9364335E-007  0.1503780E+04  0.7818608E-02  0.8881943E-01
          2   -1    0    0  501    0  0.00000000000E+00  0.00000000000E+00  0.10280875565E+04  0.10280875565E+04  0.00000000000E+00 0. -1.
         -2   -1    0    0    0  501 -0.00000000000E+00 -0.00000000000E+00 -0.54989307827E+03  0.54989307827E+03  0.00000000000E+00 0.  1.
         23    2    1    2    0    0  0.54250635422E+03  0.51244450306E+03  0.30961434906E+03  0.81291085166E+03  0.89724548021E+02 0.  0.
         13    1    3    3    0    0  0.46750073925E+03  0.44242265221E+03  0.23177053636E+03  0.68411426378E+03  0.00000000000E+00 0.  1.
        -13    1    3    3    0    0  0.75005614975E+02  0.70021850855E+02  0.77843812695E+02  0.12879658788E+03  0.00000000000E+00 0. -1.
         22    1    1    2    0    0 -0.54250635422E+03 -0.51244450306E+03  0.16858012920E+03  0.76506978313E+03  0.00000000000E+00 0. -1.
<mgrwt>
<rscale>  0 0.15037795E+04</rscale>
<asrwt>0</asrwt>
<pdfrwt beam="1">  1        2 0.15816732E+00 0.15037795E+04</pdfrwt>
<pdfrwt beam="2">  1       -2 0.84598936E-01 0.15037795E+04</pdfrwt>
<totfact> 0.28438938E+01</totfact>
</mgrwt>
</event>
<event>
 6    1  0.9364335E-007  0.5746017E+03  0.7818608E-02  0.9959547E-01
         -2   -1    0    0    0  501 -0.00000000000E+00  0.00000000000E+00  0.11338912158E+04  0.11338912158E+04  0.00000000000E+00 0.  1.
          2   -1    0    0  501    0  0.00000000000E+00 -0.00000000000E+00 -0.72795149098E+02  0.72795149098E+02  0.00000000000E+00 0. -1.
         23    2    1    2    0    0  0.12549867342E+03 -0.17536020157E+03  0.17525580336E+03  0.29497693230E+03  0.98973110778E+02 0.  0.
         13    1    3    3    0    0  0.48887481913E+02 -0.11500503952E+02  0.12748830781E+02  0.51814864327E+02  0.00000000000E+00 0. -1.
        -13    1    3    3    0    0  0.76611191504E+02 -0.16385969762E+03  0.16250697258E+03  0.24316206798E+03  0.00000000000E+00 0.  1.
         22    1    1    2    0    0 -0.12549867342E+03  0.17536020157E+03  0.88584026338E+03  0.91170943263E+03  0.00000000000E+00 0.  1.
<mgrwt>
<rscale>  0 0.57460171E+03</rscale>
<asrwt>0</asrwt>
<pdfrwt beam="1">  1        2 0.11199255E-01 0.57460171E+03</pdfrwt>
<pdfrwt beam="2">  1       -2 0.17444479E+00 0.57460171E+03</pdfrwt>
<totfact> 0.11658254E+02</totfact>
</mgrwt>
</event>
<event>
 6    1  0.9364335E-007  0.1724962E+04  0.7818608E-02  0.8747254E-01
          2   -1    0    0  501    0  0.00000000000E+00  0.00000000000E+00  0.22942747583E+04  0.22942747583E+04  0.00000000000E+00 0. -1.
         -2   -1    0    0    0  501 -0.00000000000E+00 -0.00000000000E+00 -0.32423042570E+03  0.32423042570E+03  0.00000000000E+00 0.  1.
         23    2    1    2    0    0 -0.79046446426E+03 -0.13634045352E+03  0.14593078847E+04  0.16675716912E+04  0.88278278046E+02 0.  0.
         13    1    3    3    0    0 -0.19756754814E+03 -0.72914604113E+02  0.36907115527E+03  0.42492704458E+03  0.00000000000E+00 0.  1.
        -13    1    3    3    0    0 -0.59289691613E+03 -0.63425849403E+02  0.10902367295E+04  0.12426446466E+04  0.00000000000E+00 0. -1.
         22    1    1    2    0    0  0.79046446426E+03  0.13634045352E+03  0.51073644787E+03  0.95093349279E+03  0.00000000000E+00 0. -1.
<mgrwt>
<rscale>  0 0.17249622E+04</rscale>
<asrwt>0</asrwt>
<pdfrwt beam="1">  1        2 0.35296534E+00 0.17249622E+04</pdfrwt>
<pdfrwt beam="2">  1       -2 0.49881605E-01 0.17249622E+04</pdfrwt>
<totfact> 0.16507238E+01</totfact>
</mgrwt>
</event>
<event>
 6    1  0.9364335E-007  0.3037985E+04  0.7818608E-02  0.8232967E-01
          1   -1    0    0  501    0  0.00000000000E+00  0.00000000000E+00  0.17905835830E+04  0.17905835830E+04  0.00000000000E+00 0. -1.
         -1   -1    0    0    0  501 -0.00000000000E+00 -0.00000000000E+00 -0.12885953190E+04  0.12885953190E+04  0.00000000000E+00 0.  1.
         23    2    1    2    0    0 -0.14021859208E+04  0.42609606257E+03 -0.14823111378E+03  0.14759108488E+04  0.93043857903E+02 0.  0.
         13    1    3    3    0    0 -0.91194978051E+03  0.29974725179E+03 -0.13576189471E+03  0.96950095884E+03  0.00000000000E+00 0. -1.
        -13    1    3    3    0    0 -0.49023614032E+03  0.12634881078E+03 -0.12469219074E+02  0.50640988999E+03  0.00000000000E+00 0.  1.
         22    1    1    2    0    0  0.14021859208E+04 -0.42609606257E+03  0.65021937773E+03  0.16032680532E+04  0.00000000000E+00 0. -1.
<mgrwt>
<rscale>  0 0.30379846E+04</rscale>
<asrwt>0</asrwt>
<pdfrwt beam="1">  1        1 0.27547440E+00 0.30379846E+04</pdfrwt>
<pdfrwt beam="2">  1       -1 0.19824543E+00 0.30379846E+04</pdfrwt>
<totfact> 0.54285741E-01</totfact>
</mgrwt>
</event>
<event>
 6    1  0.9364335E-007  0.1095551E+04  0.7818608E-02  0.9209539E-01
          2   -1    0    0  501    0  0.00000000000E+00  0.00000000000E+00  0.16860780982E+04  0.16860780982E+04  0.00000000000E+00 0. -1.
         -2   -1    0    0    0  501 -0.00000000000E+00 -0.00000000000E+00 -0.17796216347E+03  0.17796216347E+03  0.00000000000E+00 0.  1.
         23    2    1    2    0    0  0.43313957266E+03  0.29023880080E+03  0.10258973406E+04  0.11538408366E+04  0.83874142239E+02 0.  0.
         13    1    3    3    0    0  0.10728238909E+03  0.10924359755E+03  0.34869150987E+03  0.38082731477E+03  0.00000000000E+00 0.  1.
        -13    1    3    3    0    0  0.32585718357E+03  0.18099520326E+03  0.67720583074E+03  0.77301352179E+03  0.00000000000E+00 0. -1.
         22    1    1    2    0    0 -0.43313957266E+03 -0.29023880080E+03  0.48221859408E+03  0.71019942507E+03  0.00000000000E+00 0.  1.
<mgrwt>
<rscale>  0 0.10955512E+04</rscale>
<asrwt>0</asrwt>
<pdfrwt beam="1">  1        2 0.25939662E+00 0.10955512E+04</pdfrwt>
<pdfrwt beam="2">  1       -2 0.27378795E-01 0.10955512E+04</pdfrwt>
<totfact> 0.12045217E+02</totfact>
</mgrwt>
</event>
<event>
 6    1  0.9364335E-007  0.2819321E+04  0.7818608E-02  0.8297295E-01
         -2   -1    0    0    0  501 -0.00000000000E+00  0.00000000000E+00  0.96977064925E+03  0.96977064925E+03  0.00000000000E+00 0.  1.
          2   -1    0    0  501    0  0.00000000000E+00 -0.00000000000E+00 -0.20490847577E+04  0.20490847577E+04  0.00000000000E+00 0. -1.
         23    2    1    2    0    0  0.76580452847E+03 -0.11817463534E+04 -0.55729331741E+03  0.15170276119E+04  0.88407658675E+02 0.  0.
         11    1    3    3    0    0  0.37219491256E+03 -0.59240119704E+03 -0.32319591960E+03  0.77066454028E+03  0.00000000000E+00 0.  1.
        -11    1    3    3    0    0  0.39360961591E+03 -0.58934515638E+03 -0.23409739781E+03  0.74636307166E+03  0.00000000000E+00 0. -1.
         22    1    1    2    0    0 -0.76580452847E+03  0.11817463534E+04 -0.52202079108E+03  0.15018277950E+04  0.00000000000E+00 0. -1.
<mgrwt>
<rscale>  0 0.28193207E+04</rscale>
<asrwt>0</asrwt>
<pdfrwt beam="1">  1        2 0.31524380E+00 0.28193207E+04</pdfrwt>
<pdfrwt beam="2">  1       -2 0.14919549E+00 0.28193207E+04</pdfrwt>
<totfact> 0.16565311E+00</totfact>
</mgrwt>
</event>
<event>
 6    1  0.9364335E-007  0.2805791E+04  0.7818608E-02  0.8301473E-01
          2   -1    0    0  501    0  0.00000000000E+00  0.00000000000E+00  0.16731507088E+04  0.16731507088E+04  0.00000000000E+00 0. -1.
         -2   -1    0    0    0  501 -0.00000000000E+00 -0.00000000000E+00 -0.11762934312E+04  0.11762934312E+04  0.00000000000E+00 0.  1.
         23    2    1    2    0    0  0.28650367995E+03  0.10660767929E+04  0.11252946864E+04  0.15791931161E+04  0.94650303141E+02 0.  0.
         13    1    3    3    0    0  0.19491756171E+03  0.55292860677E+03  0.57399811648E+03  0.82048567188E+03  0.00000000000E+00 0. -1.
        -13    1    3    3    0    0  0.91586118235E+02  0.51314818616E+03  0.55129656989E+03  0.75870744426E+03  0.00000000000E+00 0.  1.
         22    1    1    2    0    0 -0.28650367995E+03 -0.10660767929E+04 -0.62843740873E+03  0.12702510239E+04  0.00000000000E+00 0.  1.
<mgrwt>
<rscale>  0 0.28057913E+04</rscale>
<asrwt>0</asrwt>
<pdfrwt beam="1">  1        2 0.25740780E+00 0.28057913E+04</pdfrwt>
<pdfrwt beam="2">  1       -2 0.18096822E+00 0.28057913E+04</pdfrwt>
<totfact> 0.15766048E+00</totfact>
</mgrwt>
</event>
<event>
 6    1  0.9364335E-007  0.4173991E+04  0.7818608E-02  0.7970338E-01
          2   -1    0    0  501    0  0.00000000000E+00  0.00000000000E+00  0.19201962934E+04  0.19201962934E+04  0.00000000000E+00 0. -1.
         -2   -1    0    0    0  501 -0.00000000000E+00 -0.00000000000E+00 -0.22682843373E+04  0.22682843373E+04  0.00000000000E+00 0.  1.
         23    2    1    2    0    0 -0.13653027718E+04  0.12214858474E+04 -0.11752367331E+04  0.21784422510E+04  0.91377940660E+02 0.  0.
         13    1    3    3    0    0 -0.26639598721E+03  0.23455890260E+03 -0.18579451576E+03  0.40062988266E+03  0.00000000000E+00 0. -1.
        -13    1    3    3    0    0 -0.10989067846E+04  0.98692694483E+03 -0.98944221730E+03  0.17778123683E+04  0.00000000000E+00 0.  1.
         22    1    1    2    0    0  0.13653027718E+04 -0.12214858474E+04  0.82714868911E+03  0.20100383798E+04  0.00000000000E+00 0. -1.
<mgrwt>
<rscale>  0 0.41739915E+04</rscale>
<asrwt>0</asrwt>
<pdfrwt beam="1">  1        2 0.29541481E+00 0.41739915E+04</pdfrwt>
<pdfrwt beam="2">  1       -2 0.34896682E+00 0.41739915E+04</pdfrwt>
<totfact> 0.90896596E-02</totfact>
</mgrwt>
</event>
<event>
 6    1  0.9364335E-007  0.2469581E+04  0.7818608E-02  0.8413903E-01
         -1   -1    0    0    0  501 -0.00000000000E+00  0.00000000000E+00  0.83071668691E+03  0.83071668691E+03  0.00000000000E+00 0.  1.
          1   -1    0    0  501    0  0.00000000000E+00 -0.00000000000E+00 -0.18354115762E+04  0.18354115762E+04  0.00000000000E+00 0. -1.
         23    2    1    2    0    0 -0.19308767146E+03  0.74406099769E+03  0.53792979180E+03  0.94258524831E+03  0.90492387921E+02 0.  0.
         13    1    3    3    0    0 -0.16796053369E+03  0.62678498074E+03  0.41181567944E+03  0.76854557886E+03  0.00000000000E+00 0. -1.
        -13    1    3    3    0    0 -0.25127137769E+02  0.11727601695E+03  0.12611411237E+03  0.17403966945E+03  0.00000000000E+00 0.  1.
         22    1    1    2    0    0  0.19308767146E+03 -0.74406099769E+03 -0.15426246811E+04  0.17235430148E+04  0.00000000000E+00 0. -1.
<mgrwt>
<rscale>  0 0.24695806E+04</rscale>
<asrwt>0</asrwt>
<pdfrwt beam="1">  1        1 0.28237101E+00 0.24695806E+04</pdfrwt>
<pdfrwt beam="2">  1       -1 0.12780257E+00 0.24695806E+04</pdfrwt>
<totfact> 0.18174500E+00</totfact>
</mgrwt>
</event>
<event>
 6    1  0.9364335E-007  0.4850265E+03  0.7818608E-02  0.1017763E+00
         -2   -1    0    0    0  501 -0.00000000000E+00  0.00000000000E+00  0.44195669231E+03  0.44195669231E+03  0.00000000000E+00 0.  1.
          2   -1    0    0  501    0  0.00000000000E+00 -0.00000000000E+00 -0.13307339302E+03  0.13307339302E+03  0.00000000000E+00 0. -1.
         23    2    1    2    0    0  0.60346394398E+02 -0.11138357143E+03  0.39285676855E+03  0.42304478722E+03  0.92641589447E+02 0.  0.
         11    1    3    3    0    0  0.40295257811E+02 -0.66280337958E+02  0.34736127563E+03  0.35591662902E+03  0.00000000000E+00 0. -1.
        -11    1    3    3    0    0  0.20051136586E+02 -0.45103233467E+02  0.45495492923E+02  0.67128158204E+02  0.00000000000E+00 0.  1.
         22    1    1    2    0    0 -0.60346394398E+02  0.11138357143E+03 -0.83973469264E+02  0.15198529811E+03  0.00000000000E+00 0. -1.
<mgrwt>
<rscale>  0 0.48502650E+03</rscale>
<asrwt>0</asrwt>
<pdfrwt beam="1">  1        2 0.20472830E-01 0.48502650E+03</pdfrwt>
<pdfrwt beam="2">  1       -2 0.67993337E-01 0.48502650E+03</pdfrwt>
<totfact> 0.55174767E+02</totfact>
</mgrwt>
</event>
<event>
 6    1  0.9364335E-007  0.1729527E+04  0.7818608E-02  0.8744701E-01
         -1   -1    0    0    0  501 -0.00000000000E+00  0.00000000000E+00  0.42144287119E+03  0.42144287119E+03  0.00000000000E+00 0.  1.
          1   -1    0    0  501    0  0.00000000000E+00 -0.00000000000E+00 -0.17744187713E+04  0.17744187713E+04  0.00000000000E+00 0. -1.
         23    2    1    2    0    0  0.38363618621E+03  0.30276156130E+03  0.22362259259E+03  0.54525445314E+03  0.91946008010E+02 0.  0.
         11    1    3    3    0    0  0.17670937395E+03  0.82341942692E+02  0.86409549400E+02  0.21324401186E+03  0.00000000000E+00 0. -1.
        -11    1    3    3    0    0  0.20692681226E+03  0.22041961861E+03  0.13721304319E+03  0.33201044128E+03  0.00000000000E+00 0.  1.
         22    1    1    2    0    0 -0.38363618621E+03 -0.30276156130E+03 -0.15765984927E+04  0.16506071893E+04  0.00000000000E+00 0. -1.
<mgrwt>
<rscale>  0 0.17295273E+04</rscale>
<asrwt>0</asrwt>
<pdfrwt beam="1">  1        1 0.27298750E+00 0.17295273E+04</pdfrwt>
<pdfrwt beam="2">  1       -1 0.64837365E-01 0.17295273E+04</pdfrwt>
<totfact> 0.97087043E+00</totfact>
</mgrwt>
</event>
<event>
 6    1  0.9364335E-007  0.1416037E+04  0.7818608E-02  0.8942291E-01
         -2   -1    0    0    0  501 -0.00000000000E+00  0.00000000000E+00  0.19224511649E+03  0.19224511649E+03  0.00000000000E+00 0.  1.
          2   -1    0    0  501    0  0.00000000000E+00 -0.00000000000E+00 -0.26075581154E+04  0.26075581154E+04  0.00000000000E+00 0. -1.
         23    2    1    2    0    0 -0.30623715694E+02 -0.26233885246E+03 -0.25052479944E+04  0.25207910657E+04  0.91436306961E+02 0.  0.
         11    1    3    3    0    0 -0.99005502060E+01 -0.70632918864E+02 -0.11090446209E+04  0.11113356834E+04  0.00000000000E+00 0. -1.
        -11    1    3    3    0    0 -0.20723165488E+02 -0.19170593360E+03 -0.13962033735E+04  0.14094553823E+04  0.00000000000E+00 0.  1.
         22    1    1    2    0    0  0.30623715694E+02  0.26233885246E+03  0.89934995444E+02  0.27901216618E+03  0.00000000000E+00 0.  1.
<mgrwt>
<rscale>  0 0.14160372E+04</rscale>
<asrwt>0</asrwt>
<pdfrwt beam="1">  1        2 0.40116277E+00 0.14160372E+04</pdfrwt>
<pdfrwt beam="2">  1       -2 0.29576173E-01 0.14160372E+04</pdfrwt>
<totfact> 0.30975760E+01</totfact>
</mgrwt>
</event>
<event>
 6    1  0.9364335E-007  0.1336658E+04  0.7818608E-02  0.9000990E-01
         -1   -1    0    0    0  501 -0.00000000000E+00  0.00000000000E+00  0.17969790329E+03  0.17969790329E+03  0.00000000000E+00 0.  1.
          1   -1    0    0  501    0  0.00000000000E+00 -0.00000000000E+00 -0.24856366632E+04  0.24856366632E+04  0.00000000000E+00 0. -1.
         23    2    1    2    0    0  0.17640678245E+02 -0.57737610805E+03 -0.18180512943E+04  0.19092204595E+04  0.78344690835E+02 0.  0.
         13    1    3    3    0    0  0.23764240914E+01 -0.10434285549E+03 -0.43826574857E+03  0.45052185880E+03  0.00000000000E+00 0.  1.
        -13    1    3    3    0    0  0.15264254154E+02 -0.47303325257E+03 -0.13797855457E+04  0.14586986007E+04  0.00000000000E+00 0. -1.
         22    1    1    2    0    0 -0.17640678245E+02  0.57737610805E+03 -0.48788746559E+03  0.75611410697E+03  0.00000000000E+00 0.  1.
<mgrwt>
<rscale>  0 0.13366581E+04</rscale>
<asrwt>0</asrwt>
<pdfrwt beam="1">  1        1 0.38240564E+00 0.13366581E+04</pdfrwt>
<pdfrwt beam="2">  1       -1 0.27645831E-01 0.13366581E+04</pdfrwt>
<totfact> 0.16053792E+01</totfact>
</mgrwt>
</event>
<event>
 6    1  0.9364335E-007  0.2077974E+04  0.7818608E-02  0.8571009E-01
         -2   -1    0    0    0  501 -0.00000000000E+00  0.00000000000E+00  0.37307761955E+03  0.37307761955E+03  0.00000000000E+00 0.  1.
          2   -1    0    0  501    0  0.00000000000E+00 -0.00000000000E+00 -0.28934823334E+04  0.28934823334E+04  0.00000000000E+00 0. -1.
         23    2    1    2    0    0  0.44205627931E+03  0.17412425821E+03 -0.27116245320E+04  0.27544095548E+04  0.90174174237E+02 0.  0.
         11    1    3    3    0    0  0.35709104191E+03  0.12756753834E+03 -0.19385981463E+04  0.19753354809E+04  0.00000000000E+00 0.  1.
        -11    1    3    3    0    0  0.84965237397E+02  0.46556719874E+02 -0.77302638572E+03  0.77907407398E+03  0.00000000000E+00 0. -1.
         22    1    1    2    0    0 -0.44205627931E+03 -0.17412425821E+03  0.19121981822E+03  0.51215039808E+03  0.00000000000E+00 0.  1.
<mgrwt>
<rscale>  0 0.20779735E+04</rscale>
<asrwt>0</asrwt>
<pdfrwt beam="1">  1        2 0.44515114E+00 0.20779735E+04</pdfrwt>
<pdfrwt beam="2">  1       -2 0.57396555E-01 0.20779735E+04</pdfrwt>
<totfact> 0.53314346E+00</totfact>
</mgrwt>
</event>
<event>
 6    1  0.9364335E-007  0.3202129E+04  0.7818608E-02  0.8188255E-01
          2   -1    0    0  501    0  0.00000000000E+00  0.00000000000E+00  0.25933221870E+04  0.25933221870E+04  0.00000000000E+00 0. -1.
         -2   -1    0    0    0  501 -0.00000000000E+00 -0.00000000000E+00 -0.98846467047E+03  0.98846467047E+03  0.00000000000E+00 0.  1.
         23    2    1    2    0    0  0.15600751626E+04 -0.33006203915E+03  0.94638962438E+03  0.18565751523E+04  0.91883143792E+02 0.  0.
         13    1    3    3    0    0  0.10035902462E+04 -0.25659443853E+03  0.60571744145E+03  0.11999698776E+04  0.00000000000E+00 0.  1.
        -13    1    3    3    0    0  0.55648491639E+03 -0.73467600622E+02  0.34067218293E+03  0.65660527468E+03  0.00000000000E+00 0. -1.
         22    1    1    2    0    0 -0.15600751626E+04  0.33006203915E+03  0.65846789211E+03  0.17252117052E+04  0.00000000000E+00 0. -1.
<mgrwt>
<rscale>  0 0.32021289E+04</rscale>
<asrwt>0</asrwt>
<pdfrwt beam="1">  1        2 0.39897264E+00 0.32021289E+04</pdfrwt>
<pdfrwt beam="2">  1       -2 0.15207149E+00 0.32021289E+04</pdfrwt>
<totfact> 0.74667809E-01</totfact>
</mgrwt>
</event>
<event>
 6    1  0.9364335E-007  0.2017399E+04  0.7818608E-02  0.8598529E-01
          1   -1    0    0  501    0  0.00000000000E+00  0.00000000000E+00  0.10322073899E+04  0.10322073899E+04  0.00000000000E+00 0. -1.
         -1   -1    0    0    0  501 -0.00000000000E+00 -0.00000000000E+00 -0.98572657600E+03  0.98572657600E+03  0.00000000000E+00 0.  1.
         23    2    1    2    0    0 -0.44172779911E+03 -0.11299010685E+03  0.92087669484E+03  0.10318009276E+04  0.93322314212E+02 0.  0.
         11    1    3    3    0    0 -0.11440924379E+03 -0.98218390425E+01  0.31782807640E+03  0.33793583671E+03  0.00000000000E+00 0.  1.
        -11    1    3    3    0    0 -0.32731855532E+03 -0.10316826781E+03  0.60304861844E+03  0.69386509088E+03  0.00000000000E+00 0. -1.
         22    1    1    2    0    0  0.44172779911E+03  0.11299010685E+03 -0.87439588091E+03  0.98613303834E+03  0.00000000000E+00 0.  1.
<mgrwt>
<rscale>  0 0.20173986E+04</rscale>
<asrwt>0</asrwt>
<pdfrwt beam="1">  1        1 0.15880114E+00 0.20173986E+04</pdfrwt>
<pdfrwt beam="2">  1       -1 0.15165024E+00 0.20173986E+04</pdfrwt>
<totfact> 0.44815044E+00</totfact>
</mgrwt>
</event>
<event>
 6    1  0.9364335E-007  0.1174339E+04  0.7818608E-02  0.9135619E-01
          2   -1    0    0  501    0  0.00000000000E+00  0.00000000000E+00  0.70434213063E+03  0.70434213063E+03  0.00000000000E+00 0. -1.
         -2   -1    0    0    0  501 -0.00000000000E+00 -0.00000000000E+00 -0.48948964903E+03  0.48948964903E+03  0.00000000000E+00 0.  1.
         23    2    1    2    0    0  0.15200065822E+03  0.48762955543E+03 -0.17864629718E+03  0.54906199724E+03  0.93100987584E+02 0.  0.
         11    1    3    3    0    0  0.20611972503E+02  0.90155917497E+01 -0.12088443202E+02  0.25539474625E+02  0.00000000000E+00 0. -1.
        -11    1    3    3    0    0  0.13138868572E+03  0.47861396368E+03 -0.16655785398E+03  0.52352252262E+03  0.00000000000E+00 0.  1.
         22    1    1    2    0    0 -0.15200065822E+03 -0.48762955543E+03  0.39349877878E+03  0.64476978242E+03  0.00000000000E+00 0. -1.
<mgrwt>
<rscale>  0 0.11743393E+04</rscale>
<asrwt>0</asrwt>
<pdfrwt beam="1">  1        2 0.10836033E+00 0.11743393E+04</pdfrwt>
<pdfrwt beam="2">  1       -2 0.75306100E-01 0.11743393E+04</pdfrwt>
<totfact> 0.63615674E+01</totfact>
</mgrwt>
</event>
<event>
 6    1  0.9364335E-007  0.4499391E+04  0.7818608E-02  0.7910743E-01
          2   -1    0    0  501    0  0.00000000000E+00  0.00000000000E+00  0.18886866351E+04  0.18886866351E+04  0.00000000000E+00 0. -1.
         -2   -1    0    0    0  501 -0.00000000000E+00 -0.00000000000E+00 -0.26797083190E+04  0.26797083190E+04  0.00000000000E+00 0.  1.
         23    2    1    2    0    0  0.75886966908E+03  0.16653464952E+04  0.93112402964E+03  0.20554190325E+04  0.92159193361E+02 0.  0.
         13    1    3    3    0    0  0.61148860896E+03  0.12893387762E+04  0.69007495446E+03  0.15850918716E+04  0.00000000000E+00 0.  1.
        -13    1    3    3    0    0  0.14738106012E+03  0.37600771899E+03  0.24104907518E+03  0.47032716088E+03  0.00000000000E+00 0. -1.
         22    1    1    2    0    0 -0.75886966908E+03 -0.16653464952E+04 -0.17221457136E+04  0.25129759216E+04  0.00000000000E+00 0.  1.
<mgrwt>
<rscale>  0 0.44993908E+04</rscale>
<asrwt>0</asrwt>
<pdfrwt beam="1">  1        2 0.29056718E+00 0.44993908E+04</pdfrwt>
<pdfrwt beam="2">  1       -2 0.41226281E+00 0.44993908E+04</pdfrwt>
<totfact> 0.36010066E-02</totfact>
</mgrwt>
</event>
<event>
 6    1  0.9364335E-007  0.2042342E+04  0.7818608E-02  0.8587077E-01
          1   -1    0    0  501    0  0.00000000000E+00  0.00000000000E+00  0.15721262577E+04  0.15721262577E+04  0.00000000000E+00 0. -1.
         -1   -1    0    0    0  501 -0.00000000000E+00 -0.00000000000E+00 -0.66329897587E+03  0.66329897587E+03  0.00000000000E+00 0.  1.
         23    2    1    2    0    0  0.63584259933E+02  0.65731308972E+03  0.13049232535E+04  0.14653632395E+04  0.91439980534E+02 0.  0.
         11    1    3    3    0    0  0.81103376509E+02  0.46257574373E+03  0.96527584614E+03  0.10734577474E+04  0.00000000000E+00 0.  1.
        -11    1    3    3    0    0 -0.17519116576E+02  0.19473734599E+03  0.33964740738E+03  0.39190549207E+03  0.00000000000E+00 0. -1.
         22    1    1    2    0    0 -0.63584259933E+02 -0.65731308972E+03 -0.39609597166E+03  0.77006199412E+03  0.00000000000E+00 0.  1.
<mgrwt>
<rscale>  0 0.20423415E+04</rscale>
<asrwt>0</asrwt>
<pdfrwt beam="1">  1        1 0.24186558E+00 0.20423415E+04</pdfrwt>
<pdfrwt beam="2">  1       -1 0.10204600E+00 0.20423415E+04</pdfrwt>
<totfact> 0.49033213E+00</totfact>
</mgrwt>
</event>
<event>
 6    1  0.9364335E-007  0.3974746E+04  0.7818608E-02  0.8009661E-01
          2   -1    0    0  501    0  0.00000000000E+00  0.00000000000E+00  0.16044953208E+04  0.16044953208E+04  0.00000000000E+00 0. -1.
         -2   -1    0    0    0  501 -0.00000000000E+00 -0.00000000000E+00 -0.24616156546E+04  0.24616156546E+04  0.00000000000E+00 0.  1.
         23    2    1    2    0    0  0.34749749000E+03 -0.15020436236E+04  0.85237576663E+03  0.17640974067E+04  0.92766696706E+02 0.  0.
         11    1    3    3    0    0  0.65634933277E+02 -0.18979366958E+03  0.85341305276E+02  0.21820339105E+03  0.00000000000E+00 0. -1.
        -11    1    3    3    0    0  0.28186255672E+03 -0.13122499540E+04  0.76703446136E+03  0.15458940156E+04  0.00000000000E+00 0.  1.
         22    1    1    2    0    0 -0.34749749000E+03  0.15020436236E+04 -0.17094961004E+04  0.23020135686E+04  0.00000000000E+00 0.  1.
<mgrwt>
<rscale>  0 0.39747457E+04</rscale>
<asrwt>0</asrwt>
<pdfrwt beam="1">  1        2 0.24684544E+00 0.39747457E+04</pdfrwt>
<pdfrwt beam="2">  1       -2 0.37871010E+00 0.39747457E+04</pdfrwt>
<totfact> 0.89410707E-02</totfact>
</mgrwt>
</event>
<event>
 6    1  0.9364335E-007  0.4590676E+04  0.7818608E-02  0.7894952E-01
          2   -1    0    0  501    0  0.00000000000E+00  0.00000000000E+00  0.37649785236E+04  0.37649785236E+04  0.00000000000E+00 0. -1.
         -2   -1    0    0    0  501 -0.00000000000E+00 -0.00000000000E+00 -0.13993645882E+04  0.13993645882E+04  0.00000000000E+00 0.  1.
         23    2    1    2    0    0 -0.16768087283E+04  0.45327450979E+03  0.28697040656E+04  0.33556827921E+04  0.90886106661E+02 0.  0.
         13    1    3    3    0    0 -0.91490061850E+03  0.20940726564E+03  0.16006182327E+04  0.18554981195E+04  0.00000000000E+00 0. -1.
        -13    1    3    3    0    0 -0.76190810981E+03  0.24386724415E+03  0.12690858329E+04  0.15001846726E+04  0.00000000000E+00 0.  1.
         22    1    1    2    0    0  0.16768087283E+04 -0.45327450979E+03 -0.50409013019E+03  0.18086603197E+04  0.00000000000E+00 0.  1.
<mgrwt>
<rscale>  0 0.45906765E+04</rscale>
<asrwt>0</asrwt>
<pdfrwt beam="1">  1        2 0.57922746E+00 0.45906765E+04</pdfrwt>
<pdfrwt beam="2">  1       -2 0.21528686E+00 0.45906765E+04</pdfrwt>
<totfact> 0.41458632E-02</totfact>
</mgrwt>
</event>
<event>
 6    1  0.9364335E-007  0.4014316E+03  0.7818608E-02  0.1043285E+00
         -2   -1    0    0    0  501 -0.00000000000E+00  0.00000000000E+00  0.13091567213E+03  0.13091567213E+03  0.00000000000E+00 0.  1.
          2   -1    0    0  501    0  0.00000000000E+00 -0.00000000000E+00 -0.30773116459E+03  0.30773116459E+03  0.00000000000E+00 0. -1.
         23    2    1    2    0    0 -0.83656861664E+01  0.53866752347E+02 -0.29223406841E+03  0.31100256779E+03  0.91379618721E+02 0.  0.
         11    1    3    3    0    0  0.34272332665E+02  0.51727902041E+02 -0.19920063037E+03  0.20864146226E+03  0.00000000000E+00 0.  1.
        -11    1    3    3    0    0 -0.42638018832E+02  0.21388503064E+01 -0.93033438048E+02  0.10236110553E+03  0.00000000000E+00 0. -1.
         22    1    1    2    0    0  0.83656861664E+01 -0.53866752347E+02  0.11541857596E+03  0.12764426893E+03  0.00000000000E+00 0.  1.
<mgrwt>
<rscale>  0 0.40143160E+03</rscale>
<asrwt>0</asrwt>
<pdfrwt beam="1">  1        2 0.47343256E-01 0.40143160E+03</pdfrwt>
<pdfrwt beam="2">  1       -2 0.20140873E-01 0.40143160E+03</pdfrwt>
<totfact> 0.22226936E+03</totfact>
</mgrwt>
</event>
<event>
 6    1  0.9364335E-007  0.3118289E+04  0.7818608E-02  0.8210736E-01
         -1   -1    0    0    0  501 -0.00000000000E+00  0.00000000000E+00  0.98433287228E+03  0.98433287228E+03  0.00000000000E+00 0.  1.
          1   -1    0    0  501    0  0.00000000000E+00 -0.00000000000E+00 -0.24696238308E+04  0.24696238308E+04  0.00000000000E+00 0. -1.
         23    2    1    2    0    0 -0.16503319848E+03  0.15182097098E+04 -0.10837656428E+04  0.18749002574E+04  0.92229753008E+02 0.  0.
         13    1    3    3    0    0 -0.14884489120E+03  0.96144006642E+03 -0.69546968974E+03  0.11959096506E+04  0.00000000000E+00 0. -1.
        -13    1    3    3    0    0 -0.16188307272E+02  0.55676964333E+03 -0.38829595302E+03  0.67899060683E+03  0.00000000000E+00 0.  1.
         22    1    1    2    0    0  0.16503319848E+03 -0.15182097098E+04 -0.40152531572E+03  0.15790564456E+04  0.00000000000E+00 0.  1.
<mgrwt>
<rscale>  0 0.31182892E+04</rscale>
<asrwt>0</asrwt>
<pdfrwt beam="1">  1        1 0.37994213E+00 0.31182892E+04</pdfrwt>
<pdfrwt beam="2">  1       -1 0.15143583E+00 0.31182892E+04</pdfrwt>
<totfact> 0.40725002E-01</totfact>
</mgrwt>
</event>
<event>
 6    1  0.9364335E-007  0.7218380E+04  0.7818608E-02  0.7555324E-01
          1   -1    0    0  501    0  0.00000000000E+00  0.00000000000E+00  0.41560888015E+04  0.41560888015E+04  0.00000000000E+00 0. -1.
         -1   -1    0    0    0  501 -0.00000000000E+00 -0.00000000000E+00 -0.31342576678E+04  0.31342576678E+04  0.00000000000E+00 0.  1.
         23    2    1    2    0    0  0.17900325911E+04 -0.76144719439E+03  0.35807308427E+04  0.40760057550E+04  0.90393806481E+02 0.  0.
         13    1    3    3    0    0  0.12092393802E+04 -0.55090122922E+03  0.23908279107E+04  0.27352897728E+04  0.00000000000E+00 0. -1.
        -13    1    3    3    0    0  0.58079321090E+03 -0.21054596517E+03  0.11899029320E+04  0.13407159822E+04  0.00000000000E+00 0.  1.
         22    1    1    2    0    0 -0.17900325911E+04  0.76144719439E+03 -0.25588997090E+04  0.32143407143E+04  0.00000000000E+00 0.  1.
<mgrwt>
<rscale>  0 0.72183802E+04</rscale>
<asrwt>0</asrwt>
<pdfrwt beam="1">  1        1 0.63939828E+00 0.72183802E+04</pdfrwt>
<pdfrwt beam="2">  1       -1 0.48219349E+00 0.72183802E+04</pdfrwt>
<totfact> 0.83123935E-05</totfact>
</mgrwt>
</event>
<event>
 6    1  0.9364335E-007  0.3275836E+04  0.7818608E-02  0.8169071E-01
         -2   -1    0    0    0  501 -0.00000000000E+00  0.00000000000E+00  0.98532904360E+03  0.98532904360E+03  0.00000000000E+00 0.  1.
          2   -1    0    0  501    0  0.00000000000E+00 -0.00000000000E+00 -0.27227210330E+04  0.27227210330E+04  0.00000000000E+00 0. -1.
         23    2    1    2    0    0  0.47462212078E+03  0.14591676568E+04 -0.22179063991E+03  0.15513201772E+04  0.54468302589E+02 0.  0.
         11    1    3    3    0    0  0.33300053468E+03  0.10999668063E+04 -0.16434815793E+03  0.11609593654E+04  0.00000000000E+00 0. -1.
        -11    1    3    3    0    0  0.14162158610E+03  0.35920085052E+03 -0.57442481985E+02  0.39036081181E+03  0.00000000000E+00 0.  1.
         22    1    1    2    0    0 -0.47462212078E+03 -0.14591676568E+04 -0.15156013495E+04  0.21567298994E+04  0.00000000000E+00 0. -1.
<mgrwt>
<rscale>  0 0.32758364E+04</rscale>
<asrwt>0</asrwt>
<pdfrwt beam="1">  1        2 0.41888016E+00 0.32758364E+04</pdfrwt>
<pdfrwt beam="2">  1       -2 0.15158908E+00 0.32758364E+04</pdfrwt>
<totfact> 0.62727663E-01</totfact>
</mgrwt>
</event>
<event>
 6    1  0.9364335E-007  0.1656256E+04  0.7818608E-02  0.8786714E-01
          1   -1    0    0  501    0  0.00000000000E+00  0.00000000000E+00  0.39965595600E+04  0.39965595600E+04  0.00000000000E+00 0. -1.
         -1   -1    0    0    0  501 -0.00000000000E+00 -0.00000000000E+00 -0.17159658133E+03  0.17159658133E+03  0.00000000000E+00 0.  1.
         23    2    1    2    0    0  0.42189036681E+03  0.19577775362E+02  0.37036030918E+04  0.37287212849E+04  0.91169010297E+02 0.  0.
         13    1    3    3    0    0  0.23690270587E+03  0.16694258037E+02  0.24591086780E+04  0.24705499551E+04  0.00000000000E+00 0. -1.
        -13    1    3    3    0    0  0.18498766093E+03  0.28835173248E+01  0.12444944138E+04  0.12581713299E+04  0.00000000000E+00 0.  1.
         22    1    1    2    0    0 -0.42189036681E+03 -0.19577775362E+02  0.12135988693E+03  0.43943485643E+03  0.00000000000E+00 0.  1.
<mgrwt>
<rscale>  0 0.16562560E+04</rscale>
<asrwt>0</asrwt>
<pdfrwt beam="1">  1        1 0.61485525E+00 0.16562560E+04</pdfrwt>
<pdfrwt beam="2">  1       -1 0.26399477E-01 0.16562560E+04</pdfrwt>
<totfact> 0.11944337E+00</totfact>
</mgrwt>
</event>
<event>
 6    1  0.9364335E-007  0.1339003E+04  0.7818608E-02  0.8999195E-01
         -2   -1    0    0    0  501 -0.00000000000E+00  0.00000000000E+00  0.18259577576E+03  0.18259577576E+03  0.00000000000E+00 0.  1.
          2   -1    0    0  501    0  0.00000000000E+00 -0.00000000000E+00 -0.24547787434E+04  0.24547787434E+04  0.00000000000E+00 0. -1.
         23    2    1    2    0    0  0.66301133862E+03  0.64271289758E+02 -0.11798810385E+04  0.13579846888E+04  0.91040188731E+02 0.  0.
         11    1    3    3    0    0  0.74199205117E+02 -0.51955669891E+01 -0.85563799525E+02  0.11337406999E+03  0.00000000000E+00 0. -1.
        -11    1    3    3    0    0  0.58881213351E+03  0.69466856747E+02 -0.10943172390E+04  0.12446106188E+04  0.00000000000E+00 0.  1.
         22    1    1    2    0    0 -0.66301133862E+03 -0.64271289758E+02 -0.10923019291E+04  0.12793898304E+04  0.00000000000E+00 0.  1.
<mgrwt>
<rscale>  0 0.13390030E+04</rscale>
<asrwt>0</asrwt>
<pdfrwt beam="1">  1        2 0.37765827E+00 0.13390030E+04</pdfrwt>
<pdfrwt beam="2">  1       -2 0.28091658E-01 0.13390030E+04</pdfrwt>
<totfact> 0.42040147E+01</totfact>
</mgrwt>
</event>
<event>
 6    1  0.9364335E-007  0.1557822E+04  0.7818608E-02  0.8846887E-01
         -2   -1    0    0    0  501 -0.00000000000E+00  0.00000000000E+00  0.34837822090E+03  0.34837822090E+03  0.00000000000E+00 0.  1.
          2   -1    0    0  501    0  0.00000000000E+00 -0.00000000000E+00 -0.17415037950E+04  0.17415037950E+04  0.00000000000E+00 0. -1.
         23    2    1    2    0    0  0.67916426579E+03 -0.24219845063E+03 -0.10888407833E+04  0.13072496480E+04  0.58336962853E+02 0.  0.
         13    1    3    3    0    0  0.12983323023E+03 -0.49460125680E+02 -0.17062141321E+03  0.22003326646E+03  0.00000000000E+00 0.  1.
        -13    1    3    3    0    0  0.54933103556E+03 -0.19273832495E+03 -0.91821937013E+03  0.10872163815E+04  0.00000000000E+00 0. -1.
         22    1    1    2    0    0 -0.67916426579E+03  0.24219845063E+03 -0.30428479072E+03  0.78263236789E+03  0.00000000000E+00 0. -1.
<mgrwt>
<rscale>  0 0.15578215E+04</rscale>
<asrwt>0</asrwt>
<pdfrwt beam="1">  1        2 0.26792366E+00 0.15578215E+04</pdfrwt>
<pdfrwt beam="2">  1       -2 0.53596650E-01 0.15578215E+04</pdfrwt>
<totfact> 0.29342974E+01</totfact>
</mgrwt>
</event>
<event>
 6    1  0.9364335E-007  0.6789306E+03  0.7818608E-02  0.9753958E-01
         -1   -1    0    0    0  501 -0.00000000000E+00  0.00000000000E+00  0.12953286938E+03  0.12953286938E+03  0.00000000000E+00 0.  1.
          1   -1    0    0  501    0  0.00000000000E+00 -0.00000000000E+00 -0.88963273295E+03  0.88963273295E+03  0.00000000000E+00 0. -1.
         23    2    1    2    0    0 -0.11443719991E+03  0.19939220618E+03 -0.19124086968E+02  0.24334460099E+03  0.77445074214E+02 0.  0.
         11    1    3    3    0    0 -0.41239267186E+02  0.14024876479E+03  0.47300285133E+01  0.14626266220E+03  0.00000000000E+00 0.  1.
        -11    1    3    3    0    0 -0.73197932722E+02  0.59143441389E+02 -0.23854115482E+02  0.97081938792E+02  0.00000000000E+00 0. -1.
         22    1    1    2    0    0  0.11443719991E+03 -0.19939220618E+03 -0.74097577660E+03  0.77582100134E+03  0.00000000000E+00 0. -1.
<mgrwt>
<rscale>  0 0.67893057E+03</rscale>
<asrwt>0</asrwt>
<pdfrwt beam="1">  1        1 0.13686657E+00 0.67893057E+03</pdfrwt>
<pdfrwt beam="2">  1       -1 0.19928134E-01 0.67893057E+03</pdfrwt>
<totfact> 0.38637232E+02</totfact>
</mgrwt>
</event>
<event>
 6    1  0.9364335E-007  0.1049732E+04  0.7818608E-02  0.9255621E-01
          1   -1    0    0  501    0  0.00000000000E+00  0.00000000000E+00  0.46126805701E+03  0.46126805701E+03  0.00000000000E+00 0. -1.
         -1   -1    0    0    0  501 -0.00000000000E+00 -0.00000000000E+00 -0.59723284439E+03  0.59723284439E+03  0.00000000000E+00 0.  1.
         23    2    1    2    0    0  0.28635233059E+03  0.29171646825E+03  0.25734436661E+03  0.49123707768E+03  0.89395684311E+02 0.  0.
         13    1    3    3    0    0  0.22038002329E+03  0.18664175244E+03  0.21537412498E+03  0.36026172727E+03  0.00000000000E+00 0. -1.
        -13    1    3    3    0    0  0.65972307301E+02  0.10507471581E+03  0.41970241629E+02  0.13097535041E+03  0.00000000000E+00 0.  1.
         22    1    1    2    0    0 -0.28635233059E+03 -0.29171646825E+03 -0.39330915400E+03  0.56726382372E+03  0.00000000000E+00 0.  1.
<mgrwt>
<rscale>  0 0.10497322E+04</rscale>
<asrwt>0</asrwt>
<pdfrwt beam="1">  1        1 0.70964317E-01 0.10497322E+04</pdfrwt>
<pdfrwt beam="2">  1       -1 0.91881975E-01 0.10497322E+04</pdfrwt>
<totfact> 0.57138434E+01</totfact>
</mgrwt>
</event>
<event>
 6    1  0.9364335E-007  0.2589138E+04  0.7818608E-02  0.8371900E-01
         -1   -1    0    0    0  501 -0.00000000000E+00  0.00000000000E+00  0.86009586344E+03  0.86009586344E+03  0.00000000000E+00 0.  1.
          1   -1    0    0  501    0  0.00000000000E+00 -0.00000000000E+00 -0.19485141383E+04  0.19485141383E+04  0.00000000000E+00 0. -1.
         23    2    1    2    0    0  0.11387513262E+04 -0.42844005766E+03 -0.10196088586E+04  0.15899836432E+04  0.90168150182E+02 0.  0.
         13    1    3    3    0    0  0.77869695955E+03 -0.26082154393E+03 -0.64808895988E+03  0.10461434569E+04  0.00000000000E+00 0. -1.
        -13    1    3    3    0    0  0.36005436667E+03 -0.16761851373E+03 -0.37151989867E+03  0.54384018628E+03  0.00000000000E+00 0.  1.
         22    1    1    2    0    0 -0.11387513262E+04  0.42844005766E+03 -0.68809416336E+02  0.12186263586E+04  0.00000000000E+00 0.  1.
<mgrwt>
<rscale>  0 0.25891380E+04</rscale>
<asrwt>0</asrwt>
<pdfrwt beam="1">  1        1 0.29977141E+00 0.25891380E+04</pdfrwt>
<pdfrwt beam="2">  1       -1 0.13232244E+00 0.25891380E+04</pdfrwt>
<totfact> 0.13803028E+00</totfact>
</mgrwt>
</event>
<event>
 6    1  0.9364335E-007  0.1832319E+04  0.7818608E-02  0.8689299E-01
         -1   -1    0    0    0  501 -0.00000000000E+00  0.00000000000E+00  0.28083537509E+04  0.28083537509E+04  0.00000000000E+00 0.  1.
          1   -1    0    0  501    0  0.00000000000E+00 -0.00000000000E+00 -0.29887538133E+03  0.29887538133E+03  0.00000000000E+00 0. -1.
         23    2    1    2    0    0 -0.86688221600E+03  0.24227409813E+03  0.99145549068E+03  0.13424132846E+04  0.94381787220E+02 0.  0.
         11    1    3    3    0    0 -0.36823669534E+03  0.13693904405E+03  0.38239433345E+03  0.54824811157E+03  0.00000000000E+00 0.  1.
        -11    1    3    3    0    0 -0.49864552066E+03  0.10533505408E+03  0.60906115723E+03  0.79416517308E+03  0.00000000000E+00 0. -1.
         22    1    1    2    0    0  0.86688221600E+03 -0.24227409813E+03  0.15180228789E+04  0.17648158476E+04  0.00000000000E+00 0.  1.
<mgrwt>
<rscale>  0 0.18323185E+04</rscale>
<asrwt>0</asrwt>
<pdfrwt beam="1">  1        1 0.45980830E-01 0.18323185E+04</pdfrwt>
<pdfrwt beam="2">  1       -1 0.43205441E+00 0.18323185E+04</pdfrwt>
<totfact> 0.35777104E-01</totfact>
</mgrwt>
</event>
<event>
 6    1  0.9364335E-007  0.3372455E+04  0.7818608E-02  0.8144700E-01
          2   -1    0    0  501    0  0.00000000000E+00  0.00000000000E+00  0.44050002465E+04  0.44050002465E+04  0.00000000000E+00 0. -1.
         -2   -1    0    0    0  501 -0.00000000000E+00 -0.00000000000E+00 -0.64548517363E+03  0.64548517363E+03  0.00000000000E+00 0.  1.
         23    2    1    2    0    0  0.11860379551E+04  0.33828664871E+03  0.36004594808E+04  0.38069330212E+04  0.91140919413E+02 0.  0.
         13    1    3    3    0    0  0.66823914283E+03  0.21864620525E+03  0.21610479246E+04  0.22725487558E+04  0.00000000000E+00 0.  1.
        -13    1    3    3    0    0  0.51779881227E+03  0.11964044346E+03  0.14394115562E+04  0.15343842654E+04  0.00000000000E+00 0. -1.
         22    1    1    2    0    0 -0.11860379551E+04 -0.33828664871E+03  0.15905559208E+03  0.12435523990E+04  0.00000000000E+00 0.  1.
<mgrwt>
<rscale>  0 0.33724545E+04</rscale>
<asrwt>0</asrwt>
<pdfrwt beam="1">  1        2 0.67769233E+00 0.33724545E+04</pdfrwt>
<pdfrwt beam="2">  1       -2 0.99305414E-01 0.33724545E+04</pdfrwt>
<totfact> 0.10547817E-01</totfact>
</mgrwt>
</event>
<event>
 6    1  0.9364335E-007  0.3834753E+04  0.7818608E-02  0.8038738E-01
          2   -1    0    0  501    0  0.00000000000E+00  0.00000000000E+00  0.21906845272E+04  0.21906845272E+04  0.00000000000E+00 0. -1.
         -2   -1    0    0    0  501 -0.00000000000E+00 -0.00000000000E+00 -0.16781665485E+04  0.16781665485E+04  0.00000000000E+00 0.  1.
         23    2    1    2    0    0  0.71931962798E+03  0.76125731545E+03 -0.13625882870E+04  0.17210715396E+04  0.92233275929E+02 0.  0.
         13    1    3    3    0    0  0.32525765958E+03  0.35985603851E+03 -0.55809579152E+03  0.73943209700E+03  0.00000000000E+00 0. -1.
        -13    1    3    3    0    0  0.39406196840E+03  0.40140127694E+03 -0.80449249548E+03  0.98163944264E+03  0.00000000000E+00 0.  1.
         22    1    1    2    0    0 -0.71931962798E+03 -0.76125731545E+03  0.18751062657E+04  0.21477795360E+04  0.00000000000E+00 0. -1.
<mgrwt>
<rscale>  0 0.38347534E+04</rscale>
<asrwt>0</asrwt>
<pdfrwt beam="1">  1        2 0.33702839E+00 0.38347534E+04</pdfrwt>
<pdfrwt beam="2">  1       -2 0.25817947E+00 0.38347534E+04</pdfrwt>
<totfact> 0.23922647E-01</totfact>
</mgrwt>
</event>
<event>
 6    1  0.9364335E-007  0.5145234E+04  0.7818608E-02  0.7806486E-01
         -1   -1    0    0    0  501 -0.00000000000E+00  0.00000000000E+00  0.27456063871E+04  0.27456063871E+04  0.00000000000E+00 0.  1.
          1   -1    0    0  501    0  0.00000000000E+00 -0.00000000000E+00 -0.24105265971E+04  0.24105265971E+04  0.00000000000E+00 0. -1.
         23    2    1    2    0    0 -0.22529074821E+04  0.12351904117E+04  0.27953752119E+03  0.25862356283E+04  0.95843742765E+02 0.  0.
         11    1    3    3    0    0 -0.87795644075E+03  0.43702333022E+03  0.13243735822E+03  0.98961434755E+03  0.00000000000E+00 0.  1.
        -11    1    3    3    0    0 -0.13749510414E+04  0.79816708147E+03  0.14710016297E+03  0.15966212807E+04  0.00000000000E+00 0. -1.
         22    1    1    2    0    0  0.22529074821E+04 -0.12351904117E+04  0.55542268795E+02  0.25698973559E+04  0.00000000000E+00 0. -1.
<mgrwt>
<rscale>  0 0.51452336E+04</rscale>
<asrwt>0</asrwt>
<pdfrwt beam="1">  1        1 0.37085025E+00 0.51452336E+04</pdfrwt>
<pdfrwt beam="2">  1       -1 0.42240098E+00 0.51452336E+04</pdfrwt>
<totfact> 0.56032746E-03</totfact>
</mgrwt>
</event>
<event>
 6    1  0.9364335E-007  0.2452031E+04  0.7818608E-02  0.8420277E-01
         -2   -1    0    0    0  501 -0.00000000000E+00  0.00000000000E+00  0.12658392835E+04  0.12658392835E+04  0.00000000000E+00 0.  1.
          2   -1    0    0  501    0  0.00000000000E+00 -0.00000000000E+00 -0.11874446025E+04  0.11874446025E+04  0.00000000000E+00 0. -1.
         23    2    1    2    0    0 -0.59480861949E+03  0.27736962753E+03  0.10732875249E+04  0.12614185518E+04  0.92192449183E+02 0.  0.
         13    1    3    3    0    0 -0.15068460035E+03  0.34676754498E+02  0.21125726666E+03  0.26179755308E+03  0.00000000000E+00 0.  1.
        -13    1    3    3    0    0 -0.44412401914E+03  0.24269287303E+03  0.86203025827E+03  0.99962099876E+03  0.00000000000E+00 0. -1.
         22    1    1    2    0    0  0.59480861949E+03 -0.27736962753E+03 -0.99489284393E+03  0.11918653342E+04  0.00000000000E+00 0. -1.
<mgrwt>
<rscale>  0 0.24520310E+04</rscale>
<asrwt>0</asrwt>
<pdfrwt beam="1">  1        2 0.18268379E+00 0.24520310E+04</pdfrwt>
<pdfrwt beam="2">  1       -2 0.19474450E+00 0.24520310E+04</pdfrwt>
<totfact> 0.24862080E+00</totfact>
</mgrwt>
</event>
<event>
 6    1  0.9364335E-007  0.2148593E+04  0.7818608E-02  0.8540135E-01
          2   -1    0    0  501    0  0.00000000000E+00  0.00000000000E+00  0.85365990515E+03  0.85365990515E+03  0.00000000000E+00 0. -1.
         -2   -1    0    0    0  501 -0.00000000000E+00 -0.00000000000E+00 -0.13519592575E+04  0.13519592575E+04  0.00000000000E+00 0.  1.
         23    2    1    2    0    0  0.77419345573E+03 -0.52059736378E+03  0.29396435311E+03  0.98165882790E+03  0.82715726603E+02 0.  0.
         11    1    3    3    0    0  0.12177681964E+03 -0.90348548904E+02  0.17281422889E+02  0.15261422499E+03  0.00000000000E+00 0. -1.
        -11    1    3    3    0    0  0.65241663608E+03 -0.43024881488E+03  0.27668293022E+03  0.82904460291E+03  0.00000000000E+00 0.  1.
         22    1    1    2    0    0 -0.77419345573E+03  0.52059736378E+03 -0.79226370547E+03  0.12239603348E+04  0.00000000000E+00 0.  1.
<mgrwt>
<rscale>  0 0.21485934E+04</rscale>
<asrwt>0</asrwt>
<pdfrwt beam="1">  1        2 0.13133229E+00 0.21485934E+04</pdfrwt>
<pdfrwt beam="2">  1       -2 0.20799373E+00 0.21485934E+04</pdfrwt>
<totfact> 0.34153212E+00</totfact>
</mgrwt>
</event>
<event>
 6    1  0.9364335E-007  0.1894561E+04  0.7818608E-02  0.8657569E-01
          2   -1    0    0  501    0  0.00000000000E+00  0.00000000000E+00  0.26570066224E+04  0.26570066224E+04  0.00000000000E+00 0. -1.
         -2   -1    0    0    0  501 -0.00000000000E+00 -0.00000000000E+00 -0.33772594824E+03  0.33772594824E+03  0.00000000000E+00 0.  1.
         23    2    1    2    0    0 -0.70215071453E+03 -0.50002503174E+03  0.54939483733E+03  0.10260943272E+04  0.89410417005E+02 0.  0.
         13    1    3    3    0    0 -0.15933116153E+03 -0.10846598678E+03  0.80491376339E+02  0.20887831622E+03  0.00000000000E+00 0.  1.
        -13    1    3    3    0    0 -0.54281955300E+03 -0.39155904497E+03  0.46890346099E+03  0.81721601094E+03  0.00000000000E+00 0. -1.
         22    1    1    2    0    0  0.70215071453E+03  0.50002503174E+03  0.17698858369E+04  0.19686382435E+04  0.00000000000E+00 0. -1.
<mgrwt>
<rscale>  0 0.18945607E+04</rscale>
<asrwt>0</asrwt>
<pdfrwt beam="1">  1        2 0.40877024E+00 0.18945607E+04</pdfrwt>
<pdfrwt beam="2">  1       -2 0.51957840E-01 0.18945607E+04</pdfrwt>
<totfact> 0.92428387E+00</totfact>
</mgrwt>
</event>
<event>
 6    1  0.9364335E-007  0.7189829E+03  0.7818608E-02  0.9685309E-01
         -1   -1    0    0    0  501 -0.00000000000E+00  0.00000000000E+00  0.53824884754E+02  0.53824884754E+02  0.00000000000E+00 0.  1.
          1   -1    0    0  501    0  0.00000000000E+00 -0.00000000000E+00 -0.24010099789E+04  0.24010099789E+04  0.00000000000E+00 0. -1.
         23    2    1    2    0    0 -0.20901526681E+03 -0.55038634249E+02 -0.21483896338E+04  0.21611747402E+04  0.91551113051E+02 0.  0.
         11    1    3    3    0    0 -0.20541691675E+03 -0.27948569274E+02 -0.19170042463E+04  0.19281811411E+04  0.00000000000E+00 0. -1.
        -11    1    3    3    0    0 -0.35983500614E+01 -0.27090064975E+02 -0.23138538742E+03  0.23299359917E+03  0.00000000000E+00 0.  1.
         22    1    1    2    0    0  0.20901526681E+03  0.55038634249E+02 -0.19879546037E+03  0.29366012341E+03  0.00000000000E+00 0.  1.
<mgrwt>
<rscale>  0 0.71898285E+03</rscale>
<asrwt>0</asrwt>
<pdfrwt beam="1">  1        1 0.36938618E+00 0.71898285E+03</pdfrwt>
<pdfrwt beam="2">  1       -1 0.82807509E-02 0.71898285E+03</pdfrwt>
<totfact> 0.14053280E+02</totfact>
</mgrwt>
</event>
<event>
 6    1  0.9364335E-007  0.2531156E+04  0.7818608E-02  0.8391969E-01
         -1   -1    0    0    0  501 -0.00000000000E+00  0.00000000000E+00  0.45504784907E+03  0.45504784907E+03  0.00000000000E+00 0.  1.
          1   -1    0    0  501    0  0.00000000000E+00 -0.00000000000E+00 -0.35198238163E+04  0.35198238163E+04  0.00000000000E+00 0. -1.
         23    2    1    2    0    0  0.34595343786E+02 -0.68828884219E+03  0.12960801493E+03  0.70699354745E+03  0.90018167698E+02 0.  0.
         13    1    3    3    0    0  0.46243598403E+01 -0.37366057115E+03  0.26836553242E+02  0.37465158177E+03  0.00000000000E+00 0.  1.
        -13    1    3    3    0    0  0.29970983946E+02 -0.31462827104E+03  0.10277146168E+03  0.33234196568E+03  0.00000000000E+00 0. -1.
         22    1    1    2    0    0 -0.34595343786E+02  0.68828884219E+03 -0.31943839822E+04  0.32678781179E+04  0.00000000000E+00 0. -1.
<mgrwt>
<rscale>  0 0.25311565E+04</rscale>
<asrwt>0</asrwt>
<pdfrwt beam="1">  1        1 0.54151135E+00 0.25311565E+04</pdfrwt>
<pdfrwt beam="2">  1       -1 0.70007362E-01 0.25311565E+04</pdfrwt>
<totfact> 0.44089547E-01</totfact>
</mgrwt>
</event>
<event>
 6    1  0.9364335E-007  0.1920462E+04  0.7818608E-02  0.8644738E-01
          1   -1    0    0  501    0  0.00000000000E+00  0.00000000000E+00  0.18325453889E+04  0.18325453889E+04  0.00000000000E+00 0. -1.
         -1   -1    0    0    0  501 -0.00000000000E+00 -0.00000000000E+00 -0.50314897184E+03  0.50314897184E+03  0.00000000000E+00 0.  1.
         23    2    1    2    0    0 -0.74251958447E+03  0.44819748805E+03  0.11612151114E+04  0.14522345296E+04  0.91368881512E+02 0.  0.
         13    1    3    3    0    0 -0.46379996362E+02  0.51620127431E+02  0.70878149908E+02  0.99194020752E+02  0.00000000000E+00 0.  1.
        -13    1    3    3    0    0 -0.69613958811E+03  0.39657736062E+03  0.10903369615E+04  0.13530405089E+04  0.00000000000E+00 0. -1.
         22    1    1    2    0    0  0.74251958447E+03 -0.44819748805E+03  0.16818130566E+03  0.88345983111E+03  0.00000000000E+00 0.  1.
<mgrwt>
<rscale>  0 0.19204617E+04</rscale>
<asrwt>0</asrwt>
<pdfrwt beam="1">  1        1 0.28193006E+00 0.19204617E+04</pdfrwt>
<pdfrwt beam="2">  1       -1 0.77407535E-01 0.19204617E+04</pdfrwt>
<totfact> 0.60488844E+00</totfact>
</mgrwt>
</event>
<event>
 6    1  0.9364335E-007  0.2544519E+04  0.7818608E-02  0.8387295E-01
         -2   -1    0    0    0  501 -0.00000000000E+00  0.00000000000E+00  0.10976294623E+04  0.10976294623E+04  0.00000000000E+00 0.  1.
          2   -1    0    0  501    0  0.00000000000E+00 -0.00000000000E+00 -0.14746722994E+04  0.14746722994E+04  0.00000000000E+00 0. -1.
         23    2    1    2    0    0  0.34357383506E+03 -0.11949362839E+04  0.75416507169E+02  0.12491860597E+04  0.94140635877E+02 0.  0.
         11    1    3    3    0    0  0.31376809524E+03 -0.10513917351E+04  0.37952312023E+02  0.10978685605E+04  0.00000000000E+00 0. -1.
        -11    1    3    3    0    0  0.29805739813E+02 -0.14354454883E+03  0.37464195146E+02  0.15131749912E+03  0.00000000000E+00 0.  1.
         22    1    1    2    0    0 -0.34357383506E+03  0.11949362839E+04 -0.45245934431E+03  0.13231157021E+04  0.00000000000E+00 0. -1.
<mgrwt>
<rscale>  0 0.25445186E+04</rscale>
<asrwt>0</asrwt>
<pdfrwt beam="1">  1        2 0.22687266E+00 0.25445186E+04</pdfrwt>
<pdfrwt beam="2">  1       -2 0.16886607E+00 0.25445186E+04</pdfrwt>
<totfact> 0.25319303E+00</totfact>
</mgrwt>
</event>
<event>
 6    1  0.9364335E-007  0.3259538E+04  0.7818608E-02  0.8173268E-01
          2   -1    0    0  501    0  0.00000000000E+00  0.00000000000E+00  0.23081213571E+04  0.23081213571E+04  0.00000000000E+00 0. -1.
         -2   -1    0    0    0  501 -0.00000000000E+00 -0.00000000000E+00 -0.11507829693E+04  0.11507829693E+04  0.00000000000E+00 0.  1.
         23    2    1    2    0    0  0.28014322281E+03  0.15115671536E+04  0.11493672748E+04  0.19215757917E+04  0.89960578181E+02 0.  0.
         13    1    3    3    0    0  0.24153413475E+03  0.11878334967E+04  0.86734200579E+03  0.14904929752E+04  0.00000000000E+00 0. -1.
        -13    1    3    3    0    0  0.38609088061E+02  0.32373365689E+03  0.28202526901E+03  0.43108281646E+03  0.00000000000E+00 0.  1.
         22    1    1    2    0    0 -0.28014322281E+03 -0.15115671536E+04  0.79711130195E+01  0.15373285347E+04  0.00000000000E+00 0.  1.
<mgrwt>
<rscale>  0 0.32595378E+04</rscale>
<asrwt>0</asrwt>
<pdfrwt beam="1">  1        2 0.35509559E+00 0.32595378E+04</pdfrwt>
<pdfrwt beam="2">  1       -2 0.17704353E+00 0.32595378E+04</pdfrwt>
<totfact> 0.71456109E-01</totfact>
</mgrwt>
</event>
<event>
 6    1  0.9364335E-007  0.1091968E+04  0.7818608E-02  0.9213056E-01
          1   -1    0    0  501    0  0.00000000000E+00  0.00000000000E+00  0.65606741369E+03  0.65606741369E+03  0.00000000000E+00 0. -1.
         -1   -1    0    0    0  501 -0.00000000000E+00 -0.00000000000E+00 -0.45437201876E+03  0.45437201876E+03  0.00000000000E+00 0.  1.
         23    2    1    2    0    0  0.31506562907E+03  0.38403418833E+03 -0.11944112447E+03  0.51893518688E+03  0.90988667059E+02 0.  0.
         13    1    3    3    0    0  0.10607097337E+03  0.17590253798E+03 -0.83765723821E+02  0.22183203274E+03  0.00000000000E+00 0. -1.
        -13    1    3    3    0    0  0.20899465570E+03  0.20813165035E+03 -0.35675400649E+02  0.29710315414E+03  0.00000000000E+00 0.  1.
         22    1    1    2    0    0 -0.31506562907E+03 -0.38403418833E+03  0.32113651941E+03  0.59150424557E+03  0.00000000000E+00 0. -1.
<mgrwt>
<rscale>  0 0.10919683E+04</rscale>
<asrwt>0</asrwt>
<pdfrwt beam="1">  1        1 0.10093345E+00 0.10919683E+04</pdfrwt>
<pdfrwt beam="2">  1       -1 0.69903388E-01 0.10919683E+04</pdfrwt>
<totfact> 0.61990733E+01</totfact>
</mgrwt>
</event>
<event>
 6    1  0.9364335E-007  0.1676611E+04  0.7818608E-02  0.8774817E-01
          1   -1    0    0  501    0  0.00000000000E+00  0.00000000000E+00  0.67088912072E+03  0.67088912072E+03  0.00000000000E+00 0. -1.
         -1   -1    0    0    0  501 -0.00000000000E+00 -0.00000000000E+00 -0.10474997431E+04  0.10474997431E+04  0.00000000000E+00 0.  1.
         23    2    1    2    0    0  0.19955597468E+03  0.54339770249E+02 -0.10188993567E+04  0.10436220775E+04  0.90640740385E+02 0.  0.
         13    1    3    3    0    0  0.15316938004E+03  0.39353401241E+02 -0.55266363816E+03  0.57484488875E+03  0.00000000000E+00 0.  1.
        -13    1    3    3    0    0  0.46386594642E+02  0.14986369008E+02 -0.46623571854E+03  0.46877718871E+03  0.00000000000E+00 0. -1.
         22    1    1    2    0    0 -0.19955597468E+03 -0.54339770249E+02  0.64228873435E+03  0.67476678633E+03  0.00000000000E+00 0. -1.
<mgrwt>
<rscale>  0 0.16766111E+04</rscale>
<asrwt>0</asrwt>
<pdfrwt beam="1">  1        1 0.10321371E+00 0.16766111E+04</pdfrwt>
<pdfrwt beam="2">  1       -1 0.16115381E+00 0.16766111E+04</pdfrwt>
<totfact> 0.79337650E+00</totfact>
</mgrwt>
</event>
<event>
 6    1  0.9364335E-007  0.8546160E+03  0.7818608E-02  0.9484162E-01
          2   -1    0    0  501    0  0.00000000000E+00  0.00000000000E+00  0.15743474366E+04  0.15743474366E+04  0.00000000000E+00 0. -1.
         -2   -1    0    0    0  501 -0.00000000000E+00 -0.00000000000E+00 -0.11597956413E+03  0.11597956413E+03  0.00000000000E+00 0.  1.
         23    2    1    2    0    0 -0.33287537551E+03  0.38826640056E+02  0.22876438876E+03  0.41587093999E+03  0.91115144522E+02 0.  0.
         11    1    3    3    0    0 -0.27764943871E+03  0.47704426327E+02  0.14970256539E+03  0.31902316717E+03  0.00000000000E+00 0. -1.
        -11    1    3    3    0    0 -0.55225936799E+02 -0.88777862711E+01  0.79061823372E+02  0.96847772815E+02  0.00000000000E+00 0.  1.
         22    1    1    2    0    0  0.33287537551E+03 -0.38826640056E+02  0.12296034837E+04  0.12744560607E+04  0.00000000000E+00 0.  1.
<mgrwt>
<rscale>  0 0.85461601E+03</rscale>
<asrwt>0</asrwt>
<pdfrwt beam="1">  1        2 0.24220728E+00 0.85461601E+03</pdfrwt>
<pdfrwt beam="2">  1       -2 0.17843011E-01 0.85461601E+03</pdfrwt>
<totfact> 0.30242448E+02</totfact>
</mgrwt>
</event>
<event>
 6    1  0.9364335E-007  0.3802421E+04  0.7818608E-02  0.8045635E-01
         -2   -1    0    0    0  501 -0.00000000000E+00  0.00000000000E+00  0.17322775060E+04  0.17322775060E+04  0.00000000000E+00 0.  1.
          2   -1    0    0  501    0  0.00000000000E+00 -0.00000000000E+00 -0.20866182198E+04  0.20866182198E+04  0.00000000000E+00 0. -1.
         23    2    1    2    0    0 -0.18780925192E+04  0.71533548015E+02 -0.45772137022E+03  0.19366002868E+04  0.92537877480E+02 0.  0.
         13    1    3    3    0    0 -0.90761753927E+03  0.42171788630E+02 -0.26823524239E+03  0.94736381745E+03  0.00000000000E+00 0. -1.
        -13    1    3    3    0    0 -0.97047497997E+03  0.29361759385E+02 -0.18948612783E+03  0.98923646936E+03  0.00000000000E+00 0.  1.
         22    1    1    2    0    0  0.18780925192E+04 -0.71533548015E+02  0.10338065639E+03  0.18822954389E+04  0.00000000000E+00 0.  1.
<mgrwt>
<rscale>  0 0.38024212E+04</rscale>
<asrwt>0</asrwt>
<pdfrwt beam="1">  1        2 0.32101819E+00 0.38024212E+04</pdfrwt>
<pdfrwt beam="2">  1       -2 0.26650423E+00 0.38024212E+04</pdfrwt>
<totfact> 0.24399404E-01</totfact>
</mgrwt>
</event>
<event>
 6    1  0.9364335E-007  0.2286274E+04  0.7818608E-02  0.8483353E-01
         -2   -1    0    0    0  501 -0.00000000000E+00  0.00000000000E+00  0.13943317964E+04  0.13943317964E+04  0.00000000000E+00 0.  1.
          2   -1    0    0  501    0  0.00000000000E+00 -0.00000000000E+00 -0.93719570594E+03  0.93719570594E+03  0.00000000000E+00 0. -1.
         23    2    1    2    0    0  0.72228320288E+03 -0.69683314242E+03  0.78381289700E+03  0.12760715869E+04  0.82015753127E+02 0.  0.
         13    1    3    3    0    0  0.51516351310E+03 -0.45393367174E+03  0.50652317427E+03  0.85323792089E+03  0.00000000000E+00 0.  1.
        -13    1    3    3    0    0  0.20711968978E+03 -0.24289947068E+03  0.27728972273E+03  0.42283366598E+03  0.00000000000E+00 0. -1.
         22    1    1    2    0    0 -0.72228320288E+03  0.69683314242E+03 -0.32667680655E+03  0.10554559155E+04  0.00000000000E+00 0. -1.
<mgrwt>
<rscale>  0 0.22862736E+04</rscale>
<asrwt>0</asrwt>
<pdfrwt beam="1">  1        2 0.14418395E+00 0.22862736E+04</pdfrwt>
<pdfrwt beam="2">  1       -2 0.21451259E+00 0.22862736E+04</pdfrwt>
<totfact> 0.26908246E+00</totfact>
</mgrwt>
</event>
<event>
 6    1  0.1255362E-006  0.2619958E+04  0.7818608E-02  0.8361454E-01
         -2   -1    0    0    0  501 -0.00000000000E+00  0.00000000000E+00  0.17913554601E+04  0.17913554601E+04  0.00000000000E+00 0.  1.
          2   -1    0    0  501    0  0.00000000000E+00 -0.00000000000E+00 -0.95795865286E+03  0.95795865286E+03  0.00000000000E+00 0. -1.
         23    2    1    2    0    0  0.84553390403E+03  0.68546556378E+02  0.14626566639E+04  0.16930971937E+04  0.87105555588E+02 0.  0.
         13    1    3    3    0    0  0.57253401042E+03  0.54709611773E+02  0.10680335133E+04  0.12130473693E+04  0.00000000000E+00 0.  1.
        -13    1    3    3    0    0  0.27299989361E+03  0.13836944604E+02  0.39462315061E+03  0.48004982444E+03  0.00000000000E+00 0. -1.
         22    1    1    2    0    0 -0.84553390403E+03 -0.68546556378E+02 -0.62925985664E+03  0.10562169192E+04  0.00000000000E+00 0. -1.
<mgrwt>
<rscale>  0 0.26199576E+04</rscale>
<asrwt>0</asrwt>
<pdfrwt beam="1">  1        2 0.14737825E+00 0.26199576E+04</pdfrwt>
<pdfrwt beam="2">  1       -2 0.27559315E+00 0.26199576E+04</pdfrwt>
<totfact> 0.10612794E+00</totfact>
</mgrwt>
</event>
<event>
 6    1  0.9364335E-007  0.1687958E+04  0.7818608E-02  0.8768262E-01
         -2   -1    0    0    0  501 -0.00000000000E+00  0.00000000000E+00  0.26353680077E+03  0.26353680077E+03  0.00000000000E+00 0.  1.
          2   -1    0    0  501    0  0.00000000000E+00 -0.00000000000E+00 -0.27028498055E+04  0.27028498055E+04  0.00000000000E+00 0. -1.
         23    2    1    2    0    0  0.44552538906E+03 -0.40395698264E+03 -0.22576047455E+04  0.23381414251E+04  0.91934872641E+02 0.  0.
         13    1    3    3    0    0  0.36248842659E+03 -0.31821608302E+03 -0.16563394834E+04  0.17251434198E+04  0.00000000000E+00 0.  1.
        -13    1    3    3    0    0  0.83036962477E+02 -0.85740899613E+02 -0.60126526218E+03  0.61299800530E+03  0.00000000000E+00 0. -1.
         22    1    1    2    0    0 -0.44552538906E+03  0.40395698264E+03 -0.18170825916E+03  0.62824518109E+03  0.00000000000E+00 0.  1.
<mgrwt>
<rscale>  0 0.16879578E+04</rscale>
<asrwt>0</asrwt>
<pdfrwt beam="1">  1        2 0.41582305E+00 0.16879578E+04</pdfrwt>
<pdfrwt beam="2">  1       -2 0.40544123E-01 0.16879578E+04</pdfrwt>
<totfact> 0.14550963E+01</totfact>
</mgrwt>
</event>
<event>
 6    1  0.9364335E-007  0.1110832E+04  0.7818608E-02  0.9194698E-01
         -2   -1    0    0    0  501 -0.00000000000E+00  0.00000000000E+00  0.15691650949E+03  0.15691650949E+03  0.00000000000E+00 0.  1.
          2   -1    0    0  501    0  0.00000000000E+00 -0.00000000000E+00 -0.19659296687E+04  0.19659296687E+04  0.00000000000E+00 0. -1.
         23    2    1    2    0    0 -0.33050524965E+03 -0.26391429184E+03 -0.15872259093E+04  0.16452751806E+04  0.93594119683E+02 0.  0.
         11    1    3    3    0    0 -0.24941022658E+03 -0.14324236527E+03 -0.10759928884E+04  0.11137704127E+04  0.00000000000E+00 0. -1.
        -11    1    3    3    0    0 -0.81095023072E+02 -0.12067192657E+03 -0.51123302093E+03  0.53150476791E+03  0.00000000000E+00 0.  1.
         22    1    1    2    0    0  0.33050524965E+03  0.26391429184E+03 -0.22178724984E+03  0.47757099753E+03  0.00000000000E+00 0.  1.
<mgrwt>
<rscale>  0 0.11108318E+04</rscale>
<asrwt>0</asrwt>
<pdfrwt beam="1">  1        2 0.30245070E+00 0.11108318E+04</pdfrwt>
<pdfrwt beam="2">  1       -2 0.24141003E-01 0.11108318E+04</pdfrwt>
<totfact> 0.10602827E+02</totfact>
</mgrwt>
</event>
<event>
 6    1  0.9364335E-007  0.1871334E+04  0.7818608E-02  0.8669258E-01
         -1   -1    0    0    0  501 -0.00000000000E+00  0.00000000000E+00  0.78534990862E+03  0.78534990862E+03  0.00000000000E+00 0.  1.
          1   -1    0    0  501    0  0.00000000000E+00 -0.00000000000E+00 -0.11147553293E+04  0.11147553293E+04  0.00000000000E+00 0. -1.
         23    2    1    2    0    0 -0.66590302616E+03  0.16972579520E+03 -0.80620913602E+03  0.10636989557E+04  0.96169702112E+02 0.  0.
         11    1    3    3    0    0 -0.52271766908E+03  0.15679561410E+03 -0.68384715951E+03  0.87490888882E+03  0.00000000000E+00 0. -1.
        -11    1    3    3    0    0 -0.14318535709E+03  0.12930181096E+02 -0.12236197651E+03  0.18879006691E+03  0.00000000000E+00 0.  1.
         22    1    1    2    0    0  0.66590302616E+03 -0.16972579520E+03  0.47680371538E+03  0.83640628214E+03  0.00000000000E+00 0.  1.
<mgrwt>
<rscale>  0 0.18713343E+04</rscale>
<asrwt>0</asrwt>
<pdfrwt beam="1">  1        1 0.17150082E+00 0.18713343E+04</pdfrwt>
<pdfrwt beam="2">  1       -1 0.12082306E+00 0.18713343E+04</pdfrwt>
<totfact> 0.70573355E+00</totfact>
</mgrwt>
</event>
<event>
 6    1  0.1082332E-006  0.3829482E+04  0.7818608E-02  0.8039858E-01
         -2   -1    0    0    0  501 -0.00000000000E+00  0.00000000000E+00  0.16541326906E+04  0.16541326906E+04  0.00000000000E+00 0.  1.
          2   -1    0    0  501    0  0.00000000000E+00 -0.00000000000E+00 -0.22164077691E+04  0.22164077691E+04  0.00000000000E+00 0. -1.
         23    2    1    2    0    0  0.11718209982E+04  0.14675548613E+04  0.90230120367E+02  0.18824145187E+04  0.91984906191E+02 0.  0.
         13    1    3    3    0    0  0.98673626114E+03  0.12436009893E+04  0.10917322003E+03  0.15912607145E+04  0.00000000000E+00 0.  1.
        -13    1    3    3    0    0  0.18508473703E+03  0.22395387195E+03 -0.18943099665E+02  0.29115380415E+03  0.00000000000E+00 0. -1.
         22    1    1    2    0    0 -0.11718209982E+04 -0.14675548613E+04 -0.65250519890E+03  0.19881259410E+04  0.00000000000E+00 0. -1.
<mgrwt>
<rscale>  0 0.38294817E+04</rscale>
<asrwt>0</asrwt>
<pdfrwt beam="1">  1        2 0.34098581E+00 0.38294817E+04</pdfrwt>
<pdfrwt beam="2">  1       -2 0.25448195E+00 0.38294817E+04</pdfrwt>
<totfact> 0.24388485E-01</totfact>
</mgrwt>
</event>
<event>
 6    1  0.1259402E-006  0.3912935E+04  0.7818608E-02  0.8022344E-01
         -2   -1    0    0    0  501 -0.00000000000E+00  0.00000000000E+00  0.15459010847E+04  0.15459010847E+04  0.00000000000E+00 0.  1.
          2   -1    0    0  501    0  0.00000000000E+00 -0.00000000000E+00 -0.24760742824E+04  0.24760742824E+04  0.00000000000E+00 0. -1.
         23    2    1    2    0    0 -0.14437336689E+04  0.12488892351E+04 -0.29955964337E+02  0.19114109176E+04  0.92212297699E+02 0.  0.
         11    1    3    3    0    0 -0.47817740847E+03  0.44117864563E+03  0.28216750364E+02  0.65122071246E+03  0.00000000000E+00 0. -1.
        -11    1    3    3    0    0 -0.96555626044E+03  0.80771058948E+03 -0.58172714701E+02  0.12601902052E+04  0.00000000000E+00 0.  1.
         22    1    1    2    0    0  0.14437336689E+04 -0.12488892351E+04 -0.90021723333E+03  0.21105644495E+04  0.00000000000E+00 0. -1.
<mgrwt>
<rscale>  0 0.39129354E+04</rscale>
<asrwt>0</asrwt>
<pdfrwt beam="1">  1        2 0.38093450E+00 0.39129354E+04</pdfrwt>
<pdfrwt beam="2">  1       -2 0.23783094E+00 0.39129354E+04</pdfrwt>
<totfact> 0.21815697E-01</totfact>
</mgrwt>
</event>
<event>
 6    1  0.9364335E-007  0.7946954E+03  0.7818608E-02  0.9567727E-01
         -1   -1    0    0    0  501 -0.00000000000E+00  0.00000000000E+00  0.85327823602E+02  0.85327823602E+02  0.00000000000E+00 0.  1.
          1   -1    0    0  501    0  0.00000000000E+00 -0.00000000000E+00 -0.18503366678E+04  0.18503366678E+04  0.00000000000E+00 0. -1.
         23    2    1    2    0    0  0.35409946273E+03  0.96402659465E+02 -0.12303752241E+04  0.12871947465E+04  0.91472515991E+02 0.  0.
         11    1    3    3    0    0  0.58541115762E+02  0.46173122509E+02 -0.32625200974E+03  0.33466310424E+03  0.00000000000E+00 0.  1.
        -11    1    3    3    0    0  0.29555834697E+03  0.50229536957E+02 -0.90412321432E+03  0.95253164227E+03  0.00000000000E+00 0. -1.
         22    1    1    2    0    0 -0.35409946273E+03 -0.96402659465E+02 -0.53463362009E+03  0.64846974485E+03  0.00000000000E+00 0.  1.
<mgrwt>
<rscale>  0 0.79469542E+03</rscale>
<asrwt>0</asrwt>
<pdfrwt beam="1">  1        1 0.28466720E+00 0.79469542E+03</pdfrwt>
<pdfrwt beam="2">  1       -1 0.13127357E-01 0.79469542E+03</pdfrwt>
<totfact> 0.15720197E+02</totfact>
</mgrwt>
</event>
<event>
 6    1  0.9364335E-007  0.5638362E+04  0.7818608E-02  0.7736932E-01
         -2   -1    0    0    0  501 -0.00000000000E+00  0.00000000000E+00  0.21156055818E+04  0.21156055818E+04  0.00000000000E+00 0.  1.
          2   -1    0    0  501    0  0.00000000000E+00 -0.00000000000E+00 -0.37567411692E+04  0.37567411692E+04  0.00000000000E+00 0. -1.
         23    2    1    2    0    0 -0.75281392084E+02  0.27150337584E+04 -0.16038793661E+04  0.31560139982E+04  0.10449755247E+03 0.  0.
         11    1    3    3    0    0 -0.98360307676E+02  0.21130228212E+04 -0.12684369859E+04  0.24664696593E+04  0.00000000000E+00 0.  1.
        -11    1    3    3    0    0  0.23078915592E+02  0.60201093719E+03 -0.33544238023E+03  0.68954433889E+03  0.00000000000E+00 0. -1.
         22    1    1    2    0    0  0.75281392084E+02 -0.27150337584E+04 -0.37256221240E+02  0.27163327527E+04  0.00000000000E+00 0. -1.
<mgrwt>
<rscale>  0 0.56383624E+04</rscale>
<asrwt>0</asrwt>
<pdfrwt beam="1">  1        2 0.57796018E+00 0.56383624E+04</pdfrwt>
<pdfrwt beam="2">  1       -2 0.32547778E+00 0.56383624E+04</pdfrwt>
<totfact> 0.80895293E-03</totfact>
</mgrwt>
</event>
<event>
 6    1  0.9364335E-007  0.2499927E+04  0.7818608E-02  0.8403012E-01
         -2   -1    0    0    0  501 -0.00000000000E+00  0.00000000000E+00  0.19038748422E+04  0.19038748422E+04  0.00000000000E+00 0.  1.
          2   -1    0    0  501    0  0.00000000000E+00 -0.00000000000E+00 -0.82064653262E+03  0.82064653262E+03  0.00000000000E+00 0. -1.
         23    2    1    2    0    0 -0.53865001822E+03  0.33747016230E+03 -0.62852615682E+03  0.89856044813E+03  0.91300583546E+02 0.  0.
         13    1    3    3    0    0 -0.15425781442E+03  0.13174313676E+03 -0.15827962273E+03  0.25730170299E+03  0.00000000000E+00 0.  1.
        -13    1    3    3    0    0 -0.38439220380E+03  0.20572702554E+03 -0.47024653410E+03  0.64125874513E+03  0.00000000000E+00 0. -1.
         22    1    1    2    0    0  0.53865001822E+03 -0.33747016230E+03  0.17117544664E+04  0.18259609267E+04  0.00000000000E+00 0.  1.
<mgrwt>
<rscale>  0 0.24999266E+04</rscale>
<asrwt>0</asrwt>
<pdfrwt beam="1">  1        2 0.12625331E+00 0.24999266E+04</pdfrwt>
<pdfrwt beam="2">  1       -2 0.29290382E+00 0.24999266E+04</pdfrwt>
<totfact> 0.10430003E+00</totfact>
</mgrwt>
</event>
<event>
 6    1  0.9364335E-007  0.2413267E+04  0.7818608E-02  0.8434553E-01
         -2   -1    0    0    0  501 -0.00000000000E+00  0.00000000000E+00  0.95729809519E+03  0.95729809519E+03  0.00000000000E+00 0.  1.
          2   -1    0    0  501    0  0.00000000000E+00 -0.00000000000E+00 -0.15209100881E+04  0.15209100881E+04  0.00000000000E+00 0. -1.
         23    2    1    2    0    0  0.11404823781E+04  0.70337008146E+02  0.11037410785E+03  0.11515942178E+04  0.91320584819E+02 0.  0.
         11    1    3    3    0    0  0.34033408593E+03 -0.96370230958E+01  0.61456862625E+02  0.34597269866E+03  0.00000000000E+00 0. -1.
        -11    1    3    3    0    0  0.80014829218E+03  0.79974031242E+02  0.48917245224E+02  0.80562151909E+03  0.00000000000E+00 0.  1.
         22    1    1    2    0    0 -0.11404823781E+04 -0.70337008146E+02 -0.67398610071E+03  0.13266139655E+04  0.00000000000E+00 0. -1.
<mgrwt>
<rscale>  0 0.24132669E+04</rscale>
<asrwt>0</asrwt>
<pdfrwt beam="1">  1        2 0.23398617E+00 0.24132669E+04</pdfrwt>
<pdfrwt beam="2">  1       -2 0.14727663E+00 0.24132669E+04</pdfrwt>
<totfact> 0.34905040E+00</totfact>
</mgrwt>
</event>
<event>
 6    1  0.9364335E-007  0.3449121E+04  0.7818608E-02  0.8125955E-01
          1   -1    0    0  501    0  0.00000000000E+00  0.00000000000E+00  0.31083223651E+04  0.31083223651E+04  0.00000000000E+00 0. -1.
         -1   -1    0    0    0  501 -0.00000000000E+00 -0.00000000000E+00 -0.95682135030E+03  0.95682135030E+03  0.00000000000E+00 0.  1.
         23    2    1    2    0    0  0.46146307390E+02  0.93358360580E+03 -0.62991640183E+03  0.11308651539E+04  0.91397442105E+02 0.  0.
         11    1    3    3    0    0  0.27087776064E+02  0.91387992257E+02 -0.45758830291E+02  0.10573260278E+03  0.00000000000E+00 0. -1.
        -11    1    3    3    0    0  0.19058531326E+02  0.84219561354E+03 -0.58415757154E+03  0.10251325512E+04  0.00000000000E+00 0.  1.
         22    1    1    2    0    0 -0.46146307390E+02 -0.93358360580E+03  0.27814174167E+04  0.29342785615E+04  0.00000000000E+00 0. -1.
<mgrwt>
<rscale>  0 0.34491212E+04</rscale>
<asrwt>0</asrwt>
<pdfrwt beam="1">  1        1 0.47820344E+00 0.34491212E+04</pdfrwt>
<pdfrwt beam="2">  1       -1 0.14720329E+00 0.34491212E+04</pdfrwt>
<totfact> 0.14947343E-01</totfact>
</mgrwt>
</event>
<event>
 6    1  0.9364335E-007  0.4536312E+04  0.7818608E-02  0.7904310E-01
         -2   -1    0    0    0  501 -0.00000000000E+00  0.00000000000E+00  0.17966403709E+04  0.17966403709E+04  0.00000000000E+00 0.  1.
          2   -1    0    0  501    0  0.00000000000E+00 -0.00000000000E+00 -0.28634178141E+04  0.28634178141E+04  0.00000000000E+00 0. -1.
         23    2    1    2    0    0  0.12023625847E+04 -0.15106630641E+03  0.14348314605E+04  0.18803920322E+04  0.92930406648E+02 0.  0.
         11    1    3    3    0    0  0.82855114613E+03 -0.95112242237E+02  0.10510328650E+04  0.13417203225E+04  0.00000000000E+00 0.  1.
        -11    1    3    3    0    0  0.37381143861E+03 -0.55954064177E+02  0.38379859546E+03  0.53867170968E+03  0.00000000000E+00 0. -1.
         22    1    1    2    0    0 -0.12023625847E+04  0.15106630641E+03 -0.25016089037E+04  0.27796661528E+04  0.00000000000E+00 0. -1.
<mgrwt>
<rscale>  0 0.45363122E+04</rscale>
<asrwt>0</asrwt>
<pdfrwt beam="1">  1        2 0.44052582E+00 0.45363122E+04</pdfrwt>
<pdfrwt beam="2">  1       -2 0.27640621E+00 0.45363122E+04</pdfrwt>
<totfact> 0.70776699E-02</totfact>
</mgrwt>
</event>
<event>
 6    1  0.9364335E-007  0.1918937E+04  0.7818608E-02  0.8645487E-01
          2   -1    0    0  501    0  0.00000000000E+00  0.00000000000E+00  0.20948314672E+04  0.20948314672E+04  0.00000000000E+00 0. -1.
         -2   -1    0    0    0  501 -0.00000000000E+00 -0.00000000000E+00 -0.43945286159E+03  0.43945286159E+03  0.00000000000E+00 0.  1.
         23    2    1    2    0    0  0.38697463500E+03  0.50652238872E+03 -0.11355399548E+03  0.65400859220E+03  0.92295343203E+02 0.  0.
         11    1    3    3    0    0  0.29115227138E+03  0.39164889202E+03 -0.46979334467E+02  0.49027090227E+03  0.00000000000E+00 0. -1.
        -11    1    3    3    0    0  0.95822363620E+02  0.11487349670E+03 -0.66574661013E+02  0.16373768993E+03  0.00000000000E+00 0.  1.
         22    1    1    2    0    0 -0.38697463500E+03 -0.50652238872E+03  0.17689326011E+04  0.18802757366E+04  0.00000000000E+00 0. -1.
<mgrwt>
<rscale>  0 0.19189369E+04</rscale>
<asrwt>0</asrwt>
<pdfrwt beam="1">  1        2 0.32228176E+00 0.19189369E+04</pdfrwt>
<pdfrwt beam="2">  1       -2 0.67608133E-01 0.19189369E+04</pdfrwt>
<totfact> 0.11091558E+01</totfact>
</mgrwt>
</event>
<event>
 6    1  0.9364335E-007  0.2103962E+04  0.7818608E-02  0.8559500E-01
          1   -1    0    0  501    0  0.00000000000E+00  0.00000000000E+00  0.12361402039E+04  0.12361402039E+04  0.00000000000E+00 0. -1.
         -1   -1    0    0    0  501 -0.00000000000E+00 -0.00000000000E+00 -0.89525794523E+03  0.89525794523E+03  0.00000000000E+00 0.  1.
         23    2    1    2    0    0  0.18246188378E+03  0.36993530148E+03 -0.80741932513E+03  0.91125840563E+03  0.91221976053E+02 0.  0.
         11    1    3    3    0    0  0.10860510030E+03  0.27947843299E+03 -0.64424376208E+03  0.71060065247E+03  0.00000000000E+00 0. -1.
        -11    1    3    3    0    0  0.73856783478E+02  0.90456868492E+02 -0.16317556305E+03  0.20065775316E+03  0.00000000000E+00 0.  1.
         22    1    1    2    0    0 -0.18246188378E+03 -0.36993530148E+03  0.11483015838E+04  0.12201397435E+04  0.00000000000E+00 0. -1.
<mgrwt>
<rscale>  0 0.21039623E+04</rscale>
<asrwt>0</asrwt>
<pdfrwt beam="1">  1        1 0.19017542E+00 0.21039623E+04</pdfrwt>
<pdfrwt beam="2">  1       -1 0.13773199E+00 0.21039623E+04</pdfrwt>
<totfact> 0.40445734E+00</totfact>
</mgrwt>
</event>
<event>
 6    1  0.9364335E-007  0.5720398E+03  0.7818608E-02  0.9965175E-01
          2   -1    0    0  501    0  0.00000000000E+00  0.00000000000E+00  0.10022068334E+04  0.10022068334E+04  0.00000000000E+00 0. -1.
         -2   -1    0    0    0  501 -0.00000000000E+00 -0.00000000000E+00 -0.81627240491E+02  0.81627240491E+02  0.00000000000E+00 0.  1.
         23    2    1    2    0    0  0.16836482029E+03 -0.50272363467E+02  0.88202635733E+03  0.90394417640E+03  0.90942596173E+02 0.  0.
         13    1    3    3    0    0  0.89298163983E+02 -0.49812912845E+02  0.30876615438E+03  0.32525686229E+03  0.00000000000E+00 0.  1.
        -13    1    3    3    0    0  0.79066656303E+02 -0.45945062195E+00  0.57326020294E+03  0.57868731411E+03  0.00000000000E+00 0. -1.
         22    1    1    2    0    0 -0.16836482029E+03  0.50272363467E+02  0.38553235564E+02  0.17988989747E+03  0.00000000000E+00 0.  1.
<mgrwt>
<rscale>  0 0.57203978E+03</rscale>
<asrwt>0</asrwt>
<pdfrwt beam="1">  1        2 0.15418566E+00 0.57203978E+03</pdfrwt>
<pdfrwt beam="2">  1       -2 0.12558038E-01 0.57203978E+03</pdfrwt>
<totfact> 0.11944181E+03</totfact>
</mgrwt>
</event>
<event>
 6    1  0.9364335E-007  0.4687881E+04  0.7818608E-02  0.7878545E-01
         -2   -1    0    0    0  501 -0.00000000000E+00  0.00000000000E+00  0.24838795497E+04  0.24838795497E+04  0.00000000000E+00 0.  1.
          2   -1    0    0  501    0  0.00000000000E+00 -0.00000000000E+00 -0.22118854873E+04  0.22118854873E+04  0.00000000000E+00 0. -1.
         23    2    1    2    0    0 -0.37109985939E+02  0.23222444611E+04  0.44613630348E+03  0.23667047096E+04  0.89761312567E+02 0.  0.
         13    1    3    3    0    0  0.12435763519E+02  0.12990880280E+04  0.21914971118E+03  0.13175017831E+04  0.00000000000E+00 0. -1.
        -13    1    3    3    0    0 -0.49545749458E+02  0.10231564331E+04  0.22698659230E+03  0.10492029265E+04  0.00000000000E+00 0.  1.
         22    1    1    2    0    0  0.37109985939E+02 -0.23222444611E+04 -0.17414224107E+03  0.23290603273E+04  0.00000000000E+00 0. -1.
<mgrwt>
<rscale>  0 0.46878810E+04</rscale>
<asrwt>0</asrwt>
<pdfrwt beam="1">  1        2 0.34029008E+00 0.46878810E+04</pdfrwt>
<pdfrwt beam="2">  1       -2 0.38213531E+00 0.46878810E+04</pdfrwt>
<totfact> 0.36813224E-02</totfact>
</mgrwt>
</event>
<event>
 6    1  0.9364335E-007  0.1328353E+04  0.7818608E-02  0.9007378E-01
          4   -1    0    0  501    0  0.00000000000E+00  0.00000000000E+00  0.13136560900E+04  0.13136560900E+04  0.00000000000E+00 0. -1.
         -4   -1    0    0    0  501 -0.00000000000E+00 -0.00000000000E+00 -0.33580357368E+03  0.33580357368E+03  0.00000000000E+00 0.  1.
         23    2    1    2    0    0 -0.56074651176E+03  0.26654117435E+03  0.20979765661E+03  0.66184176408E+03  0.92404631307E+02 0.  0.
         11    1    3    3    0    0 -0.49657829297E+03  0.23958321199E+03  0.15349866154E+03  0.57232154914E+03  0.00000000000E+00 0. -1.
        -11    1    3    3    0    0 -0.64168218796E+02  0.26957962355E+02  0.56298995065E+02  0.89520214941E+02  0.00000000000E+00 0.  1.
         22    1    1    2    0    0  0.56074651176E+03 -0.26654117435E+03  0.76805485973E+03  0.98761789961E+03  0.00000000000E+00 0. -1.
<mgrwt>
<rscale>  0 0.13283530E+04</rscale>
<asrwt>0</asrwt>
<pdfrwt beam="1">  1        4 0.20210093E+00 0.13283530E+04</pdfrwt>
<pdfrwt beam="2">  1       -4 0.51662089E-01 0.13283530E+04</pdfrwt>
<totfact> 0.89826548E-01</totfact>
</mgrwt>
</event>
<event>
 6    1  0.9364335E-007  0.1334691E+04  0.7818608E-02  0.9002498E-01
         -2   -1    0    0    0  501 -0.00000000000E+00  0.00000000000E+00  0.83215556560E+03  0.83215556560E+03  0.00000000000E+00 0.  1.
          2   -1    0    0  501    0  0.00000000000E+00 -0.00000000000E+00 -0.53517675547E+03  0.53517675547E+03  0.00000000000E+00 0. -1.
         23    2    1    2    0    0  0.18482379853E+03 -0.63604495919E+03  0.20165693572E+03  0.69815425332E+03  0.89670592108E+02 0.  0.
         11    1    3    3    0    0  0.30377754552E+02 -0.26109982396E+03  0.76269813607E+02  0.27370241232E+03  0.00000000000E+00 0. -1.
        -11    1    3    3    0    0  0.15444604398E+03 -0.37494513523E+03  0.12538712211E+03  0.42445184100E+03  0.00000000000E+00 0.  1.
         22    1    1    2    0    0 -0.18482379853E+03  0.63604495919E+03  0.95321874414E+02  0.66917806775E+03  0.00000000000E+00 0. -1.
<mgrwt>
<rscale>  0 0.13346914E+04</rscale>
<asrwt>0</asrwt>
<pdfrwt beam="1">  1        2 0.82334885E-01 0.13346914E+04</pdfrwt>
<pdfrwt beam="2">  1       -2 0.12802393E+00 0.13346914E+04</pdfrwt>
<totfact> 0.25090371E+01</totfact>
</mgrwt>
</event>
<event>
 6    1  0.9364335E-007  0.2611546E+04  0.7818608E-02  0.8364290E-01
          2   -1    0    0  501    0  0.00000000000E+00  0.00000000000E+00  0.18995785998E+04  0.18995785998E+04  0.00000000000E+00 0. -1.
         -2   -1    0    0    0  501 -0.00000000000E+00 -0.00000000000E+00 -0.89759003910E+03  0.89759003910E+03  0.00000000000E+00 0.  1.
         23    2    1    2    0    0 -0.41228865929E+03  0.11848373181E+04  0.11754839908E+03  0.12622237512E+04  0.74630844796E+02 0.  0.
         11    1    3    3    0    0 -0.24446084910E+03  0.65995296673E+03  0.10034860713E+03  0.71089300742E+03  0.00000000000E+00 0.  1.
        -11    1    3    3    0    0 -0.16782781019E+03  0.52488435135E+03  0.17199791951E+02  0.55133074375E+03  0.00000000000E+00 0. -1.
         22    1    1    2    0    0  0.41228865929E+03 -0.11848373181E+04  0.88444016166E+03  0.15349448878E+04  0.00000000000E+00 0. -1.
<mgrwt>
<rscale>  0 0.26115458E+04</rscale>
<asrwt>0</asrwt>
<pdfrwt beam="1">  1        2 0.29224286E+00 0.26115458E+04</pdfrwt>
<pdfrwt beam="2">  1       -2 0.13809078E+00 0.26115458E+04</pdfrwt>
<totfact> 0.24991728E+00</totfact>
</mgrwt>
</event>
<event>
 6    1  0.9364335E-007  0.2931430E+04  0.7818608E-02  0.8263587E-01
         -2   -1    0    0    0  501 -0.00000000000E+00  0.00000000000E+00  0.12578066728E+04  0.12578066728E+04  0.00000000000E+00 0.  1.
          2   -1    0    0  501    0  0.00000000000E+00 -0.00000000000E+00 -0.17079890320E+04  0.17079890320E+04  0.00000000000E+00 0. -1.
         23    2    1    2    0    0  0.64080753576E+03  0.10314394374E+04  0.60264057855E+03  0.13586436432E+04  0.90748396868E+02 0.  0.
         11    1    3    3    0    0  0.19133696226E+03  0.33874203346E+03  0.23715905235E+03  0.45563188482E+03  0.00000000000E+00 0.  1.
        -11    1    3    3    0    0  0.44947057350E+03  0.69269740393E+03  0.36548152620E+03  0.90301175842E+03  0.00000000000E+00 0. -1.
         22    1    1    2    0    0 -0.64080753576E+03 -0.10314394374E+04 -0.10528229377E+04  0.16071520616E+04  0.00000000000E+00 0. -1.
<mgrwt>
<rscale>  0 0.29314297E+04</rscale>
<asrwt>0</asrwt>
<pdfrwt beam="1">  1        2 0.26276754E+00 0.29314297E+04</pdfrwt>
<pdfrwt beam="2">  1       -2 0.19350872E+00 0.29314297E+04</pdfrwt>
<totfact> 0.12271785E+00</totfact>
</mgrwt>
</event>
<event>
 6    1  0.9364335E-007  0.2661225E+04  0.7818608E-02  0.8347697E-01
          1   -1    0    0  501    0  0.00000000000E+00  0.00000000000E+00  0.29288136673E+04  0.29288136673E+04  0.00000000000E+00 0. -1.
         -1   -1    0    0    0  501 -0.00000000000E+00 -0.00000000000E+00 -0.60452095180E+03  0.60452095180E+03  0.00000000000E+00 0.  1.
         23    2    1    2    0    0  0.19089795908E+03 -0.87331556617E+03 -0.14252084697E+03  0.90954132297E+03  0.88493601320E+02 0.  0.
         13    1    3    3    0    0  0.90204253798E+02 -0.41706555560E+03 -0.11280615836E+03  0.44136800341E+03  0.00000000000E+00 0. -1.
        -13    1    3    3    0    0  0.10069370528E+03 -0.45625001057E+03 -0.29714688612E+02  0.46817331956E+03  0.00000000000E+00 0.  1.
         22    1    1    2    0    0 -0.19089795908E+03  0.87331556617E+03  0.24668135625E+04  0.26237932962E+04  0.00000000000E+00 0. -1.
<mgrwt>
<rscale>  0 0.26612247E+04</rscale>
<asrwt>0</asrwt>
<pdfrwt beam="1">  1        1 0.45058671E+00 0.26612247E+04</pdfrwt>
<pdfrwt beam="2">  1       -1 0.93003225E-01 0.26612247E+04</pdfrwt>
<totfact> 0.66222595E-01</totfact>
</mgrwt>
</event>
<event>
 6    1  0.9364335E-007  0.1775451E+04  0.7818608E-02  0.8719464E-01
         -2   -1    0    0    0  501 -0.00000000000E+00  0.00000000000E+00  0.43582552082E+03  0.43582552082E+03  0.00000000000E+00 0.  1.
          2   -1    0    0  501    0  0.00000000000E+00 -0.00000000000E+00 -0.18081932820E+04  0.18081932820E+04  0.00000000000E+00 0. -1.
         23    2    1    2    0    0  0.32080414763E+03 -0.73493568127E+03 -0.11624865161E+04  0.14151063263E+04  0.90029205712E+02 0.  0.
         13    1    3    3    0    0  0.14301733927E+03 -0.28771357277E+03 -0.39452088028E+03  0.50880230372E+03  0.00000000000E+00 0.  1.
        -13    1    3    3    0    0  0.17778680836E+03 -0.44722210850E+03 -0.76796563578E+03  0.90630402255E+03  0.00000000000E+00 0. -1.
         22    1    1    2    0    0 -0.32080414763E+03  0.73493568127E+03 -0.20988124512E+03  0.82891247656E+03  0.00000000000E+00 0.  1.
<mgrwt>
<rscale>  0 0.17754512E+04</rscale>
<asrwt>0</asrwt>
<pdfrwt beam="1">  1        2 0.27818358E+00 0.17754512E+04</pdfrwt>
<pdfrwt beam="2">  1       -2 0.67050081E-01 0.17754512E+04</pdfrwt>
<totfact> 0.16488020E+01</totfact>
</mgrwt>
</event>
<event>
 6    1  0.9364335E-007  0.2439084E+04  0.7818608E-02  0.8425015E-01
         -2   -1    0    0    0  501 -0.00000000000E+00  0.00000000000E+00  0.10046041659E+04  0.10046041659E+04  0.00000000000E+00 0.  1.
          2   -1    0    0  501    0  0.00000000000E+00 -0.00000000000E+00 -0.14804659017E+04  0.14804659017E+04  0.00000000000E+00 0. -1.
         23    2    1    2    0    0 -0.10766051687E+04  0.23439604441E+03  0.29031074489E+03  0.11430415787E+04  0.90793871466E+02 0.  0.
         11    1    3    3    0    0 -0.24699159967E+02  0.55765549413E+01 -0.69317972745E+01  0.26252548096E+02  0.00000000000E+00 0.  1.
        -11    1    3    3    0    0 -0.10519060087E+04  0.22881948946E+03  0.29724254217E+03  0.11167890306E+04  0.00000000000E+00 0. -1.
         22    1    1    2    0    0  0.10766051687E+04 -0.23439604441E+03 -0.76617248065E+03  0.13420284889E+04  0.00000000000E+00 0. -1.
<mgrwt>
<rscale>  0 0.24390836E+04</rscale>
<asrwt>0</asrwt>
<pdfrwt beam="1">  1        2 0.22776398E+00 0.24390836E+04</pdfrwt>
<pdfrwt beam="2">  1       -2 0.15455449E+00 0.24390836E+04</pdfrwt>
<totfact> 0.32294547E+00</totfact>
</mgrwt>
</event>
<event>
 6    1  0.9364335E-007  0.1333572E+04  0.7818608E-02  0.9003358E-01
         -1   -1    0    0    0  501 -0.00000000000E+00  0.00000000000E+00  0.78516421291E+03  0.78516421291E+03  0.00000000000E+00 0.  1.
          1   -1    0    0  501    0  0.00000000000E+00 -0.00000000000E+00 -0.56625549684E+03  0.56625549684E+03  0.00000000000E+00 0. -1.
         23    2    1    2    0    0  0.49653486669E+03  0.11529740777E+03  0.54068712057E+03  0.74860820714E+03  0.90726618859E+02 0.  0.
         13    1    3    3    0    0  0.18971493218E+03  0.53976712893E+01  0.16740073935E+03  0.25306895875E+03  0.00000000000E+00 0. -1.
        -13    1    3    3    0    0  0.30681993451E+03  0.10989973648E+03  0.37328638122E+03  0.49553924839E+03  0.00000000000E+00 0.  1.
         22    1    1    2    0    0 -0.49653486669E+03 -0.11529740777E+03 -0.32177840450E+03  0.60281150261E+03  0.00000000000E+00 0. -1.
<mgrwt>
<rscale>  0 0.13335720E+04</rscale>
<asrwt>0</asrwt>
<pdfrwt beam="1">  1        1 0.87116230E-01 0.13335720E+04</pdfrwt>
<pdfrwt beam="2">  1       -1 0.12079449E+00 0.13335720E+04</pdfrwt>
<totfact> 0.22226815E+01</totfact>
</mgrwt>
</event>
<event>
 6    1  0.9364335E-007  0.6934326E+04  0.7818608E-02  0.7584247E-01
          2   -1    0    0  501    0  0.00000000000E+00  0.00000000000E+00  0.43147605714E+04  0.43147605714E+04  0.00000000000E+00 0. -1.
         -2   -1    0    0    0  501 -0.00000000000E+00 -0.00000000000E+00 -0.27860684809E+04  0.27860684809E+04  0.00000000000E+00 0.  1.
         23    2    1    2    0    0 -0.21444894161E+04 -0.17249161197E+04 -0.13938875796E+04  0.30863997774E+04  0.93651084421E+02 0.  0.
         13    1    3    3    0    0 -0.79379090594E+03 -0.65026026611E+03 -0.56960211281E+03  0.11736221636E+04  0.00000000000E+00 0. -1.
        -13    1    3    3    0    0 -0.13506985101E+04 -0.10746558536E+04 -0.82428546680E+03  0.19127776138E+04  0.00000000000E+00 0.  1.
         22    1    1    2    0    0  0.21444894161E+04  0.17249161197E+04  0.29225796701E+04  0.40144292750E+04  0.00000000000E+00 0. -1.
<mgrwt>
<rscale>  0 0.69343258E+04</rscale>
<asrwt>0</asrwt>
<pdfrwt beam="1">  1        2 0.66380932E+00 0.69343258E+04</pdfrwt>
<pdfrwt beam="2">  1       -2 0.42862592E+00 0.69343258E+04</pdfrwt>
<totfact> 0.55079314E-04</totfact>
</mgrwt>
</event>
<event>
 6    1  0.9364335E-007  0.1496711E+04  0.7818608E-02  0.8886643E-01
         -2   -1    0    0    0  501 -0.00000000000E+00  0.00000000000E+00  0.17868573830E+03  0.17868573830E+03  0.00000000000E+00 0.  1.
          2   -1    0    0  501    0  0.00000000000E+00 -0.00000000000E+00 -0.31341965595E+04  0.31341965595E+04  0.00000000000E+00 0. -1.
         23    2    1    2    0    0  0.55631809512E+03  0.27100778691E+03 -0.56267503400E+03  0.84132445951E+03  0.91041796720E+02 0.  0.
         13    1    3    3    0    0  0.17798718480E+03  0.10634222057E+03 -0.24254656352E+03  0.31908767025E+03  0.00000000000E+00 0. -1.
        -13    1    3    3    0    0  0.37833091032E+03  0.16466556634E+03 -0.32012847048E+03  0.52223678926E+03  0.00000000000E+00 0.  1.
         22    1    1    2    0    0 -0.55631809512E+03 -0.27100778691E+03 -0.23928357872E+04  0.24715578383E+04  0.00000000000E+00 0. -1.
<mgrwt>
<rscale>  0 0.14967114E+04</rscale>
<asrwt>0</asrwt>
<pdfrwt beam="1">  1        2 0.48218405E+00 0.14967114E+04</pdfrwt>
<pdfrwt beam="2">  1       -2 0.27490116E-01 0.14967114E+04</pdfrwt>
<totfact> 0.16824599E+01</totfact>
</mgrwt>
</event>
<event>
 6    1  0.9364335E-007  0.6824383E+03  0.7818608E-02  0.9747746E-01
          2   -1    0    0  501    0  0.00000000000E+00  0.00000000000E+00  0.14001798669E+04  0.14001798669E+04  0.00000000000E+00 0. -1.
         -2   -1    0    0    0  501 -0.00000000000E+00 -0.00000000000E+00 -0.83153957429E+02  0.83153957429E+02  0.00000000000E+00 0.  1.
         23    2    1    2    0    0 -0.41534676326E+02  0.21042935885E+03  0.12288067431E+04  0.12514108507E+04  0.10028689333E+03 0.  0.
         13    1    3    3    0    0  0.89796908981E+01 -0.14037468684E+00  0.19310774295E+03  0.19331646319E+03  0.00000000000E+00 0.  1.
        -13    1    3    3    0    0 -0.50514367225E+02  0.21056973353E+03  0.10356990001E+04  0.10580943875E+04  0.00000000000E+00 0. -1.
         22    1    1    2    0    0  0.41534676326E+02 -0.21042935885E+03  0.88219166449E+02  0.23192297370E+03  0.00000000000E+00 0.  1.
<mgrwt>
<rscale>  0 0.68243827E+03</rscale>
<asrwt>0</asrwt>
<pdfrwt beam="1">  1        2 0.21541227E+00 0.68243827E+03</pdfrwt>
<pdfrwt beam="2">  1       -2 0.12792918E-01 0.68243827E+03</pdfrwt>
<totfact> 0.67115415E+02</totfact>
</mgrwt>
</event>
<event>
 6    1  0.9364335E-007  0.1505904E+04  0.7818608E-02  0.8880536E-01
          1   -1    0    0  501    0  0.00000000000E+00  0.00000000000E+00  0.29487393947E+04  0.29487393947E+04  0.00000000000E+00 0. -1.
         -1   -1    0    0    0  501 -0.00000000000E+00 -0.00000000000E+00 -0.19226419586E+03  0.19226419586E+03  0.00000000000E+00 0.  1.
         23    2    1    2    0    0 -0.18301815198E+03 -0.43517848242E+03  0.16966435230E+03  0.51146630972E+03  0.99678673874E+02 0.  0.
         11    1    3    3    0    0 -0.10691417081E+02 -0.64847175349E+02  0.58895913898E+02  0.88250729310E+02  0.00000000000E+00 0. -1.
        -11    1    3    3    0    0 -0.17232673490E+03 -0.37033130707E+03  0.11076843840E+03  0.42321558041E+03  0.00000000000E+00 0.  1.
         22    1    1    2    0    0  0.18301815198E+03  0.43517848242E+03  0.25868108466E+04  0.26295372808E+04  0.00000000000E+00 0. -1.
<mgrwt>
<rscale>  0 0.15059044E+04</rscale>
<asrwt>0</asrwt>
<pdfrwt beam="1">  1        1 0.45365218E+00 0.15059044E+04</pdfrwt>
<pdfrwt beam="2">  1       -1 0.29579109E-01 0.15059044E+04</pdfrwt>
<totfact> 0.66256635E+00</totfact>
</mgrwt>
</event>
<event>
 6    1  0.9364335E-007  0.2075077E+04  0.7818608E-02  0.8572302E-01
         -2   -1    0    0    0  501 -0.00000000000E+00  0.00000000000E+00  0.38091112918E+03  0.38091112918E+03  0.00000000000E+00 0.  1.
          2   -1    0    0  501    0  0.00000000000E+00 -0.00000000000E+00 -0.28260822710E+04  0.28260822710E+04  0.00000000000E+00 0. -1.
         23    2    1    2    0    0  0.85229071825E+03  0.47373066041E+03 -0.17630401622E+04  0.20169837866E+04  0.95356042637E+02 0.  0.
         13    1    3    3    0    0  0.52671032779E+03  0.25000968112E+03 -0.99242087887E+03  0.11510116467E+04  0.00000000000E+00 0.  1.
        -13    1    3    3    0    0  0.32558039046E+03  0.22372097930E+03 -0.77061928329E+03  0.86597213986E+03  0.00000000000E+00 0. -1.
         22    1    1    2    0    0 -0.85229071825E+03 -0.47373066041E+03 -0.68213097962E+03  0.11900096136E+04  0.00000000000E+00 0.  1.
<mgrwt>
<rscale>  0 0.20750770E+04</rscale>
<asrwt>0</asrwt>
<pdfrwt beam="1">  1        2 0.43478190E+00 0.20750770E+04</pdfrwt>
<pdfrwt beam="2">  1       -2 0.58601711E-01 0.20750770E+04</pdfrwt>
<totfact> 0.56117709E+00</totfact>
</mgrwt>
</event>
<event>
 6    1  0.9364335E-007  0.3135741E+04  0.7818608E-02  0.8205997E-01
          1   -1    0    0  501    0  0.00000000000E+00  0.00000000000E+00  0.26495361432E+04  0.26495361432E+04  0.00000000000E+00 0. -1.
         -1   -1    0    0    0  501 -0.00000000000E+00 -0.00000000000E+00 -0.92779150909E+03  0.92779150909E+03  0.00000000000E+00 0.  1.
         23    2    1    2    0    0  0.12063464732E+04 -0.99930172418E+03  0.83836998472E+03  0.17789321117E+04  0.88653693506E+02 0.  0.
         11    1    3    3    0    0  0.83558784019E+03 -0.70640686017E+03  0.62947168547E+03  0.12623202025E+04  0.00000000000E+00 0. -1.
        -11    1    3    3    0    0  0.37075863299E+03 -0.29289486401E+03  0.20889829926E+03  0.51661190920E+03  0.00000000000E+00 0.  1.
         22    1    1    2    0    0 -0.12063464732E+04  0.99930172418E+03  0.88337464935E+03  0.17983955406E+04  0.00000000000E+00 0. -1.
<mgrwt>
<rscale>  0 0.31357405E+04</rscale>
<asrwt>0</asrwt>
<pdfrwt beam="1">  1        1 0.40762094E+00 0.31357405E+04</pdfrwt>
<pdfrwt beam="2">  1       -1 0.14273716E+00 0.31357405E+04</pdfrwt>
<totfact> 0.35675717E-01</totfact>
</mgrwt>
</event>
<event>
 6    1  0.9364335E-007  0.1517230E+04  0.7818608E-02  0.8873075E-01
         -2   -1    0    0    0  501 -0.00000000000E+00  0.00000000000E+00  0.24871598110E+03  0.24871598110E+03  0.00000000000E+00 0.  1.
          2   -1    0    0  501    0  0.00000000000E+00 -0.00000000000E+00 -0.23138713110E+04  0.23138713110E+04  0.00000000000E+00 0. -1.
         23    2    1    2    0    0 -0.39796875337E+03  0.36460038478E+03 -0.14244820350E+03  0.56556068659E+03  0.90856096647E+02 0.  0.
         11    1    3    3    0    0 -0.18924617661E+03  0.13912540363E+03 -0.23379184260E+02  0.23604359672E+03  0.00000000000E+00 0. -1.
        -11    1    3    3    0    0 -0.20872257676E+03  0.22547498114E+03 -0.11906901924E+03  0.32951708986E+03  0.00000000000E+00 0.  1.
         22    1    1    2    0    0  0.39796875337E+03 -0.36460038478E+03 -0.19227071264E+04  0.19970266055E+04  0.00000000000E+00 0. -1.
<mgrwt>
<rscale>  0 0.15172301E+04</rscale>
<asrwt>0</asrwt>
<pdfrwt beam="1">  1        2 0.35598021E+00 0.15172301E+04</pdfrwt>
<pdfrwt beam="2">  1       -2 0.38263996E-01 0.15172301E+04</pdfrwt>
<totfact> 0.27750434E+01</totfact>
</mgrwt>
</event>
<event>
 6    1  0.9364335E-007  0.8044694E+03  0.7818608E-02  0.9553570E-01
         -2   -1    0    0    0  501 -0.00000000000E+00  0.00000000000E+00  0.79214400301E+02  0.79214400301E+02  0.00000000000E+00 0.  1.
          2   -1    0    0  501    0  0.00000000000E+00 -0.00000000000E+00 -0.20424664395E+04  0.20424664395E+04  0.00000000000E+00 0. -1.
         23    2    1    2    0    0  0.32315365497E+03 -0.22467591651E+03 -0.85357635448E+03  0.94427365558E+03  0.90291702415E+02 0.  0.
         11    1    3    3    0    0  0.23353227193E+03 -0.13371523809E+03 -0.49161545702E+03  0.56044878848E+03  0.00000000000E+00 0.  1.
        -11    1    3    3    0    0  0.89621383040E+02 -0.90960678426E+02 -0.36196089746E+03  0.38382486711E+03  0.00000000000E+00 0. -1.
         22    1    1    2    0    0 -0.32315365497E+03  0.22467591651E+03 -0.11096756847E+04  0.11774071842E+04  0.00000000000E+00 0. -1.
<mgrwt>
<rscale>  0 0.80446940E+03</rscale>
<asrwt>0</asrwt>
<pdfrwt beam="1">  1        2 0.31422561E+00 0.80446940E+03</pdfrwt>
<pdfrwt beam="2">  1       -2 0.12186831E-01 0.80446940E+03</pdfrwt>
<totfact> 0.32027275E+02</totfact>
</mgrwt>
</event>
<event>
 6    1  0.9364335E-007  0.1464212E+04  0.7818608E-02  0.8908607E-01
         -1   -1    0    0    0  501 -0.00000000000E+00  0.00000000000E+00  0.41611977256E+03  0.41611977256E+03  0.00000000000E+00 0.  1.
          1   -1    0    0  501    0  0.00000000000E+00 -0.00000000000E+00 -0.12880407925E+04  0.12880407925E+04  0.00000000000E+00 0. -1.
         23    2    1    2    0    0  0.32501212510E+03  0.61783985723E+03 -0.68316931521E+03  0.98098273309E+03  0.90817612451E+02 0.  0.
         11    1    3    3    0    0  0.10084638839E+03  0.28471760109E+03 -0.27656504732E+03  0.40953917007E+03  0.00000000000E+00 0. -1.
        -11    1    3    3    0    0  0.22416573671E+03  0.33312225614E+03 -0.40660426789E+03  0.57144356302E+03  0.00000000000E+00 0.  1.
         22    1    1    2    0    0 -0.32501212510E+03 -0.61783985723E+03 -0.18875170475E+03  0.72317783199E+03  0.00000000000E+00 0.  1.
<mgrwt>
<rscale>  0 0.14642121E+04</rscale>
<asrwt>0</asrwt>
<pdfrwt beam="1">  1        1 0.19816012E+00 0.14642121E+04</pdfrwt>
<pdfrwt beam="2">  1       -1 0.64018429E-01 0.14642121E+04</pdfrwt>
<totfact> 0.22146722E+01</totfact>
</mgrwt>
</event>
<event>
 6    1  0.9895927E-007  0.4434358E+04  0.7818608E-02  0.7922231E-01
          2   -1    0    0  501    0  0.00000000000E+00  0.00000000000E+00  0.26880829765E+04  0.26880829765E+04  0.00000000000E+00 0. -1.
         -2   -1    0    0    0  501 -0.00000000000E+00 -0.00000000000E+00 -0.18287692949E+04  0.18287692949E+04  0.00000000000E+00 0.  1.
         23    2    1    2    0    0 -0.80349999797E+03 -0.20655190700E+04  0.43226825763E+03  0.22597857971E+04  0.88287751359E+02 0.  0.
         13    1    3    3    0    0 -0.41704496770E+03 -0.10499370452E+04  0.17611538974E+03  0.11433769870E+04  0.00000000000E+00 0. -1.
        -13    1    3    3    0    0 -0.38645503027E+03 -0.10155820248E+04  0.25615286789E+03  0.11164088101E+04  0.00000000000E+00 0.  1.
         22    1    1    2    0    0  0.80349999797E+03  0.20655190700E+04  0.42704542394E+03  0.22570664743E+04  0.00000000000E+00 0. -1.
<mgrwt>
<rscale>  0 0.44343584E+04</rscale>
<asrwt>0</asrwt>
<pdfrwt beam="1">  1        2 0.41355123E+00 0.44343584E+04</pdfrwt>
<pdfrwt beam="2">  1       -2 0.28134912E+00 0.44343584E+04</pdfrwt>
<totfact> 0.84954064E-02</totfact>
</mgrwt>
</event>
<event>
 6    1  0.9364335E-007  0.1767491E+04  0.7818608E-02  0.8723781E-01
          1   -1    0    0  501    0  0.00000000000E+00  0.00000000000E+00  0.28956862067E+04  0.28956862067E+04  0.00000000000E+00 0. -1.
         -1   -1    0    0    0  501 -0.00000000000E+00 -0.00000000000E+00 -0.26971359029E+03  0.26971359029E+03  0.00000000000E+00 0.  1.
         23    2    1    2    0    0 -0.57699576132E+03 -0.58976454128E+03  0.76424305639E+03  0.11290345848E+04  0.99525482751E+02 0.  0.
         13    1    3    3    0    0 -0.30069665407E+03 -0.35328352098E+03  0.47900555213E+03  0.66683884331E+03  0.00000000000E+00 0. -1.
        -13    1    3    3    0    0 -0.27629910724E+03 -0.23648102029E+03  0.28523750426E+03  0.46219574150E+03  0.00000000000E+00 0.  1.
         22    1    1    2    0    0  0.57699576132E+03  0.58976454128E+03  0.18617295600E+04  0.20363652121E+04  0.00000000000E+00 0. -1.
<mgrwt>
<rscale>  0 0.17674908E+04</rscale>
<asrwt>0</asrwt>
<pdfrwt beam="1">  1        1 0.44549016E+00 0.17674908E+04</pdfrwt>
<pdfrwt beam="2">  1       -1 0.41494401E-01 0.17674908E+04</pdfrwt>
<totfact> 0.38444569E+00</totfact>
</mgrwt>
</event>
<event>
 6    1  0.9364335E-007  0.2141785E+04  0.7818608E-02  0.8543057E-01
          1   -1    0    0  501    0  0.00000000000E+00  0.00000000000E+00  0.68105112240E+03  0.68105112240E+03  0.00000000000E+00 0. -1.
         -1   -1    0    0    0  501 -0.00000000000E+00 -0.00000000000E+00 -0.16838838354E+04  0.16838838354E+04  0.00000000000E+00 0.  1.
         23    2    1    2    0    0 -0.43855293580E+03 -0.96996221092E+03 -0.60994992696E+03  0.12302489873E+04  0.91204656132E+02 0.  0.
         11    1    3    3    0    0 -0.12388316586E+03 -0.29301750580E+03 -0.23037495939E+03  0.39278355286E+03  0.00000000000E+00 0.  1.
        -11    1    3    3    0    0 -0.31466976994E+03 -0.67694470512E+03 -0.37957496757E+03  0.83746543446E+03  0.00000000000E+00 0. -1.
         22    1    1    2    0    0  0.43855293580E+03  0.96996221092E+03 -0.39288278608E+03  0.11346859705E+04  0.00000000000E+00 0. -1.
<mgrwt>
<rscale>  0 0.21417852E+04</rscale>
<asrwt>0</asrwt>
<pdfrwt beam="1">  1        1 0.10477710E+00 0.21417852E+04</pdfrwt>
<pdfrwt beam="2">  1       -1 0.25905905E+00 0.21417852E+04</pdfrwt>
<totfact> 0.15837761E+00</totfact>
</mgrwt>
</event>
<event>
 6    1  0.9364335E-007  0.2974932E+04  0.7818608E-02  0.8250926E-01
         -2   -1    0    0    0  501 -0.00000000000E+00  0.00000000000E+00  0.11078779010E+04  0.11078779010E+04  0.00000000000E+00 0.  1.
          2   -1    0    0  501    0  0.00000000000E+00 -0.00000000000E+00 -0.19971105471E+04  0.19971105471E+04  0.00000000000E+00 0. -1.
         23    2    1    2    0    0  0.13345358265E+04  0.11321257178E+02  0.23754741042E+03  0.13583495790E+04  0.87010135172E+02 0.  0.
         11    1    3    3    0    0  0.94456100037E+03 -0.24602984547E+02  0.14506940550E+03  0.95595288727E+03  0.00000000000E+00 0. -1.
        -11    1    3    3    0    0  0.38997482614E+03  0.35924241725E+02  0.92478004916E+02  0.40239669178E+03  0.00000000000E+00 0.  1.
         22    1    1    2    0    0 -0.13345358265E+04 -0.11321257178E+02 -0.11267800565E+04  0.17466388690E+04  0.00000000000E+00 0. -1.
<mgrwt>
<rscale>  0 0.29749317E+04</rscale>
<asrwt>0</asrwt>
<pdfrwt beam="1">  1        2 0.30724778E+00 0.29749317E+04</pdfrwt>
<pdfrwt beam="2">  1       -2 0.17044275E+00 0.29749317E+04</pdfrwt>
<totfact> 0.12172419E+00</totfact>
</mgrwt>
</event>
<event>
 6    1  0.9364335E-007  0.2563482E+04  0.7818608E-02  0.8380712E-01
         -2   -1    0    0    0  501 -0.00000000000E+00  0.00000000000E+00  0.10438927055E+04  0.10438927055E+04  0.00000000000E+00 0.  1.
          2   -1    0    0  501    0  0.00000000000E+00 -0.00000000000E+00 -0.15737830035E+04  0.15737830035E+04  0.00000000000E+00 0. -1.
         23    2    1    2    0    0  0.11333358914E+04  0.10356231761E+03  0.33328300950E+03  0.11893047644E+04  0.90514429407E+02 0.  0.
         13    1    3    3    0    0  0.27176767777E+03  0.75595018882E+01  0.11602173461E+03  0.29559407919E+03  0.00000000000E+00 0. -1.
        -13    1    3    3    0    0  0.86156821361E+03  0.96002815719E+02  0.21726127489E+03  0.89371068523E+03  0.00000000000E+00 0.  1.
         22    1    1    2    0    0 -0.11333358914E+04 -0.10356231761E+03 -0.86317330753E+03  0.14283709445E+04  0.00000000000E+00 0. -1.
<mgrwt>
<rscale>  0 0.25634825E+04</rscale>
<asrwt>0</asrwt>
<pdfrwt beam="1">  1        2 0.24212046E+00 0.25634825E+04</pdfrwt>
<pdfrwt beam="2">  1       -2 0.16059888E+00 0.25634825E+04</pdfrwt>
<totfact> 0.25523597E+00</totfact>
</mgrwt>
</event>
<event>
 6    1  0.9364335E-007  0.2843685E+04  0.7818608E-02  0.8289833E-01
         -2   -1    0    0    0  501 -0.00000000000E+00  0.00000000000E+00  0.11973777301E+04  0.11973777301E+04  0.00000000000E+00 0.  1.
          2   -1    0    0  501    0  0.00000000000E+00 -0.00000000000E+00 -0.16883861713E+04  0.16883861713E+04  0.00000000000E+00 0. -1.
         23    2    1    2    0    0  0.13847429191E+04 -0.30676831124E+03 -0.32310280560E+03  0.14575440124E+04  0.91757159749E+02 0.  0.
         11    1    3    3    0    0  0.10366592013E+04 -0.23717039061E+03 -0.28200434853E+03  0.11001993212E+04  0.00000000000E+00 0. -1.
        -11    1    3    3    0    0  0.34808371777E+03 -0.69597920622E+02 -0.41098457071E+02  0.35734469117E+03  0.00000000000E+00 0.  1.
         22    1    1    2    0    0 -0.13847429191E+04  0.30676831124E+03 -0.16790563556E+03  0.14282198889E+04  0.00000000000E+00 0.  1.
<mgrwt>
<rscale>  0 0.28436849E+04</rscale>
<asrwt>0</asrwt>
<pdfrwt beam="1">  1        2 0.25975172E+00 0.28436849E+04</pdfrwt>
<pdfrwt beam="2">  1       -2 0.18421196E+00 0.28436849E+04</pdfrwt>
<totfact> 0.14642992E+00</totfact>
</mgrwt>
</event>
<event>
 6    1  0.9364335E-007  0.2042269E+04  0.7818608E-02  0.8587109E-01
          2   -1    0    0  501    0  0.00000000000E+00  0.00000000000E+00  0.65536546193E+03  0.65536546193E+03  0.00000000000E+00 0. -1.
         -2   -1    0    0    0  501 -0.00000000000E+00 -0.00000000000E+00 -0.15910451051E+04  0.15910451051E+04  0.00000000000E+00 0.  1.
         23    2    1    2    0    0 -0.46825279730E+02  0.10179540510E+04 -0.44894401139E+03  0.11171034201E+04  0.89141848474E+02 0.  0.
         13    1    3    3    0    0  0.67430023657E+01  0.68890961837E+03 -0.32043177797E+03  0.75981475024E+03  0.00000000000E+00 0.  1.
        -13    1    3    3    0    0 -0.53568282095E+02  0.32904443264E+03 -0.12851223343E+03  0.35728866990E+03  0.00000000000E+00 0. -1.
         22    1    1    2    0    0  0.46825279730E+02 -0.10179540510E+04 -0.48673563178E+03  0.11293071469E+04  0.00000000000E+00 0. -1.
<mgrwt>
<rscale>  0 0.20422693E+04</rscale>
<asrwt>0</asrwt>
<pdfrwt beam="1">  1        2 0.10082546E+00 0.20422693E+04</pdfrwt>
<pdfrwt beam="2">  1       -2 0.24477617E+00 0.20422693E+04</pdfrwt>
<totfact> 0.28510518E+00</totfact>
</mgrwt>
</event>
<event>
 6    1  0.9364335E-007  0.2381311E+04  0.7818608E-02  0.8446534E-01
         -2   -1    0    0    0  501 -0.00000000000E+00  0.00000000000E+00  0.10304222779E+04  0.10304222779E+04  0.00000000000E+00 0.  1.
          2   -1    0    0  501    0  0.00000000000E+00 -0.00000000000E+00 -0.13758049775E+04  0.13758049775E+04  0.00000000000E+00 0. -1.
         23    2    1    2    0    0 -0.34372046589E+03  0.15369295413E+03  0.96665037729E+03  0.10412378496E+04  0.89431676547E+02 0.  0.
         11    1    3    3    0    0 -0.21567887465E+03  0.10555479494E+03  0.72277019351E+03  0.76161403895E+03  0.00000000000E+00 0. -1.
        -11    1    3    3    0    0 -0.12804159124E+03  0.48138159195E+02  0.24388018378E+03  0.27962381067E+03  0.00000000000E+00 0.  1.
         22    1    1    2    0    0  0.34372046589E+03 -0.15369295413E+03 -0.13120330770E+04  0.13649894058E+04  0.00000000000E+00 0. -1.
<mgrwt>
<rscale>  0 0.23813106E+04</rscale>
<asrwt>0</asrwt>
<pdfrwt beam="1">  1        2 0.21166230E+00 0.23813106E+04</pdfrwt>
<pdfrwt beam="2">  1       -2 0.15852650E+00 0.23813106E+04</pdfrwt>
<totfact> 0.34763643E+00</totfact>
</mgrwt>
</event>
<event>
 6    1  0.9364335E-007  0.2445216E+04  0.7818608E-02  0.8422767E-01
          2   -1    0    0  501    0  0.00000000000E+00  0.00000000000E+00  0.11754483468E+04  0.11754483468E+04  0.00000000000E+00 0. -1.
         -2   -1    0    0    0  501 -0.00000000000E+00 -0.00000000000E+00 -0.12716598015E+04  0.12716598015E+04  0.00000000000E+00 0.  1.
         23    2    1    2    0    0  0.70651472006E+03  0.75668950933E+03  0.59979976596E+03  0.11996412420E+04  0.87391573101E+02 0.  0.
         13    1    3    3    0    0  0.31218688591E+03  0.27234260131E+03  0.24644666387E+03  0.48204470991E+03  0.00000000000E+00 0.  1.
        -13    1    3    3    0    0  0.39432783415E+03  0.48434690802E+03  0.35335310209E+03  0.71759653207E+03  0.00000000000E+00 0. -1.
         22    1    1    2    0    0 -0.70651472006E+03 -0.75668950933E+03 -0.69601122065E+03  0.12474669064E+04  0.00000000000E+00 0.  1.
<mgrwt>
<rscale>  0 0.24452161E+04</rscale>
<asrwt>0</asrwt>
<pdfrwt beam="1">  1        2 0.18083821E+00 0.24452161E+04</pdfrwt>
<pdfrwt beam="2">  1       -2 0.19563997E+00 0.24452161E+04</pdfrwt>
<totfact> 0.24948347E+00</totfact>
</mgrwt>
</event>
<event>
 6    1  0.9364335E-007  0.2234235E+04  0.7818608E-02  0.8504312E-01
          1   -1    0    0  501    0  0.00000000000E+00  0.00000000000E+00  0.14284904910E+04  0.14284904910E+04  0.00000000000E+00 0. -1.
         -1   -1    0    0    0  501 -0.00000000000E+00 -0.00000000000E+00 -0.87361580542E+03  0.87361580542E+03  0.00000000000E+00 0.  1.
         23    2    1    2    0    0 -0.10923571827E+04  0.17227631059E+03  0.12922660000E+03  0.11171591944E+04  0.91770418705E+02 0.  0.
         13    1    3    3    0    0 -0.19816328656E+03  0.62581952124E+02  0.42360004290E+02  0.21208384860E+03  0.00000000000E+00 0. -1.
        -13    1    3    3    0    0 -0.89419389614E+03  0.10969435847E+03  0.86866595714E+02  0.90507534583E+03  0.00000000000E+00 0.  1.
         22    1    1    2    0    0  0.10923571827E+04 -0.17227631059E+03  0.42564808559E+03  0.11849471020E+04  0.00000000000E+00 0. -1.
<mgrwt>
<rscale>  0 0.22342353E+04</rscale>
<asrwt>0</asrwt>
<pdfrwt beam="1">  1        1 0.21976777E+00 0.22342353E+04</pdfrwt>
<pdfrwt beam="2">  1       -1 0.13440243E+00 0.22342353E+04</pdfrwt>
<totfact> 0.31076011E+00</totfact>
</mgrwt>
</event>
<event>
 6    1  0.9364335E-007  0.1639329E+04  0.7818608E-02  0.8796745E-01
          2   -1    0    0  501    0  0.00000000000E+00  0.00000000000E+00  0.74108907555E+03  0.74108907555E+03  0.00000000000E+00 0. -1.
         -2   -1    0    0    0  501 -0.00000000000E+00 -0.00000000000E+00 -0.90657069334E+03  0.90657069334E+03  0.00000000000E+00 0.  1.
         23    2    1    2    0    0 -0.47177623839E+03 -0.64974714905E+03 -0.23518931821E+03  0.84168002951E+03  0.91471743527E+02 0.  0.
         11    1    3    3    0    0 -0.23945616741E+03 -0.25299074710E+03 -0.10548499754E+03  0.36396518918E+03  0.00000000000E+00 0. -1.
        -11    1    3    3    0    0 -0.23232007098E+03 -0.39675640196E+03 -0.12970432066E+03  0.47771484033E+03  0.00000000000E+00 0.  1.
         22    1    1    2    0    0  0.47177623839E+03  0.64974714905E+03  0.69707700416E+02  0.80597973939E+03  0.00000000000E+00 0.  1.
<mgrwt>
<rscale>  0 0.16393287E+04</rscale>
<asrwt>0</asrwt>
<pdfrwt beam="1">  1        2 0.11401370E+00 0.16393287E+04</pdfrwt>
<pdfrwt beam="2">  1       -2 0.13947241E+00 0.16393287E+04</pdfrwt>
<totfact> 0.13201603E+01</totfact>
</mgrwt>
</event>
<event>
 6    1  0.9364335E-007  0.7109596E+03  0.7818608E-02  0.9698671E-01
          1   -1    0    0  501    0  0.00000000000E+00  0.00000000000E+00  0.11301970299E+04  0.11301970299E+04  0.00000000000E+00 0. -1.
         -1   -1    0    0    0  501 -0.00000000000E+00 -0.00000000000E+00 -0.11180873082E+03  0.11180873082E+03  0.00000000000E+00 0.  1.
         23    2    1    2    0    0  0.25275524354E+03  0.16325327968E+03  0.82898056903E+03  0.88646091874E+03  0.89818317518E+02 0.  0.
         11    1    3    3    0    0  0.12732299384E+03  0.92798924711E+02  0.30767610823E+03  0.34566945593E+03  0.00000000000E+00 0.  1.
        -11    1    3    3    0    0  0.12543224971E+03  0.70454354969E+02  0.52130446080E+03  0.54079146281E+03  0.00000000000E+00 0. -1.
         22    1    1    2    0    0 -0.25275524354E+03 -0.16325327968E+03  0.18940773008E+03  0.35554484201E+03  0.00000000000E+00 0.  1.
<mgrwt>
<rscale>  0 0.71095962E+03</rscale>
<asrwt>0</asrwt>
<pdfrwt beam="1">  1        1 0.17387646E+00 0.71095962E+03</pdfrwt>
<pdfrwt beam="2">  1       -1 0.17201344E-01 0.71095962E+03</pdfrwt>
<totfact> 0.32064593E+02</totfact>
</mgrwt>
</event>
<event>
 6    1  0.9364335E-007  0.1309607E+04  0.7818608E-02  0.9021981E-01
          1   -1    0    0  501    0  0.00000000000E+00  0.00000000000E+00  0.64911304043E+03  0.64911304043E+03  0.00000000000E+00 0. -1.
         -1   -1    0    0    0  501 -0.00000000000E+00 -0.00000000000E+00 -0.66054393081E+03  0.66054393081E+03  0.00000000000E+00 0.  1.
         23    2    1    2    0    0  0.27446346698E+03  0.52092461213E+03  0.27288206398E+03  0.65580186324E+03  0.94439487301E+02 0.  0.
         13    1    3    3    0    0  0.19726729450E+03  0.31045853663E+03  0.13081160113E+03  0.39039795521E+03  0.00000000000E+00 0. -1.
        -13    1    3    3    0    0  0.77196172475E+02  0.21046607551E+03  0.14207046285E+03  0.26540390803E+03  0.00000000000E+00 0.  1.
         22    1    1    2    0    0 -0.27446346698E+03 -0.52092461213E+03 -0.28431295437E+03  0.65385510799E+03  0.00000000000E+00 0. -1.
<mgrwt>
<rscale>  0 0.13096071E+04</rscale>
<asrwt>0</asrwt>
<pdfrwt beam="1">  1        1 0.99863545E-01 0.13096071E+04</pdfrwt>
<pdfrwt beam="2">  1       -1 0.10162214E+00 0.13096071E+04</pdfrwt>
<totfact> 0.27534535E+01</totfact>
</mgrwt>
</event>
<event>
 6    1  0.9364335E-007  0.1732307E+04  0.7818608E-02  0.8743150E-01
          1   -1    0    0  501    0  0.00000000000E+00  0.00000000000E+00  0.12169603787E+04  0.12169603787E+04  0.00000000000E+00 0. -1.
         -1   -1    0    0    0  501 -0.00000000000E+00 -0.00000000000E+00 -0.61647225199E+03  0.61647225199E+03  0.00000000000E+00 0.  1.
         23    2    1    2    0    0 -0.86018956935E+03  0.66080824869E+02  0.25742317403E+03  0.90500044019E+03  0.92012692516E+02 0.  0.
         11    1    3    3    0    0 -0.35328733606E+03  0.74613569020E+01  0.14806689685E+03  0.38313368373E+03  0.00000000000E+00 0.  1.
        -11    1    3    3    0    0 -0.50690223330E+03  0.58619467967E+02  0.10935627719E+03  0.52186675647E+03  0.00000000000E+00 0. -1.
         22    1    1    2    0    0  0.86018956935E+03 -0.66080824869E+02  0.34306495272E+03  0.92843219054E+03  0.00000000000E+00 0. -1.
<mgrwt>
<rscale>  0 0.17323075E+04</rscale>
<asrwt>0</asrwt>
<pdfrwt beam="1">  1        1 0.18722467E+00 0.17323075E+04</pdfrwt>
<pdfrwt beam="2">  1       -1 0.94841885E-01 0.17323075E+04</pdfrwt>
<totfact> 0.10593798E+01</totfact>
</mgrwt>
</event>
<event>
 6    1  0.9364335E-007  0.2138649E+04  0.7818608E-02  0.8544407E-01
          2   -1    0    0  501    0  0.00000000000E+00  0.00000000000E+00  0.23441968306E+04  0.23441968306E+04  0.00000000000E+00 0. -1.
         -2   -1    0    0    0  501 -0.00000000000E+00 -0.00000000000E+00 -0.48778092060E+03  0.48778092060E+03  0.00000000000E+00 0.  1.
         23    2    1    2    0    0  0.57008148604E+03  0.16585637153E+03 -0.24463511223E+03  0.64865078651E+03  0.91652975931E+02 0.  0.
         11    1    3    3    0    0  0.44991987384E+03  0.15792892343E+03 -0.22258549252E+03  0.52622593932E+03  0.00000000000E+00 0. -1.
        -11    1    3    3    0    0  0.12016161220E+03  0.79274480996E+01 -0.22049619717E+02  0.12242484719E+03  0.00000000000E+00 0.  1.
         22    1    1    2    0    0 -0.57008148604E+03 -0.16585637153E+03  0.21010510222E+04  0.21833269647E+04  0.00000000000E+00 0. -1.
<mgrwt>
<rscale>  0 0.21386486E+04</rscale>
<asrwt>0</asrwt>
<pdfrwt beam="1">  1        2 0.36064566E+00 0.21386486E+04</pdfrwt>
<pdfrwt beam="2">  1       -2 0.75043220E-01 0.21386486E+04</pdfrwt>
<totfact> 0.62683344E+00</totfact>
</mgrwt>
</event>
<event>
 6    1  0.9364335E-007  0.2080800E+04  0.7818608E-02  0.8569749E-01
          4   -1    0    0  501    0  0.00000000000E+00  0.00000000000E+00  0.17632945522E+04  0.17632945522E+04  0.00000000000E+00 0. -1.
         -4   -1    0    0    0  501 -0.00000000000E+00 -0.00000000000E+00 -0.61386911948E+03  0.61386911948E+03  0.00000000000E+00 0.  1.
         23    2    1    2    0    0 -0.47364142055E+03 -0.26611872102E+03 -0.43528972684E+03  0.70190921164E+03  0.89688495115E+02 0.  0.
         11    1    3    3    0    0 -0.20943366257E+03 -0.72890063301E+02 -0.15018295358E+03  0.26782520399E+03  0.00000000000E+00 0.  1.
        -11    1    3    3    0    0 -0.26420775798E+03 -0.19322865772E+03 -0.28510677326E+03  0.43408400765E+03  0.00000000000E+00 0. -1.
         22    1    1    2    0    0  0.47364142055E+03  0.26611872102E+03  0.15847151595E+04  0.16752544600E+04  0.00000000000E+00 0. -1.
<mgrwt>
<rscale>  0 0.20807999E+04</rscale>
<asrwt>0</asrwt>
<pdfrwt beam="1">  1        4 0.27127608E+00 0.20807999E+04</pdfrwt>
<pdfrwt beam="2">  1       -4 0.94441404E-01 0.20807999E+04</pdfrwt>
<totfact> 0.81360656E-02</totfact>
</mgrwt>
</event>
<event>
 6    1  0.9364335E-007  0.1107225E+04  0.7818608E-02  0.9198179E-01
          2   -1    0    0  501    0  0.00000000000E+00  0.00000000000E+00  0.12767954406E+04  0.12767954406E+04  0.00000000000E+00 0. -1.
         -2   -1    0    0    0  501 -0.00000000000E+00 -0.00000000000E+00 -0.24004369895E+03  0.24004369895E+03  0.00000000000E+00 0.  1.
         23    2    1    2    0    0 -0.19204883469E+03  0.29620354539E+03  0.10991795691E+04  0.11583471190E+04  0.94620440401E+02 0.  0.
         11    1    3    3    0    0 -0.90911132903E+02  0.13441703168E+03  0.35899844194E+03  0.39397037174E+03  0.00000000000E+00 0. -1.
        -11    1    3    3    0    0 -0.10113770179E+03  0.16178651371E+03  0.74018112712E+03  0.76437674722E+03  0.00000000000E+00 0.  1.
         22    1    1    2    0    0  0.19204883469E+03 -0.29620354539E+03 -0.62427827395E+02  0.35849202061E+03  0.00000000000E+00 0.  1.
<mgrwt>
<rscale>  0 0.11072248E+04</rscale>
<asrwt>0</asrwt>
<pdfrwt beam="1">  1        2 0.19643006E+00 0.11072248E+04</pdfrwt>
<pdfrwt beam="2">  1       -2 0.36929801E-01 0.11072248E+04</pdfrwt>
<totfact> 0.11684911E+02</totfact>
</mgrwt>
</event>
<event>
 6    1  0.9364335E-007  0.1061870E+04  0.7818608E-02  0.9243174E-01
         -2   -1    0    0    0  501 -0.00000000000E+00  0.00000000000E+00  0.11839904899E+03  0.11839904899E+03  0.00000000000E+00 0.  1.
          2   -1    0    0  501    0  0.00000000000E+00 -0.00000000000E+00 -0.23808652832E+04  0.23808652832E+04  0.00000000000E+00 0. -1.
         23    2    1    2    0    0 -0.16306892481E+03  0.31569057685E+03 -0.22325365152E+03  0.42932714185E+03  0.90706048687E+02 0.  0.
         13    1    3    3    0    0 -0.74557829030E+02  0.76613744405E+02 -0.35248201630E+02  0.11256540952E+03  0.00000000000E+00 0.  1.
        -13    1    3    3    0    0 -0.88511095778E+02  0.23907683244E+03 -0.18800544988E+03  0.31676173234E+03  0.00000000000E+00 0. -1.
         22    1    1    2    0    0  0.16306892481E+03 -0.31569057685E+03 -0.20392125827E+04  0.20699371903E+04  0.00000000000E+00 0. -1.
<mgrwt>
<rscale>  0 0.10618704E+04</rscale>
<asrwt>0</asrwt>
<pdfrwt beam="1">  1        2 0.36628695E+00 0.10618704E+04</pdfrwt>
<pdfrwt beam="2">  1       -2 0.18215239E-01 0.10618704E+04</pdfrwt>
<totfact> 0.10291493E+02</totfact>
</mgrwt>
</event>
<event>
 6    1  0.1756704E-006  0.4557218E+04  0.7818608E-02  0.7900696E-01
         -2   -1    0    0    0  501 -0.00000000000E+00  0.00000000000E+00  0.14468510394E+04  0.14468510394E+04  0.00000000000E+00 0.  1.
          2   -1    0    0  501    0  0.00000000000E+00 -0.00000000000E+00 -0.35885228827E+04  0.35885228827E+04  0.00000000000E+00 0. -1.
         23    2    1    2    0    0 -0.39766536551E+03 -0.47934178532E+03  0.13495640999E+04  0.14890187931E+04  0.89148282884E+02 0.  0.
         13    1    3    3    0    0 -0.16167157999E+03 -0.21773358790E+03  0.68729380671E+03  0.73886290462E+03  0.00000000000E+00 0. -1.
        -13    1    3    3    0    0 -0.23599378552E+03 -0.26160819742E+03  0.66227029319E+03  0.75015588847E+03  0.00000000000E+00 0.  1.
         22    1    1    2    0    0  0.39766536551E+03  0.47934178532E+03 -0.34912359432E+04  0.35463551290E+04  0.00000000000E+00 0. -1.
<mgrwt>
<rscale>  0 0.45572176E+04</rscale>
<asrwt>0</asrwt>
<pdfrwt beam="1">  1        2 0.55208043E+00 0.45572176E+04</pdfrwt>
<pdfrwt beam="2">  1       -2 0.22259247E+00 0.45572176E+04</pdfrwt>
<totfact> 0.50392399E-02</totfact>
</mgrwt>
</event>
<event>
 6    1  0.9364335E-007  0.1319161E+04  0.7818608E-02  0.9014507E-01
         -2   -1    0    0    0  501 -0.00000000000E+00  0.00000000000E+00  0.24931358891E+03  0.24931358891E+03  0.00000000000E+00 0.  1.
          2   -1    0    0  501    0  0.00000000000E+00 -0.00000000000E+00 -0.17449766449E+04  0.17449766449E+04  0.00000000000E+00 0. -1.
         23    2    1    2    0    0 -0.20310917280E+03  0.31293862999E+03  0.68090875694E+02  0.38664901729E+03  0.75347017218E+02 0.  0.
         11    1    3    3    0    0 -0.43402472023E+02  0.33190856983E+02 -0.91306301109E+01  0.55396533927E+02  0.00000000000E+00 0. -1.
        -11    1    3    3    0    0 -0.15970670078E+03  0.27974777301E+03  0.77221505805E+02  0.33125248336E+03  0.00000000000E+00 0.  1.
         22    1    1    2    0    0  0.20310917280E+03 -0.31293862999E+03 -0.15637539317E+04  0.16076412165E+04  0.00000000000E+00 0. -1.
<mgrwt>
<rscale>  0 0.13191609E+04</rscale>
<asrwt>0</asrwt>
<pdfrwt beam="1">  1        2 0.26845795E+00 0.13191609E+04</pdfrwt>
<pdfrwt beam="2">  1       -2 0.38355936E-01 0.13191609E+04</pdfrwt>
<totfact> 0.58172958E+01</totfact>
</mgrwt>
</event>
<event>
 6    1  0.9364335E-007  0.1162472E+04  0.7818608E-02  0.9146354E-01
         -1   -1    0    0    0  501 -0.00000000000E+00  0.00000000000E+00  0.36988274642E+03  0.36988274642E+03  0.00000000000E+00 0.  1.
          1   -1    0    0  501    0  0.00000000000E+00 -0.00000000000E+00 -0.91335822402E+03  0.91335822402E+03  0.00000000000E+00 0. -1.
         23    2    1    2    0    0 -0.28208395834E+03 -0.50170508039E+03 -0.32773115909E+03  0.66856629371E+03  0.91070462830E+02 0.  0.
         11    1    3    3    0    0 -0.55096517157E+02 -0.10901497435E+03 -0.11430360033E+03  0.16728778761E+03  0.00000000000E+00 0.  1.
        -11    1    3    3    0    0 -0.22698744119E+03 -0.39269010604E+03 -0.21342755876E+03  0.50127850610E+03  0.00000000000E+00 0. -1.
         22    1    1    2    0    0  0.28208395834E+03  0.50170508039E+03 -0.21574431852E+03  0.61467467673E+03  0.00000000000E+00 0.  1.
<mgrwt>
<rscale>  0 0.11624723E+04</rscale>
<asrwt>0</asrwt>
<pdfrwt beam="1">  1        1 0.14051665E+00 0.11624723E+04</pdfrwt>
<pdfrwt beam="2">  1       -1 0.56905038E-01 0.11624723E+04</pdfrwt>
<totfact> 0.55045797E+01</totfact>
</mgrwt>
</event>
<event>
 6    1  0.9364335E-007  0.3545891E+04  0.7818608E-02  0.8103000E-01
          2   -1    0    0  501    0  0.00000000000E+00  0.00000000000E+00  0.15110822771E+04  0.15110822771E+04  0.00000000000E+00 0. -1.
         -2   -1    0    0    0  501 -0.00000000000E+00 -0.00000000000E+00 -0.20801884743E+04  0.20801884743E+04  0.00000000000E+00 0.  1.
         23    2    1    2    0    0  0.15894180605E+04  0.27532655540E+03 -0.10270648597E+04  0.19144342597E+04  0.90232064721E+02 0.  0.
         11    1    3    3    0    0  0.34471570692E+03  0.48541985096E+02 -0.26448138019E+03  0.43719062591E+03  0.00000000000E+00 0.  1.
        -11    1    3    3    0    0  0.12447023536E+04  0.22678457030E+03 -0.76258347951E+03  0.14772436338E+04  0.00000000000E+00 0. -1.
         22    1    1    2    0    0 -0.15894180605E+04 -0.27532655540E+03  0.45795866251E+03  0.16768364917E+04  0.00000000000E+00 0. -1.
<mgrwt>
<rscale>  0 0.35458911E+04</rscale>
<asrwt>0</asrwt>
<pdfrwt beam="1">  1        2 0.23247420E+00 0.35458911E+04</pdfrwt>
<pdfrwt beam="2">  1       -2 0.32002900E+00 0.35458911E+04</pdfrwt>
<totfact> 0.24510902E-01</totfact>
</mgrwt>
</event>
<event>
 6    1  0.9364335E-007  0.2212231E+04  0.7818608E-02  0.8513354E-01
          2   -1    0    0  501    0  0.00000000000E+00  0.00000000000E+00  0.26159081713E+04  0.26159081713E+04  0.00000000000E+00 0. -1.
         -2   -1    0    0    0  501 -0.00000000000E+00 -0.00000000000E+00 -0.46771200396E+03  0.46771200396E+03  0.00000000000E+00 0.  1.
         23    2    1    2    0    0 -0.80271615571E+03  0.73812473607E+03  0.83377562453E+03  0.13757317960E+04  0.90966091543E+02 0.  0.
         13    1    3    3    0    0 -0.49587315971E+03  0.43134922763E+03  0.55285493212E+03  0.85883695931E+03  0.00000000000E+00 0. -1.
        -13    1    3    3    0    0 -0.30684299600E+03  0.30677550843E+03  0.28092069242E+03  0.51689483669E+03  0.00000000000E+00 0.  1.
         22    1    1    2    0    0  0.80271615571E+03 -0.73812473607E+03  0.13144205428E+04  0.17078883793E+04  0.00000000000E+00 0.  1.
<mgrwt>
<rscale>  0 0.22122311E+04</rscale>
<asrwt>0</asrwt>
<pdfrwt beam="1">  1        2 0.40244740E+00 0.22122311E+04</pdfrwt>
<pdfrwt beam="2">  1       -2 0.71955695E-01 0.22122311E+04</pdfrwt>
<totfact> 0.47602066E+00</totfact>
</mgrwt>
</event>
<event>
 6    1  0.9364335E-007  0.1463272E+04  0.7818608E-02  0.8909251E-01
          2   -1    0    0  501    0  0.00000000000E+00  0.00000000000E+00  0.10381408222E+04  0.10381408222E+04  0.00000000000E+00 0. -1.
         -2   -1    0    0    0  501 -0.00000000000E+00 -0.00000000000E+00 -0.51562503403E+03  0.51562503403E+03  0.00000000000E+00 0.  1.
         23    2    1    2    0    0  0.37090998898E+03 -0.21467743038E+03  0.88805234403E+03  0.99049186189E+03  0.93683209265E+02 0.  0.
         11    1    3    3    0    0  0.67287940250E+02 -0.14687549579E+01  0.15151923647E+03  0.16579476217E+03  0.00000000000E+00 0. -1.
        -11    1    3    3    0    0  0.30362204873E+03 -0.21320867542E+03  0.73653310756E+03  0.82469709972E+03  0.00000000000E+00 0.  1.
         22    1    1    2    0    0 -0.37090998898E+03  0.21467743038E+03 -0.36553655585E+03  0.56327399434E+03  0.00000000000E+00 0.  1.
<mgrwt>
<rscale>  0 0.14632722E+04</rscale>
<asrwt>0</asrwt>
<pdfrwt beam="1">  1        2 0.15971397E+00 0.14632722E+04</pdfrwt>
<pdfrwt beam="2">  1       -2 0.79326929E-01 0.14632722E+04</pdfrwt>
<totfact> 0.32513336E+01</totfact>
</mgrwt>
</event>
<event>
 6    1  0.9364335E-007  0.7541373E+03  0.7818608E-02  0.9628882E-01
         -1   -1    0    0    0  501 -0.00000000000E+00  0.00000000000E+00  0.57279506907E+02  0.57279506907E+02  0.00000000000E+00 0.  1.
          1   -1    0    0  501    0  0.00000000000E+00 -0.00000000000E+00 -0.24822272817E+04  0.24822272817E+04  0.00000000000E+00 0. -1.
         23    2    1    2    0    0  0.24770394056E+03  0.11415326631E+03 -0.20795959401E+04  0.20994430431E+04  0.92485711096E+02 0.  0.
         11    1    3    3    0    0  0.13149665325E+03  0.59533799893E+02 -0.14308209727E+04  0.14380835508E+04  0.00000000000E+00 0. -1.
        -11    1    3    3    0    0  0.11620728732E+03  0.54619466421E+02 -0.64877496739E+03  0.66135949230E+03  0.00000000000E+00 0.  1.
         22    1    1    2    0    0 -0.24770394056E+03 -0.11415326631E+03 -0.34535183467E+03  0.44006374549E+03  0.00000000000E+00 0.  1.
<mgrwt>
<rscale>  0 0.75413727E+03</rscale>
<asrwt>0</asrwt>
<pdfrwt beam="1">  1        1 0.38188106E+00 0.75413727E+03</pdfrwt>
<pdfrwt beam="2">  1       -1 0.88122333E-02 0.75413727E+03</pdfrwt>
<totfact> 0.11184674E+02</totfact>
</mgrwt>
</event>
<event>
 6    1  0.9364335E-007  0.1684576E+04  0.7818608E-02  0.8770210E-01
         -2   -1    0    0    0  501 -0.00000000000E+00  0.00000000000E+00  0.97546140174E+03  0.97546140174E+03  0.00000000000E+00 0.  1.
          2   -1    0    0  501    0  0.00000000000E+00 -0.00000000000E+00 -0.72729595397E+03  0.72729595397E+03  0.00000000000E+00 0. -1.
         23    2    1    2    0    0  0.43904706220E+03  0.48707920246E+03 -0.40598683788E+03  0.77651565662E+03  0.90237354533E+02 0.  0.
         11    1    3    3    0    0  0.18960428345E+03  0.17588921915E+03 -0.11621382664E+03  0.28353563306E+03  0.00000000000E+00 0.  1.
        -11    1    3    3    0    0  0.24944277875E+03  0.31118998331E+03 -0.28977301124E+03  0.49298002356E+03  0.00000000000E+00 0. -1.
         22    1    1    2    0    0 -0.43904706220E+03 -0.48707920246E+03  0.65415228565E+03  0.92624169908E+03  0.00000000000E+00 0.  1.
<mgrwt>
<rscale>  0 0.16845761E+04</rscale>
<asrwt>0</asrwt>
<pdfrwt beam="1">  1        2 0.11189168E+00 0.16845761E+04</pdfrwt>
<pdfrwt beam="2">  1       -2 0.15007099E+00 0.16845761E+04</pdfrwt>
<totfact> 0.11118320E+01</totfact>
</mgrwt>
</event>
<event>
 6    1  0.9364335E-007  0.4325717E+04  0.7818608E-02  0.7941880E-01
          1   -1    0    0  501    0  0.00000000000E+00  0.00000000000E+00  0.33744086340E+04  0.33744086340E+04  0.00000000000E+00 0. -1.
         -1   -1    0    0    0  501 -0.00000000000E+00 -0.00000000000E+00 -0.13863038970E+04  0.13863038970E+04  0.00000000000E+00 0.  1.
         23    2    1    2    0    0 -0.17588658530E+04 -0.91821311251E+03  0.49615209313E+02  0.19868224723E+04  0.90980541151E+02 0.  0.
         11    1    3    3    0    0 -0.66749550958E+03 -0.30854472564E+03  0.44424502287E+02  0.73669779383E+03  0.00000000000E+00 0.  1.
        -11    1    3    3    0    0 -0.10913703434E+04 -0.60966838687E+03  0.51907070265E+01  0.12501246785E+04  0.00000000000E+00 0. -1.
         22    1    1    2    0    0  0.17588658530E+04  0.91821311251E+03  0.19384895276E+04  0.27738900587E+04  0.00000000000E+00 0.  1.
<mgrwt>
<rscale>  0 0.43257165E+04</rscale>
<asrwt>0</asrwt>
<pdfrwt beam="1">  1        1 0.51913979E+00 0.43257165E+04</pdfrwt>
<pdfrwt beam="2">  1       -1 0.21327752E+00 0.43257165E+04</pdfrwt>
<totfact> 0.29119792E-02</totfact>
</mgrwt>
</event>
<event>
 6    1  0.9364335E-007  0.4529761E+04  0.7818608E-02  0.7905447E-01
          1   -1    0    0  501    0  0.00000000000E+00  0.00000000000E+00  0.23213290158E+04  0.23213290158E+04  0.00000000000E+00 0. -1.
         -1   -1    0    0    0  501 -0.00000000000E+00 -0.00000000000E+00 -0.22098043937E+04  0.22098043937E+04  0.00000000000E+00 0.  1.
         23    2    1    2    0    0  0.30029219035E+03  0.87854027354E+03 -0.20096672802E+04  0.22156499830E+04  0.91289968423E+02 0.  0.
         11    1    3    3    0    0  0.24853652032E+03  0.62523831878E+03 -0.15077095202E+04  0.16510243349E+04  0.00000000000E+00 0. -1.
        -11    1    3    3    0    0  0.51755670031E+02  0.25330195476E+03 -0.50195775999E+03  0.56462564809E+03  0.00000000000E+00 0.  1.
         22    1    1    2    0    0 -0.30029219035E+03 -0.87854027354E+03  0.21211919023E+04  0.23154834265E+04  0.00000000000E+00 0. -1.
<mgrwt>
<rscale>  0 0.45297607E+04</rscale>
<asrwt>0</asrwt>
<pdfrwt beam="1">  1        1 0.35712754E+00 0.45297607E+04</pdfrwt>
<pdfrwt beam="2">  1       -1 0.33996991E+00 0.45297607E+04</pdfrwt>
<totfact> 0.24418647E-02</totfact>
</mgrwt>
</event>
<event>
 6    1  0.9364335E-007  0.3053327E+04  0.7818608E-02  0.8228665E-01
         -1   -1    0    0    0  501 -0.00000000000E+00  0.00000000000E+00  0.17098507888E+04  0.17098507888E+04  0.00000000000E+00 0.  1.
          1   -1    0    0  501    0  0.00000000000E+00 -0.00000000000E+00 -0.13631022231E+04  0.13631022231E+04  0.00000000000E+00 0. -1.
         23    2    1    2    0    0 -0.11032176698E+04 -0.64643698108E+03 -0.66328054178E+03  0.14434964168E+04  0.93652713041E+02 0.  0.
         11    1    3    3    0    0 -0.78316624467E+03 -0.41026006350E+03 -0.46946687654E+03  0.10010303865E+04  0.00000000000E+00 0. -1.
        -11    1    3    3    0    0 -0.32005142514E+03 -0.23617691758E+03 -0.19381366524E+03  0.44246603029E+03  0.00000000000E+00 0.  1.
         22    1    1    2    0    0  0.11032176698E+04  0.64643698108E+03  0.10100291074E+04  0.16294565951E+04  0.00000000000E+00 0.  1.
<mgrwt>
<rscale>  0 0.30533270E+04</rscale>
<asrwt>0</asrwt>
<pdfrwt beam="1">  1        1 0.20970803E+00 0.30533270E+04</pdfrwt>
<pdfrwt beam="2">  1       -1 0.26305397E+00 0.30533270E+04</pdfrwt>
<totfact> 0.39612145E-01</totfact>
</mgrwt>
</event>
<event>
 6    1  0.9364335E-007  0.2147329E+04  0.7818608E-02  0.8540676E-01
          2   -1    0    0  501    0  0.00000000000E+00  0.00000000000E+00  0.14748659378E+04  0.14748659378E+04  0.00000000000E+00 0. -1.
         -2   -1    0    0    0  501 -0.00000000000E+00 -0.00000000000E+00 -0.78160036734E+03  0.78160036734E+03  0.00000000000E+00 0.  1.
         23    2    1    2    0    0 -0.76046943182E+03  0.58101605673E+03  0.85411319493E+03  0.12860203390E+04  0.91899660879E+02 0.  0.
         11    1    3    3    0    0 -0.23689981346E+03  0.14875331479E+03  0.20607781834E+03  0.34744371845E+03  0.00000000000E+00 0. -1.
        -11    1    3    3    0    0 -0.52356961835E+03  0.43226274194E+03  0.64803537659E+03  0.93857662055E+03  0.00000000000E+00 0.  1.
         22    1    1    2    0    0  0.76046943182E+03 -0.58101605673E+03 -0.16084762447E+03  0.97044596614E+03  0.00000000000E+00 0.  1.
<mgrwt>
<rscale>  0 0.21473293E+04</rscale>
<asrwt>0</asrwt>
<pdfrwt beam="1">  1        2 0.22690245E+00 0.21473293E+04</pdfrwt>
<pdfrwt beam="2">  1       -2 0.12024621E+00 0.21473293E+04</pdfrwt>
<totfact> 0.63623310E+00</totfact>
</mgrwt>
</event>
<event>
 6    1  0.9364335E-007  0.1180225E+04  0.7818608E-02  0.9130344E-01
          2   -1    0    0  501    0  0.00000000000E+00  0.00000000000E+00  0.52644974567E+03  0.52644974567E+03  0.00000000000E+00 0. -1.
         -2   -1    0    0    0  501 -0.00000000000E+00 -0.00000000000E+00 -0.66147419480E+03  0.66147419480E+03  0.00000000000E+00 0.  1.
         23    2    1    2    0    0  0.21900574627E+03 -0.25883504408E+03  0.41385898474E+03  0.54276340159E+03  0.91398872594E+02 0.  0.
         13    1    3    3    0    0  0.96277029682E+01 -0.54510283355E+02  0.41279188443E+02  0.69050959837E+02  0.00000000000E+00 0.  1.
        -13    1    3    3    0    0  0.20937804330E+03 -0.20432476072E+03  0.37257979630E+03  0.47371244175E+03  0.00000000000E+00 0. -1.
         22    1    1    2    0    0 -0.21900574627E+03  0.25883504408E+03 -0.54888343387E+03  0.64516053887E+03  0.00000000000E+00 0.  1.
<mgrwt>
<rscale>  0 0.11802253E+04</rscale>
<asrwt>0</asrwt>
<pdfrwt beam="1">  1        2 0.80992269E-01 0.11802253E+04</pdfrwt>
<pdfrwt beam="2">  1       -2 0.10176526E+00 0.11802253E+04</pdfrwt>
<totfact> 0.45389400E+01</totfact>
</mgrwt>
</event>
<event>
 6    1  0.9364335E-007  0.4199966E+04  0.7818608E-02  0.7965379E-01
         -2   -1    0    0    0  501 -0.00000000000E+00  0.00000000000E+00  0.23667961719E+04  0.23667961719E+04  0.00000000000E+00 0.  1.
          2   -1    0    0  501    0  0.00000000000E+00 -0.00000000000E+00 -0.18632484010E+04  0.18632484010E+04  0.00000000000E+00 0. -1.
         23    2    1    2    0    0 -0.10306666220E+04 -0.10321167024E+03 -0.15868780196E+04  0.18970622926E+04  0.87961116048E+02 0.  0.
         13    1    3    3    0    0 -0.71166119018E+03 -0.75957894862E+02 -0.10205325559E+04  0.12464822297E+04  0.00000000000E+00 0. -1.
        -13    1    3    3    0    0 -0.31900543187E+03 -0.27253775382E+02 -0.56634546376E+03  0.65058006283E+03  0.00000000000E+00 0.  1.
         22    1    1    2    0    0  0.10306666220E+04  0.10321167024E+03  0.20904257906E+04  0.23329822804E+04  0.00000000000E+00 0.  1.
<mgrwt>
<rscale>  0 0.41999663E+04</rscale>
<asrwt>0</asrwt>
<pdfrwt beam="1">  1        2 0.28665360E+00 0.41999663E+04</pdfrwt>
<pdfrwt beam="2">  1       -2 0.36412249E+00 0.41999663E+04</pdfrwt>
<totfact> 0.78190045E-02</totfact>
</mgrwt>
</event>
<event>
 6    1  0.9364335E-007  0.2810808E+04  0.7818608E-02  0.8299921E-01
         -3   -1    0    0    0  501 -0.00000000000E+00  0.00000000000E+00  0.12466212884E+04  0.12466212884E+04  0.00000000000E+00 0.  1.
          3   -1    0    0  501    0  0.00000000000E+00 -0.00000000000E+00 -0.15844109924E+04  0.15844109924E+04  0.00000000000E+00 0. -1.
         23    2    1    2    0    0  0.56969093439E+03 -0.60000691677E+03  0.97364790835E+03  0.12804115432E+04  0.83110827612E+02 0.  0.
         13    1    3    3    0    0  0.29467135713E+03 -0.26517734787E+03  0.50761763013E+03  0.64406978888E+03  0.00000000000E+00 0. -1.
        -13    1    3    3    0    0  0.27501957726E+03 -0.33482956890E+03  0.46603027822E+03  0.63634175433E+03  0.00000000000E+00 0.  1.
         22    1    1    2    0    0 -0.56969093439E+03  0.60000691677E+03 -0.13114376123E+04  0.15506207376E+04  0.00000000000E+00 0. -1.
<mgrwt>
<rscale>  0 0.28108080E+04</rscale>
<asrwt>0</asrwt>
<pdfrwt beam="1">  1        3 0.24375553E+00 0.28108080E+04</pdfrwt>
<pdfrwt beam="2">  1       -3 0.19178789E+00 0.28108080E+04</pdfrwt>
<totfact> 0.29970242E-02</totfact>
</mgrwt>
</event>
<event>
 6    1  0.9989029E-007  0.2969029E+04  0.7818608E-02  0.8252631E-01
         -2   -1    0    0    0  501 -0.00000000000E+00  0.00000000000E+00  0.20315098441E+04  0.20315098441E+04  0.00000000000E+00 0.  1.
          2   -1    0    0  501    0  0.00000000000E+00 -0.00000000000E+00 -0.10848004926E+04  0.10848004926E+04  0.00000000000E+00 0. -1.
         23    2    1    2    0    0 -0.30548145280E+03  0.11157943516E+04  0.14471647805E+04  0.18558455060E+04  0.10752063584E+03 0.  0.
         11    1    3    3    0    0 -0.88807274988E+02  0.28522316944E+03  0.44988369538E+03  0.54003178411E+03  0.00000000000E+00 0. -1.
        -11    1    3    3    0    0 -0.21667417781E+03  0.83057118221E+03  0.99728108508E+03  0.13158137219E+04  0.00000000000E+00 0.  1.
         22    1    1    2    0    0  0.30548145280E+03 -0.11157943516E+04 -0.50045542888E+03  0.12604648307E+04  0.00000000000E+00 0. -1.
<mgrwt>
<rscale>  0 0.29690287E+04</rscale>
<asrwt>0</asrwt>
<pdfrwt beam="1">  1        2 0.16689238E+00 0.29690287E+04</pdfrwt>
<pdfrwt beam="2">  1       -2 0.31253997E+00 0.29690287E+04</pdfrwt>
<totfact> 0.50857102E-01</totfact>
</mgrwt>
</event>
<event>
 6    1  0.9364335E-007  0.3069001E+04  0.7818608E-02  0.8224297E-01
         -2   -1    0    0    0  501 -0.00000000000E+00  0.00000000000E+00  0.10420422577E+04  0.10420422577E+04  0.00000000000E+00 0.  1.
          2   -1    0    0  501    0  0.00000000000E+00 -0.00000000000E+00 -0.22596899516E+04  0.22596899516E+04  0.00000000000E+00 0. -1.
         23    2    1    2    0    0  0.88862187910E+03 -0.51553041598E+02 -0.19523151483E+04  0.21475906110E+04  0.91128668480E+02 0.  0.
         11    1    3    3    0    0  0.23433696984E+03 -0.19094572528E+02 -0.42465743817E+03  0.48539917380E+03  0.00000000000E+00 0. -1.
        -11    1    3    3    0    0  0.65428490926E+03 -0.32458469070E+02 -0.15276577101E+04  0.16621914372E+04  0.00000000000E+00 0.  1.
         22    1    1    2    0    0 -0.88862187910E+03  0.51553041598E+02  0.73466745440E+03  0.11541415982E+04  0.00000000000E+00 0.  1.
<mgrwt>
<rscale>  0 0.30690014E+04</rscale>
<asrwt>0</asrwt>
<pdfrwt beam="1">  1        2 0.34764460E+00 0.30690014E+04</pdfrwt>
<pdfrwt beam="2">  1       -2 0.16031420E+00 0.30690014E+04</pdfrwt>
<totfact> 0.10190183E+00</totfact>
</mgrwt>
</event>
<event>
 6    1  0.1150113E-006  0.3185752E+04  0.7818608E-02  0.8192590E-01
          2   -1    0    0  501    0  0.00000000000E+00  0.00000000000E+00  0.22991828460E+04  0.22991828460E+04  0.00000000000E+00 0. -1.
         -2   -1    0    0    0  501 -0.00000000000E+00 -0.00000000000E+00 -0.11035462654E+04  0.11035462654E+04  0.00000000000E+00 0.  1.
         23    2    1    2    0    0 -0.28791037161E+03  0.86347224065E+03  0.19928623619E+04  0.21927515748E+04  0.90456526130E+02 0.  0.
         11    1    3    3    0    0 -0.77294874812E+02  0.14286782515E+03  0.30851512649E+03  0.34866502034E+03  0.00000000000E+00 0. -1.
        -11    1    3    3    0    0 -0.21061549680E+03  0.72060441550E+03  0.16843472354E+04  0.18440865545E+04  0.00000000000E+00 0.  1.
         22    1    1    2    0    0  0.28791037161E+03 -0.86347224065E+03 -0.79722578132E+03  0.12099775365E+04  0.00000000000E+00 0.  1.
<mgrwt>
<rscale>  0 0.31857524E+04</rscale>
<asrwt>0</asrwt>
<pdfrwt beam="1">  1        2 0.35372044E+00 0.31857524E+04</pdfrwt>
<pdfrwt beam="2">  1       -2 0.16977635E+00 0.31857524E+04</pdfrwt>
<totfact> 0.81843131E-01</totfact>
</mgrwt>
</event>
<event>
 6    1  0.9364335E-007  0.2920961E+04  0.7818608E-02  0.8266668E-01
          2   -1    0    0  501    0  0.00000000000E+00  0.00000000000E+00  0.38360990364E+04  0.38360990364E+04  0.00000000000E+00 0. -1.
         -2   -1    0    0    0  501 -0.00000000000E+00 -0.00000000000E+00 -0.55603455913E+03  0.55603455913E+03  0.00000000000E+00 0.  1.
         23    2    1    2    0    0  0.10263339583E+04  0.65201486127E+03  0.42887482804E+03  0.12924937472E+04  0.90120448807E+02 0.  0.
         11    1    3    3    0    0  0.25540183800E+03  0.20743999905E+03  0.12852628017E+03  0.35324277311E+03  0.00000000000E+00 0.  1.
        -11    1    3    3    0    0  0.77093212029E+03  0.44457486222E+03  0.30034854787E+03  0.93925097414E+03  0.00000000000E+00 0. -1.
         22    1    1    2    0    0 -0.10263339583E+04 -0.65201486127E+03  0.28511896493E+04  0.30996398483E+04  0.00000000000E+00 0. -1.
<mgrwt>
<rscale>  0 0.29209612E+04</rscale>
<asrwt>0</asrwt>
<pdfrwt beam="1">  1        2 0.59016907E+00 0.29209612E+04</pdfrwt>
<pdfrwt beam="2">  1       -2 0.85543781E-01 0.29209612E+04</pdfrwt>
<totfact> 0.47137598E-01</totfact>
</mgrwt>
</event>
<event>
 6    1  0.9364335E-007  0.2279105E+04  0.7818608E-02  0.8486206E-01
          2   -1    0    0  501    0  0.00000000000E+00  0.00000000000E+00  0.17038119363E+04  0.17038119363E+04  0.00000000000E+00 0. -1.
         -2   -1    0    0    0  501 -0.00000000000E+00 -0.00000000000E+00 -0.76216144802E+03  0.76216144802E+03  0.00000000000E+00 0.  1.
         23    2    1    2    0    0  0.35596928045E+03  0.18415423316E+03 -0.68057624929E+03  0.79497173911E+03  0.90383210136E+02 0.  0.
         13    1    3    3    0    0  0.15051598964E+03  0.28816686746E+02 -0.25862876506E+03  0.30062319053E+03  0.00000000000E+00 0. -1.
        -13    1    3    3    0    0  0.20545329082E+03  0.15533754641E+03 -0.42194748423E+03  0.49434854858E+03  0.00000000000E+00 0.  1.
         22    1    1    2    0    0 -0.35596928045E+03 -0.18415423316E+03  0.16222267376E+04  0.16710016452E+04  0.00000000000E+00 0. -1.
<mgrwt>
<rscale>  0 0.22791049E+04</rscale>
<asrwt>0</asrwt>
<pdfrwt beam="1">  1        2 0.26212491E+00 0.22791049E+04</pdfrwt>
<pdfrwt beam="2">  1       -2 0.11725561E+00 0.22791049E+04</pdfrwt>
<totfact> 0.49837439E+00</totfact>
</mgrwt>
</event>
<event>
 6    1  0.9364335E-007  0.3404090E+04  0.7818608E-02  0.8136903E-01
          2   -1    0    0  501    0  0.00000000000E+00  0.00000000000E+00  0.43674862050E+04  0.43674862050E+04  0.00000000000E+00 0. -1.
         -2   -1    0    0    0  501 -0.00000000000E+00 -0.00000000000E+00 -0.66330100757E+03  0.66330100757E+03  0.00000000000E+00 0.  1.
         23    2    1    2    0    0 -0.10264983900E+04 -0.10643450761E+04  0.61145671453E+03  0.16027412889E+04  0.91492839414E+02 0.  0.
         13    1    3    3    0    0 -0.65475097132E+03 -0.72544406373E+03  0.43473204170E+03  0.10695605977E+04  0.00000000000E+00 0.  1.
        -13    1    3    3    0    0 -0.37174741869E+03 -0.33890101241E+03  0.17672467284E+03  0.53318069124E+03  0.00000000000E+00 0. -1.
         22    1    1    2    0    0  0.10264983900E+04  0.10643450761E+04  0.30927284829E+04  0.34280459237E+04  0.00000000000E+00 0.  1.
<mgrwt>
<rscale>  0 0.34040905E+04</rscale>
<asrwt>0</asrwt>
<pdfrwt beam="1">  1        2 0.67192093E+00 0.34040905E+04</pdfrwt>
<pdfrwt beam="2">  1       -2 0.10204631E+00 0.34040905E+04</pdfrwt>
<totfact> 0.10688530E-01</totfact>
</mgrwt>
</event>
<event>
 6    1  0.9364335E-007  0.2209884E+04  0.7818608E-02  0.8514326E-01
         -2   -1    0    0    0  501 -0.00000000000E+00  0.00000000000E+00  0.22886610630E+04  0.22886610630E+04  0.00000000000E+00 0.  1.
          2   -1    0    0  501    0  0.00000000000E+00 -0.00000000000E+00 -0.53345451329E+03  0.53345451329E+03  0.00000000000E+00 0. -1.
         23    2    1    2    0    0 -0.92686254054E+03 -0.52541936392E+03  0.51437697977E+03  0.11866346994E+04  0.91534449658E+02 0.  0.
         13    1    3    3    0    0 -0.53711277735E+03 -0.31019592558E+03  0.24933415112E+03  0.66849021440E+03  0.00000000000E+00 0.  1.
        -13    1    3    3    0    0 -0.38974976319E+03 -0.21522343833E+03  0.26504282865E+03  0.51814448500E+03  0.00000000000E+00 0. -1.
         22    1    1    2    0    0  0.92686254054E+03  0.52541936392E+03  0.12408295699E+04  0.16354808769E+04  0.00000000000E+00 0.  1.
<mgrwt>
<rscale>  0 0.22098838E+04</rscale>
<asrwt>0</asrwt>
<pdfrwt beam="1">  1        2 0.82069927E-01 0.22098838E+04</pdfrwt>
<pdfrwt beam="2">  1       -2 0.35210170E+00 0.22098838E+04</pdfrwt>
<totfact> 0.78773615E-01</totfact>
</mgrwt>
</event>
<event>
 6    1  0.9364335E-007  0.2128076E+04  0.7818608E-02  0.8548976E-01
         -1   -1    0    0    0  501 -0.00000000000E+00  0.00000000000E+00  0.42687050738E+03  0.42687050738E+03  0.00000000000E+00 0.  1.
          1   -1    0    0  501    0  0.00000000000E+00 -0.00000000000E+00 -0.26522720863E+04  0.26522720863E+04  0.00000000000E+00 0. -1.
         23    2    1    2    0    0 -0.33235983001E+03  0.27246136360E+03 -0.25200220341E+04  0.25580864893E+04  0.92720996685E+02 0.  0.
         13    1    3    3    0    0 -0.19949737770E+03  0.20125732749E+03 -0.18282491752E+04  0.18500807448E+04  0.00000000000E+00 0. -1.
        -13    1    3    3    0    0 -0.13286245231E+03  0.71204036117E+02 -0.69177285889E+03  0.70800574453E+03  0.00000000000E+00 0.  1.
         22    1    1    2    0    0  0.33235983001E+03 -0.27246136360E+03  0.29462045519E+03  0.52105610435E+03  0.00000000000E+00 0.  1.
<mgrwt>
<rscale>  0 0.21280759E+04</rscale>
<asrwt>0</asrwt>
<pdfrwt beam="1">  1        1 0.40804185E+00 0.21280759E+04</pdfrwt>
<pdfrwt beam="2">  1       -1 0.65672387E-01 0.21280759E+04</pdfrwt>
<totfact> 0.22874428E+00</totfact>
</mgrwt>
</event>
<event>
 6    1  0.9364335E-007  0.1998420E+04  0.7818608E-02  0.8607360E-01
          2   -1    0    0  501    0  0.00000000000E+00  0.00000000000E+00  0.14871594303E+04  0.14871594303E+04  0.00000000000E+00 0. -1.
         -2   -1    0    0    0  501 -0.00000000000E+00 -0.00000000000E+00 -0.67136095373E+03  0.67136095373E+03  0.00000000000E+00 0.  1.
         23    2    1    2    0    0 -0.11310328040E+02  0.98049586761E+03  0.21297480226E+03  0.10074789198E+04  0.90307461513E+02 0.  0.
         13    1    3    3    0    0  0.33670728114E+02  0.19570316178E+03  0.47096288769E+02  0.20408700565E+03  0.00000000000E+00 0.  1.
        -13    1    3    3    0    0 -0.44981056155E+02  0.78479270583E+03  0.16587851350E+03  0.80339191419E+03  0.00000000000E+00 0. -1.
         22    1    1    2    0    0  0.11310328040E+02 -0.98049586761E+03  0.60282367426E+03  0.11510414641E+04  0.00000000000E+00 0.  1.
<mgrwt>
<rscale>  0 0.19984201E+04</rscale>
<asrwt>0</asrwt>
<pdfrwt beam="1">  1        2 0.22879376E+00 0.19984201E+04</pdfrwt>
<pdfrwt beam="2">  1       -2 0.10328630E+00 0.19984201E+04</pdfrwt>
<totfact> 0.91725228E+00</totfact>
</mgrwt>
</event>
<event>
 6    1  0.9364335E-007  0.9189603E+03  0.7818608E-02  0.9402186E-01
          1   -1    0    0  501    0  0.00000000000E+00  0.00000000000E+00  0.15363273775E+04  0.15363273775E+04  0.00000000000E+00 0. -1.
         -1   -1    0    0    0  501 -0.00000000000E+00 -0.00000000000E+00 -0.13741994714E+03  0.13741994714E+03  0.00000000000E+00 0.  1.
         23    2    1    2    0    0  0.20454960338E+03 -0.54249934863E+02  0.14398600544E+04  0.14581998517E+04  0.91467127994E+02 0.  0.
         11    1    3    3    0    0  0.11477223345E+03 -0.27150858016E+01  0.51935812086E+03  0.53189556772E+03  0.00000000000E+00 0.  1.
        -11    1    3    3    0    0  0.89777369926E+02 -0.51534849061E+02  0.92050193357E+03  0.92630428398E+03  0.00000000000E+00 0. -1.
         22    1    1    2    0    0 -0.20454960338E+03  0.54249934863E+02 -0.40952624051E+02  0.21554747294E+03  0.00000000000E+00 0.  1.
<mgrwt>
<rscale>  0 0.91896034E+03</rscale>
<asrwt>0</asrwt>
<pdfrwt beam="1">  1        1 0.23635805E+00 0.91896034E+03</pdfrwt>
<pdfrwt beam="2">  1       -1 0.21141531E-01 0.91896034E+03</pdfrwt>
<totfact> 0.11593811E+02</totfact>
</mgrwt>
</event>
<event>
 6    1  0.9364335E-007  0.3136714E+04  0.7818608E-02  0.8205734E-01
          2   -1    0    0  501    0  0.00000000000E+00  0.00000000000E+00  0.22665907173E+04  0.22665907173E+04  0.00000000000E+00 0. -1.
         -2   -1    0    0    0  501 -0.00000000000E+00 -0.00000000000E+00 -0.10852170962E+04  0.10852170962E+04  0.00000000000E+00 0.  1.
         23    2    1    2    0    0 -0.89794174342E+03  0.48913075421E+03 -0.67758327853E+03  0.12301883792E+04  0.93252773085E+02 0.  0.
         11    1    3    3    0    0 -0.13202988571E+03  0.39126766106E+02 -0.10713446293E+03  0.17447231211E+03  0.00000000000E+00 0.  1.
        -11    1    3    3    0    0 -0.76591185770E+03  0.45000398810E+03 -0.57044881560E+03  0.10557160671E+04  0.00000000000E+00 0. -1.
         22    1    1    2    0    0  0.89794174342E+03 -0.48913075421E+03  0.18589568996E+04  0.21216194343E+04  0.00000000000E+00 0. -1.
<mgrwt>
<rscale>  0 0.31367136E+04</rscale>
<asrwt>0</asrwt>
<pdfrwt beam="1">  1        2 0.34870626E+00 0.31367136E+04</pdfrwt>
<pdfrwt beam="2">  1       -2 0.16695648E+00 0.31367136E+04</pdfrwt>
<totfact> 0.89828668E-01</totfact>
</mgrwt>
</event>
<event>
 6    1  0.9364335E-007  0.1180357E+04  0.7818608E-02  0.9130226E-01
         -1   -1    0    0    0  501 -0.00000000000E+00  0.00000000000E+00  0.12391288722E+03  0.12391288722E+03  0.00000000000E+00 0.  1.
          1   -1    0    0  501    0  0.00000000000E+00 -0.00000000000E+00 -0.28109317479E+04  0.28109317479E+04  0.00000000000E+00 0. -1.
         23    2    1    2    0    0 -0.52180088959E+03  0.16237014985E+03 -0.82096576539E+03  0.99041814168E+03  0.91121202236E+02 0.  0.
         13    1    3    3    0    0 -0.34582499712E+03  0.68848320864E+02 -0.56533262630E+03  0.66628522292E+03  0.00000000000E+00 0. -1.
        -13    1    3    3    0    0 -0.17597589247E+03  0.93521828987E+02 -0.25563313908E+03  0.32413291876E+03  0.00000000000E+00 0.  1.
         22    1    1    2    0    0  0.52180088959E+03 -0.16237014985E+03 -0.18660530953E+04  0.19444264935E+04  0.00000000000E+00 0. -1.
<mgrwt>
<rscale>  0 0.11803570E+04</rscale>
<asrwt>0</asrwt>
<pdfrwt beam="1">  1        1 0.43245095E+00 0.11803570E+04</pdfrwt>
<pdfrwt beam="2">  1       -1 0.19063525E-01 0.11803570E+04</pdfrwt>
<totfact> 0.18177106E+01</totfact>
</mgrwt>
</event>
<event>
 6    1  0.9364335E-007  0.1187641E+04  0.7818608E-02  0.9123744E-01
         -1   -1    0    0    0  501 -0.00000000000E+00  0.00000000000E+00  0.13436960942E+03  0.13436960942E+03  0.00000000000E+00 0.  1.
          1   -1    0    0  501    0  0.00000000000E+00 -0.00000000000E+00 -0.26242735392E+04  0.26242735392E+04  0.00000000000E+00 0. -1.
         23    2    1    2    0    0  0.10505591453E+03 -0.86701044804E+02 -0.25861317626E+04  0.25918690135E+04  0.10561095190E+03 0.  0.
         13    1    3    3    0    0  0.89861005865E+01 -0.67910258940E+02 -0.74715690755E+03  0.75029060888E+03  0.00000000000E+00 0.  1.
        -13    1    3    3    0    0  0.96069813944E+02 -0.18790785863E+02 -0.18389748550E+04  0.18415784046E+04  0.00000000000E+00 0. -1.
         22    1    1    2    0    0 -0.10505591453E+03  0.86701044804E+02  0.96227832809E+02  0.16677413515E+03  0.00000000000E+00 0.  1.
<mgrwt>
<rscale>  0 0.11876407E+04</rscale>
<asrwt>0</asrwt>
<pdfrwt beam="1">  1        1 0.40373440E+00 0.11876407E+04</pdfrwt>
<pdfrwt beam="2">  1       -1 0.20672247E-01 0.11876407E+04</pdfrwt>
<totfact> 0.21440970E+01</totfact>
</mgrwt>
</event>
<event>
 6    1  0.9364335E-007  0.2199059E+04  0.7818608E-02  0.8518820E-01
         -1   -1    0    0    0  501 -0.00000000000E+00  0.00000000000E+00  0.14988073027E+04  0.14988073027E+04  0.00000000000E+00 0.  1.
          1   -1    0    0  501    0  0.00000000000E+00 -0.00000000000E+00 -0.80661812153E+03  0.80661812153E+03  0.00000000000E+00 0. -1.
         23    2    1    2    0    0 -0.60223978224E+03 -0.44167817936E+03 -0.49652526414E+03  0.90156845078E+03  0.92281981316E+02 0.  0.
         11    1    3    3    0    0 -0.48722836939E+03 -0.36253141206E+03 -0.44442100376E+03  0.75254935868E+03  0.00000000000E+00 0. -1.
        -11    1    3    3    0    0 -0.11501141285E+03 -0.79146767304E+02 -0.52104260378E+02  0.14901909210E+03  0.00000000000E+00 0.  1.
         22    1    1    2    0    0  0.60223978224E+03  0.44167817936E+03  0.11887144453E+04  0.14038569735E+04  0.00000000000E+00 0.  1.
<mgrwt>
<rscale>  0 0.21990590E+04</rscale>
<asrwt>0</asrwt>
<pdfrwt beam="1">  1        1 0.12409510E+00 0.21990590E+04</pdfrwt>
<pdfrwt beam="2">  1       -1 0.23058574E+00 0.21990590E+04</pdfrwt>
<totfact> 0.18608871E+00</totfact>
</mgrwt>
</event>
<event>
 6    1  0.9364335E-007  0.3725073E+04  0.7818608E-02  0.8062428E-01
         -2   -1    0    0    0  501 -0.00000000000E+00  0.00000000000E+00  0.16068708362E+04  0.16068708362E+04  0.00000000000E+00 0.  1.
          2   -1    0    0  501    0  0.00000000000E+00 -0.00000000000E+00 -0.21588810360E+04  0.21588810360E+04  0.00000000000E+00 0. -1.
         23    2    1    2    0    0  0.28049570062E+03 -0.11000083450E+04 -0.17674644180E+04  0.21026147300E+04  0.91444171994E+02 0.  0.
         13    1    3    3    0    0  0.51270791580E+02 -0.22832191965E+03 -0.43479821756E+03  0.49377027356E+03  0.00000000000E+00 0.  1.
        -13    1    3    3    0    0  0.22922490904E+03 -0.87168642539E+03 -0.13326662005E+04  0.16088444564E+04  0.00000000000E+00 0. -1.
         22    1    1    2    0    0 -0.28049570062E+03  0.11000083450E+04  0.12154542182E+04  0.16631371422E+04  0.00000000000E+00 0.  1.
<mgrwt>
<rscale>  0 0.37250734E+04</rscale>
<asrwt>0</asrwt>
<pdfrwt beam="1">  1        2 0.33213554E+00 0.37250734E+04</pdfrwt>
<pdfrwt beam="2">  1       -2 0.24721090E+00 0.37250734E+04</pdfrwt>
<totfact> 0.29375617E-01</totfact>
</mgrwt>
</event>
<event>
 6    1  0.9364335E-007  0.1995521E+04  0.7818608E-02  0.8608718E-01
         -1   -1    0    0    0  501 -0.00000000000E+00  0.00000000000E+00  0.13934540122E+04  0.13934540122E+04  0.00000000000E+00 0.  1.
          1   -1    0    0  501    0  0.00000000000E+00 -0.00000000000E+00 -0.71443040597E+03  0.71443040597E+03  0.00000000000E+00 0. -1.
         23    2    1    2    0    0  0.94418939593E+03 -0.27703939987E+03  0.50088019117E+03  0.11078946578E+04  0.91132663739E+02 0.  0.
         11    1    3    3    0    0  0.58657669188E+03 -0.13000288269E+03  0.32551327855E+03  0.68332412476E+03  0.00000000000E+00 0. -1.
        -11    1    3    3    0    0  0.35761270406E+03 -0.14703651718E+03  0.17536691262E+03  0.42457053304E+03  0.00000000000E+00 0.  1.
         22    1    1    2    0    0 -0.94418939593E+03  0.27703939987E+03  0.17814341502E+03  0.99998976034E+03  0.00000000000E+00 0. -1.
<mgrwt>
<rscale>  0 0.19955209E+04</rscale>
<asrwt>0</asrwt>
<pdfrwt beam="1">  1        1 0.10991237E+00 0.19955209E+04</pdfrwt>
<pdfrwt beam="2">  1       -1 0.21437754E+00 0.19955209E+04</pdfrwt>
<totfact> 0.29420164E+00</totfact>
</mgrwt>
</event>
<event>
 6    1  0.9364335E-007  0.3796666E+04  0.7818608E-02  0.8046871E-01
          2   -1    0    0  501    0  0.00000000000E+00  0.00000000000E+00  0.23234294953E+04  0.23234294953E+04  0.00000000000E+00 0. -1.
         -2   -1    0    0    0  501 -0.00000000000E+00 -0.00000000000E+00 -0.15510127306E+04  0.15510127306E+04  0.00000000000E+00 0.  1.
         23    2    1    2    0    0  0.14122614160E+04 -0.10606265331E+04 -0.32063081513E+03  0.17973856639E+04  0.91543189728E+02 0.  0.
         11    1    3    3    0    0  0.46740561255E+03 -0.37475145040E+03 -0.69236620357E+02  0.60307575463E+03  0.00000000000E+00 0. -1.
        -11    1    3    3    0    0  0.94485580345E+03 -0.68587508266E+03 -0.25139419477E+03  0.11943099093E+04  0.00000000000E+00 0.  1.
         22    1    1    2    0    0 -0.14122614160E+04  0.10606265331E+04  0.10930475798E+04  0.20770565619E+04  0.00000000000E+00 0. -1.
<mgrwt>
<rscale>  0 0.37966663E+04</rscale>
<asrwt>0</asrwt>
<pdfrwt beam="1">  1        2 0.35745069E+00 0.37966663E+04</pdfrwt>
<pdfrwt beam="2">  1       -2 0.23861734E+00 0.37966663E+04</pdfrwt>
<totfact> 0.26643091E-01</totfact>
</mgrwt>
</event>
<event>
 6    1  0.9364335E-007  0.2382700E+04  0.7818608E-02  0.8446009E-01
         -1   -1    0    0    0  501 -0.00000000000E+00  0.00000000000E+00  0.65643677202E+03  0.65643677202E+03  0.00000000000E+00 0.  1.
          1   -1    0    0  501    0  0.00000000000E+00 -0.00000000000E+00 -0.21621507409E+04  0.21621507409E+04  0.00000000000E+00 0. -1.
         23    2    1    2    0    0 -0.60534977476E+02 -0.11873972397E+04 -0.80188558730E+03  0.14369395552E+04  0.90543369553E+02 0.  0.
         11    1    3    3    0    0 -0.62165497824E+02 -0.83571964864E+03 -0.60800400521E+03  0.10353553741E+04  0.00000000000E+00 0. -1.
        -11    1    3    3    0    0  0.16305203482E+01 -0.35167759107E+03 -0.19388158209E+03  0.40158418112E+03  0.00000000000E+00 0.  1.
         22    1    1    2    0    0  0.60534977476E+02  0.11873972397E+04 -0.70382838155E+03  0.13816479577E+04  0.00000000000E+00 0. -1.
<mgrwt>
<rscale>  0 0.23827004E+04</rscale>
<asrwt>0</asrwt>
<pdfrwt beam="1">  1        1 0.33263858E+00 0.23827004E+04</pdfrwt>
<pdfrwt beam="2">  1       -1 0.10099027E+00 0.23827004E+04</pdfrwt>
<totfact> 0.19328464E+00</totfact>
</mgrwt>
</event>
<event>
 6    1  0.9364335E-007  0.1417624E+04  0.7818608E-02  0.8941159E-01
          2   -1    0    0  501    0  0.00000000000E+00  0.00000000000E+00  0.26258605973E+04  0.26258605973E+04  0.00000000000E+00 0. -1.
         -2   -1    0    0    0  501 -0.00000000000E+00 -0.00000000000E+00 -0.19133337792E+03  0.19133337792E+03  0.00000000000E+00 0.  1.
         23    2    1    2    0    0 -0.11117224475E+03 -0.47685187723E+03  0.22327120344E+04  0.22875937961E+04  0.91298230392E+02 0.  0.
         13    1    3    3    0    0 -0.10857439746E+01 -0.73634860792E+02  0.22192404064E+03  0.23382376136E+03  0.00000000000E+00 0.  1.
        -13    1    3    3    0    0 -0.11008650077E+03 -0.40321701644E+03  0.20107879937E+04  0.20537700348E+04  0.00000000000E+00 0. -1.
         22    1    1    2    0    0  0.11117224475E+03  0.47685187723E+03  0.20181518506E+03  0.52960017914E+03  0.00000000000E+00 0.  1.
<mgrwt>
<rscale>  0 0.14176245E+04</rscale>
<asrwt>0</asrwt>
<pdfrwt beam="1">  1        2 0.40397853E+00 0.14176245E+04</pdfrwt>
<pdfrwt beam="2">  1       -2 0.29435906E-01 0.14176245E+04</pdfrwt>
<totfact> 0.30486262E+01</totfact>
</mgrwt>
</event>
<event>
 6    1  0.9364335E-007  0.1893056E+04  0.7818608E-02  0.8658321E-01
         -2   -1    0    0    0  501 -0.00000000000E+00  0.00000000000E+00  0.50771881580E+03  0.50771881580E+03  0.00000000000E+00 0.  1.
          2   -1    0    0  501    0  0.00000000000E+00 -0.00000000000E+00 -0.17645886863E+04  0.17645886863E+04  0.00000000000E+00 0. -1.
         23    2    1    2    0    0  0.84353265311E+03 -0.34539695329E+03 -0.33411933282E+03  0.97526665964E+03  0.93074898038E+02 0.  0.
         13    1    3    3    0    0  0.70722107133E+03 -0.26771436792E+03 -0.30655342982E+03  0.81597036212E+03  0.00000000000E+00 0. -1.
        -13    1    3    3    0    0  0.13631158178E+03 -0.77682585369E+02 -0.27565903007E+02  0.15929629752E+03  0.00000000000E+00 0.  1.
         22    1    1    2    0    0 -0.84353265311E+03  0.34539695329E+03 -0.92275053765E+03  0.12970408424E+04  0.00000000000E+00 0. -1.
<mgrwt>
<rscale>  0 0.18930556E+04</rscale>
<asrwt>0</asrwt>
<pdfrwt beam="1">  1        2 0.27147519E+00 0.18930556E+04</pdfrwt>
<pdfrwt beam="2">  1       -2 0.78110585E-01 0.18930556E+04</pdfrwt>
<totfact> 0.12338589E+01</totfact>
</mgrwt>
</event>
<event>
 6    1  0.9364335E-007  0.1458224E+04  0.7818608E-02  0.8912719E-01
         -2   -1    0    0    0  501 -0.00000000000E+00  0.00000000000E+00  0.25744661458E+03  0.25744661458E+03  0.00000000000E+00 0.  1.
          2   -1    0    0  501    0  0.00000000000E+00 -0.00000000000E+00 -0.20649102402E+04  0.20649102402E+04  0.00000000000E+00 0. -1.
         23    2    1    2    0    0  0.53421232605E+02  0.71673338974E+03 -0.74075369676E+03  0.10361101240E+04  0.90816131734E+02 0.  0.
         13    1    3    3    0    0 -0.23183321080E+02  0.90135860820E+02 -0.10113711734E+03  0.13744328389E+03  0.00000000000E+00 0.  1.
        -13    1    3    3    0    0  0.76604553685E+02  0.62659752892E+03 -0.63961657942E+03  0.89866684013E+03  0.00000000000E+00 0. -1.
         22    1    1    2    0    0 -0.53421232605E+02 -0.71673338974E+03 -0.10667099288E+04  0.12862467307E+04  0.00000000000E+00 0. -1.
<mgrwt>
<rscale>  0 0.14582238E+04</rscale>
<asrwt>0</asrwt>
<pdfrwt beam="1">  1        2 0.31767849E+00 0.14582238E+04</pdfrwt>
<pdfrwt beam="2">  1       -2 0.39607172E-01 0.14582238E+04</pdfrwt>
<totfact> 0.35948722E+01</totfact>
</mgrwt>
</event>
<event>
 6    1  0.9364335E-007  0.1975287E+04  0.7818608E-02  0.8618263E-01
          2   -1    0    0  501    0  0.00000000000E+00  0.00000000000E+00  0.18435903148E+04  0.18435903148E+04  0.00000000000E+00 0. -1.
         -2   -1    0    0    0  501 -0.00000000000E+00 -0.00000000000E+00 -0.52909807950E+03  0.52909807950E+03  0.00000000000E+00 0.  1.
         23    2    1    2    0    0  0.86321812447E+02 -0.58166973645E+03 -0.29099670939E+03  0.66289721140E+03  0.94670430422E+02 0.  0.
         11    1    3    3    0    0  0.64169012123E+01 -0.28314135462E+03 -0.17435298360E+03  0.33257956373E+03  0.00000000000E+00 0. -1.
        -11    1    3    3    0    0  0.79904911235E+02 -0.29852838183E+03 -0.11664372579E+03  0.33031764767E+03  0.00000000000E+00 0.  1.
         22    1    1    2    0    0 -0.86321812447E+02  0.58166973645E+03  0.16054889447E+04  0.17097911829E+04  0.00000000000E+00 0. -1.
<mgrwt>
<rscale>  0 0.19752874E+04</rscale>
<asrwt>0</asrwt>
<pdfrwt beam="1">  1        2 0.28362928E+00 0.19752874E+04</pdfrwt>
<pdfrwt beam="2">  1       -2 0.81399705E-01 0.19752874E+04</pdfrwt>
<totfact> 0.10098128E+01</totfact>
</mgrwt>
</event>
<event>
 6    1  0.9364335E-007  0.3009562E+04  0.7818608E-02  0.8241006E-01
         -1   -1    0    0    0  501 -0.00000000000E+00  0.00000000000E+00  0.12722687730E+04  0.12722687730E+04  0.00000000000E+00 0.  1.
          1   -1    0    0  501    0  0.00000000000E+00 -0.00000000000E+00 -0.17797855712E+04  0.17797855712E+04  0.00000000000E+00 0. -1.
         23    2    1    2    0    0  0.20385075828E+02 -0.14855351488E+04 -0.20366837706E+02  0.14885501665E+04  0.90202885734E+02 0.  0.
         13    1    3    3    0    0  0.44254811627E+02 -0.56497165169E+03 -0.31982064453E+02  0.56760400634E+03  0.00000000000E+00 0.  1.
        -13    1    3    3    0    0 -0.23869735799E+02 -0.92056349711E+03  0.11615226746E+02  0.92094616020E+03  0.00000000000E+00 0. -1.
         22    1    1    2    0    0 -0.20385075828E+02  0.14855351488E+04 -0.48714996050E+03  0.15635041777E+04  0.00000000000E+00 0. -1.
<mgrwt>
<rscale>  0 0.30095618E+04</rscale>
<asrwt>0</asrwt>
<pdfrwt beam="1">  1        1 0.27381316E+00 0.30095618E+04</pdfrwt>
<pdfrwt beam="2">  1       -1 0.19573366E+00 0.30095618E+04</pdfrwt>
<totfact> 0.57613943E-01</totfact>
</mgrwt>
</event>
<event>
 6    1  0.9364335E-007  0.2608682E+04  0.7818608E-02  0.8365258E-01
          1   -1    0    0  501    0  0.00000000000E+00  0.00000000000E+00  0.13946003638E+04  0.13946003638E+04  0.00000000000E+00 0. -1.
         -1   -1    0    0    0  501 -0.00000000000E+00 -0.00000000000E+00 -0.12199235657E+04  0.12199235657E+04  0.00000000000E+00 0.  1.
         23    2    1    2    0    0  0.29610394524E+03 -0.58628601060E+03  0.12150428422E+04  0.13841701844E+04  0.90493968038E+02 0.  0.
         13    1    3    3    0    0  0.13033956354E+03 -0.23523912450E+03  0.40879390613E+03  0.48932433539E+03  0.00000000000E+00 0. -1.
        -13    1    3    3    0    0  0.16576438170E+03 -0.35104688610E+03  0.80624893608E+03  0.89484584896E+03  0.00000000000E+00 0.  1.
         22    1    1    2    0    0 -0.29610394524E+03  0.58628601060E+03 -0.10403660441E+04  0.12303537452E+04  0.00000000000E+00 0.  1.
<mgrwt>
<rscale>  0 0.26086823E+04</rscale>
<asrwt>0</asrwt>
<pdfrwt beam="1">  1        1 0.21455390E+00 0.26086823E+04</pdfrwt>
<pdfrwt beam="2">  1       -1 0.18768055E+00 0.26086823E+04</pdfrwt>
<totfact> 0.12515227E+00</totfact>
</mgrwt>
</event>
<event>
 6    1  0.9364335E-007  0.3860071E+04  0.7818608E-02  0.8033385E-01
         -1   -1    0    0    0  501 -0.00000000000E+00  0.00000000000E+00  0.14249921796E+04  0.14249921796E+04  0.00000000000E+00 0.  1.
          1   -1    0    0  501    0  0.00000000000E+00 -0.00000000000E+00 -0.26140754420E+04  0.26140754420E+04  0.00000000000E+00 0. -1.
         23    2    1    2    0    0 -0.41532707034E+03  0.10810884796E+04 -0.22090066150E+04  0.24958591065E+04  0.91397911978E+02 0.  0.
         13    1    3    3    0    0 -0.35011148136E+03  0.82373549832E+03 -0.17497936552E+04  0.19654251592E+04  0.00000000000E+00 0. -1.
        -13    1    3    3    0    0 -0.65215588983E+02  0.25735298128E+03 -0.45921295980E+03  0.53043394732E+03  0.00000000000E+00 0.  1.
         22    1    1    2    0    0  0.41532707034E+03 -0.10810884796E+04  0.10199233526E+04  0.15432085152E+04  0.00000000000E+00 0.  1.
<mgrwt>
<rscale>  0 0.38600710E+04</rscale>
<asrwt>0</asrwt>
<pdfrwt beam="1">  1        1 0.40216545E+00 0.38600710E+04</pdfrwt>
<pdfrwt beam="2">  1       -1 0.21922957E+00 0.38600710E+04</pdfrwt>
<totfact> 0.99440630E-02</totfact>
</mgrwt>
</event>
<event>
 6    1  0.9364335E-007  0.1063877E+04  0.7818608E-02  0.9241133E-01
         -2   -1    0    0    0  501 -0.00000000000E+00  0.00000000000E+00  0.26267917274E+03  0.26267917274E+03  0.00000000000E+00 0.  1.
          2   -1    0    0  501    0  0.00000000000E+00 -0.00000000000E+00 -0.10772014040E+04  0.10772014040E+04  0.00000000000E+00 0. -1.
         23    2    1    2    0    0 -0.24512627626E+03  0.31356399116E+03 -0.84711547276E+03  0.94054163891E+03  0.92761427714E+02 0.  0.
         13    1    3    3    0    0 -0.13236040733E+03  0.11908465071E+03 -0.29722053446E+03  0.34646858093E+03  0.00000000000E+00 0. -1.
        -13    1    3    3    0    0 -0.11276586893E+03  0.19447934045E+03 -0.54989493830E+03  0.59407305799E+03  0.00000000000E+00 0.  1.
         22    1    1    2    0    0  0.24512627626E+03 -0.31356399116E+03  0.32593241516E+02  0.39933893782E+03  0.00000000000E+00 0.  1.
<mgrwt>
<rscale>  0 0.10638766E+04</rscale>
<asrwt>0</asrwt>
<pdfrwt beam="1">  1        2 0.16572329E+00 0.10638766E+04</pdfrwt>
<pdfrwt beam="2">  1       -2 0.40412181E-01 0.10638766E+04</pdfrwt>
<totfact> 0.12969996E+02</totfact>
</mgrwt>
</event>
<event>
 6    1  0.9364335E-007  0.2988347E+04  0.7818608E-02  0.8247066E-01
          1   -1    0    0  501    0  0.00000000000E+00  0.00000000000E+00  0.13352804055E+04  0.13352804055E+04  0.00000000000E+00 0. -1.
         -1   -1    0    0    0  501 -0.00000000000E+00 -0.00000000000E+00 -0.16719746968E+04  0.16719746968E+04  0.00000000000E+00 0.  1.
         23    2    1    2    0    0 -0.11811770601E+04 -0.61095896778E+03 -0.85107035470E+03  0.15814104957E+04  0.89934973473E+02 0.  0.
         13    1    3    3    0    0 -0.68516794631E+03 -0.37407845020E+03 -0.45085190276E+03  0.90147503558E+03  0.00000000000E+00 0. -1.
        -13    1    3    3    0    0 -0.49600911382E+03 -0.23688051758E+03 -0.40021845194E+03  0.67993546008E+03  0.00000000000E+00 0.  1.
         22    1    1    2    0    0  0.11811770601E+04  0.61095896778E+03  0.51437606333E+03  0.14258446066E+04  0.00000000000E+00 0. -1.
<mgrwt>
<rscale>  0 0.29883474E+04</rscale>
<asrwt>0</asrwt>
<pdfrwt beam="1">  1        1 0.20542775E+00 0.29883474E+04</pdfrwt>
<pdfrwt beam="2">  1       -1 0.25722688E+00 0.29883474E+04</pdfrwt>
<totfact> 0.45483854E-01</totfact>
</mgrwt>
</event>
<event>
 6    1  0.9364335E-007  0.2115599E+04  0.7818608E-02  0.8554403E-01
          1   -1    0    0  501    0  0.00000000000E+00  0.00000000000E+00  0.14512994566E+04  0.14512994566E+04  0.00000000000E+00 0. -1.
         -1   -1    0    0    0  501 -0.00000000000E+00 -0.00000000000E+00 -0.77099186630E+03  0.77099186630E+03  0.00000000000E+00 0.  1.
         23    2    1    2    0    0 -0.61762947353E+03 -0.39356381108E+03 -0.45875025057E+03  0.86810839404E+03  0.82472731526E+02 0.  0.
         13    1    3    3    0    0 -0.42385509132E+03 -0.24948611523E+03 -0.34773978694E+03  0.60234493403E+03  0.00000000000E+00 0.  1.
        -13    1    3    3    0    0 -0.19377438221E+03 -0.14407769585E+03 -0.11101046363E+03  0.26576346001E+03  0.00000000000E+00 0. -1.
         22    1    1    2    0    0  0.61762947353E+03  0.39356381108E+03  0.11390578409E+04  0.13541829289E+04  0.00000000000E+00 0. -1.
<mgrwt>
<rscale>  0 0.21155993E+04</rscale>
<asrwt>0</asrwt>
<pdfrwt beam="1">  1        1 0.22327684E+00 0.21155993E+04</pdfrwt>
<pdfrwt beam="2">  1       -1 0.11861413E+00 0.21155993E+04</pdfrwt>
<totfact> 0.41375064E+00</totfact>
</mgrwt>
</event>
<event>
 6    1  0.9364335E-007  0.2297173E+04  0.7818608E-02  0.8479037E-01
         -1   -1    0    0    0  501 -0.00000000000E+00  0.00000000000E+00  0.95263493681E+03  0.95263493681E+03  0.00000000000E+00 0.  1.
          1   -1    0    0  501    0  0.00000000000E+00 -0.00000000000E+00 -0.13848439534E+04  0.13848439534E+04  0.00000000000E+00 0. -1.
         23    2    1    2    0    0  0.59568498125E+03 -0.29962058272E+03  0.73291514094E+03  0.99504550529E+03  0.91311901252E+02 0.  0.
         11    1    3    3    0    0  0.48024883102E+03 -0.24540510000E+03  0.64176656653E+03  0.83828809410E+03  0.00000000000E+00 0.  1.
        -11    1    3    3    0    0  0.11543615022E+03 -0.54215482717E+02  0.91148574417E+02  0.15675741119E+03  0.00000000000E+00 0. -1.
         22    1    1    2    0    0 -0.59568498125E+03  0.29962058272E+03 -0.11651241576E+04  0.13424333849E+04  0.00000000000E+00 0. -1.
<mgrwt>
<rscale>  0 0.22971728E+04</rscale>
<asrwt>0</asrwt>
<pdfrwt beam="1">  1        1 0.21305291E+00 0.22971728E+04</pdfrwt>
<pdfrwt beam="2">  1       -1 0.14655922E+00 0.22971728E+04</pdfrwt>
<totfact> 0.26436859E+00</totfact>
</mgrwt>
</event>
<event>
 6    1  0.9364335E-007  0.1088167E+04  0.7818608E-02  0.9216802E-01
         -1   -1    0    0    0  501 -0.00000000000E+00  0.00000000000E+00  0.64626138739E+03  0.64626138739E+03  0.00000000000E+00 0.  1.
          1   -1    0    0  501    0  0.00000000000E+00 -0.00000000000E+00 -0.45806065648E+03  0.45806065648E+03  0.00000000000E+00 0. -1.
         23    2    1    2    0    0  0.68450521707E+02  0.26784079991E+03  0.56579743876E+03  0.63634400829E+03  0.91557562029E+02 0.  0.
         11    1    3    3    0    0  0.49495036083E+02  0.43548743163E+02  0.11854590090E+03  0.13564432258E+03  0.00000000000E+00 0. -1.
        -11    1    3    3    0    0  0.18955485624E+02  0.22429205675E+03  0.44725153786E+03  0.50069968571E+03  0.00000000000E+00 0.  1.
         22    1    1    2    0    0 -0.68450521707E+02 -0.26784079991E+03 -0.37759670784E+03  0.46797803558E+03  0.00000000000E+00 0. -1.
<mgrwt>
<rscale>  0 0.10881671E+04</rscale>
<asrwt>0</asrwt>
<pdfrwt beam="1">  1        1 0.70470871E-01 0.10881671E+04</pdfrwt>
<pdfrwt beam="2">  1       -1 0.99424828E-01 0.10881671E+04</pdfrwt>
<totfact> 0.48167688E+01</totfact>
</mgrwt>
</event>
<event>
 6    1  0.9364335E-007  0.4111012E+04  0.7818608E-02  0.7982519E-01
         -1   -1    0    0    0  501 -0.00000000000E+00  0.00000000000E+00  0.19937485598E+04  0.19937485598E+04  0.00000000000E+00 0.  1.
          1   -1    0    0  501    0  0.00000000000E+00 -0.00000000000E+00 -0.21191760793E+04  0.21191760793E+04  0.00000000000E+00 0. -1.
         23    2    1    2    0    0  0.91972171252E+03  0.18079980767E+04 -0.38871595167E+03  0.20674257092E+04  0.91672776995E+02 0.  0.
         11    1    3    3    0    0  0.89940531119E+03  0.17297917337E+04 -0.36905243468E+03  0.19842653692E+04  0.00000000000E+00 0.  1.
        -11    1    3    3    0    0  0.20316401327E+02  0.78206342957E+02 -0.19663516989E+02  0.83160339958E+02  0.00000000000E+00 0. -1.
         22    1    1    2    0    0 -0.91972171252E+03 -0.18079980767E+04  0.26328843213E+03  0.20454989299E+04  0.00000000000E+00 0. -1.
<mgrwt>
<rscale>  0 0.41110117E+04</rscale>
<asrwt>0</asrwt>
<pdfrwt beam="1">  1        1 0.32602709E+00 0.41110117E+04</pdfrwt>
<pdfrwt beam="2">  1       -1 0.30673055E+00 0.41110117E+04</pdfrwt>
<totfact> 0.57279179E-02</totfact>
</mgrwt>
</event>
<event>
 6    1  0.9364335E-007  0.1808825E+04  0.7818608E-02  0.8701621E-01
         -2   -1    0    0    0  501 -0.00000000000E+00  0.00000000000E+00  0.37527271002E+03  0.37527271002E+03  0.00000000000E+00 0.  1.
          2   -1    0    0  501    0  0.00000000000E+00 -0.00000000000E+00 -0.21796459347E+04  0.21796459347E+04  0.00000000000E+00 0. -1.
         23    2    1    2    0    0 -0.86808517145E+03  0.78749850890E+02 -0.12327294940E+04  0.15125415734E+04  0.91578393105E+02 0.  0.
         13    1    3    3    0    0 -0.56465538718E+03  0.43928150500E+02 -0.87328260960E+03  0.10408592147E+04  0.00000000000E+00 0. -1.
        -13    1    3    3    0    0 -0.30342978427E+03  0.34821700390E+02 -0.35944688441E+03  0.47168235870E+03  0.00000000000E+00 0.  1.
         22    1    1    2    0    0  0.86808517145E+03 -0.78749850890E+02 -0.57164373066E+03  0.10423770713E+04  0.00000000000E+00 0.  1.
<mgrwt>
<rscale>  0 0.18088246E+04</rscale>
<asrwt>0</asrwt>
<pdfrwt beam="1">  1        2 0.33533014E+00 0.18088246E+04</pdfrwt>
<pdfrwt beam="2">  1       -2 0.57734263E-01 0.18088246E+04</pdfrwt>
<totfact> 0.14052971E+01</totfact>
</mgrwt>
</event>
<event>
 6    1  0.9364335E-007  0.2315575E+04  0.7818608E-02  0.8471805E-01
         -1   -1    0    0    0  501 -0.00000000000E+00  0.00000000000E+00  0.64281669357E+03  0.64281669357E+03  0.00000000000E+00 0.  1.
          1   -1    0    0  501    0  0.00000000000E+00 -0.00000000000E+00 -0.20853090374E+04  0.20853090374E+04  0.00000000000E+00 0. -1.
         23    2    1    2    0    0  0.41851796310E+01  0.96179580905E+03  0.33373806237E+02  0.96652146584E+03  0.89337780006E+02 0.  0.
         13    1    3    3    0    0  0.42985036617E+02  0.65746581068E+03  0.33645000810E+02  0.65972796793E+03  0.00000000000E+00 0. -1.
        -13    1    3    3    0    0 -0.38799856986E+02  0.30432999837E+03 -0.27119457301E+00  0.30679349791E+03  0.00000000000E+00 0.  1.
         22    1    1    2    0    0 -0.41851796310E+01 -0.96179580905E+03 -0.14758661501E+04  0.17616042652E+04  0.00000000000E+00 0. -1.
<mgrwt>
<rscale>  0 0.23155746E+04</rscale>
<asrwt>0</asrwt>
<pdfrwt beam="1">  1        1 0.32081677E+00 0.23155746E+04</pdfrwt>
<pdfrwt beam="2">  1       -1 0.98894876E-01 0.23155746E+04</pdfrwt>
<totfact> 0.23008274E+00</totfact>
</mgrwt>
</event>
<event>
 6    1  0.9364335E-007  0.1760769E+04  0.7818608E-02  0.8727445E-01
         -1   -1    0    0    0  501 -0.00000000000E+00  0.00000000000E+00  0.73629720361E+03  0.73629720361E+03  0.00000000000E+00 0.  1.
          1   -1    0    0  501    0  0.00000000000E+00 -0.00000000000E+00 -0.10526680690E+04  0.10526680690E+04  0.00000000000E+00 0. -1.
         23    2    1    2    0    0 -0.53638302311E+03 -0.69469136153E+03 -0.13780580457E+03  0.89331561107E+03  0.93378294878E+02 0.  0.
         11    1    3    3    0    0 -0.25501207197E+03 -0.35610564296E+03 -0.24256989251E+02  0.43866933712E+03  0.00000000000E+00 0.  1.
        -11    1    3    3    0    0 -0.28137095114E+03 -0.33858571856E+03 -0.11354881532E+03  0.45464627396E+03  0.00000000000E+00 0. -1.
         22    1    1    2    0    0  0.53638302311E+03  0.69469136153E+03 -0.17856506081E+03  0.89564966153E+03  0.00000000000E+00 0. -1.
<mgrwt>
<rscale>  0 0.17607686E+04</rscale>
<asrwt>0</asrwt>
<pdfrwt beam="1">  1        1 0.16194893E+00 0.17607686E+04</pdfrwt>
<pdfrwt beam="2">  1       -1 0.11327649E+00 0.17607686E+04</pdfrwt>
<totfact> 0.92827352E+00</totfact>
</mgrwt>
</event>
<event>
 6    1  0.9364335E-007  0.2226407E+04  0.7818608E-02  0.8507516E-01
          2   -1    0    0  501    0  0.00000000000E+00  0.00000000000E+00  0.17933472151E+04  0.17933472151E+04  0.00000000000E+00 0. -1.
         -2   -1    0    0    0  501 -0.00000000000E+00 -0.00000000000E+00 -0.69101092227E+03  0.69101092227E+03  0.00000000000E+00 0.  1.
         23    2    1    2    0    0 -0.51293176237E+03 -0.35058202437E+03  0.15803024673E+04  0.17004841599E+04  0.91015059596E+02 0.  0.
         11    1    3    3    0    0 -0.36029024859E+03 -0.27187750668E+03  0.12335253448E+04  0.13135110270E+04  0.00000000000E+00 0. -1.
        -11    1    3    3    0    0 -0.15264151377E+03 -0.78704517698E+02  0.34677712256E+03  0.38697313287E+03  0.00000000000E+00 0.  1.
         22    1    1    2    0    0  0.51293176237E+03  0.35058202437E+03 -0.47796617448E+03  0.78387397750E+03  0.00000000000E+00 0.  1.
<mgrwt>
<rscale>  0 0.22264074E+04</rscale>
<asrwt>0</asrwt>
<pdfrwt beam="1">  1        2 0.27589957E+00 0.22264074E+04</pdfrwt>
<pdfrwt beam="2">  1       -2 0.10630937E+00 0.22264074E+04</pdfrwt>
<totfact> 0.56633177E+00</totfact>
</mgrwt>
</event>
<event>
 6    1  0.9364335E-007  0.3751609E+04  0.7818608E-02  0.8056620E-01
          2   -1    0    0  501    0  0.00000000000E+00  0.00000000000E+00  0.24927852323E+04  0.24927852323E+04  0.00000000000E+00 0. -1.
         -2   -1    0    0    0  501 -0.00000000000E+00 -0.00000000000E+00 -0.14115306469E+04  0.14115306469E+04  0.00000000000E+00 0.  1.
         23    2    1    2    0    0  0.12169450639E+04 -0.10642298026E+04 -0.44683046679E+03  0.16797745135E+04  0.91894444687E+02 0.  0.
         11    1    3    3    0    0  0.50996894704E+03 -0.44382879839E+03 -0.13998063421E+03  0.69039619580E+03  0.00000000000E+00 0.  1.
        -11    1    3    3    0    0  0.70697611685E+03 -0.62040100421E+03 -0.30684983259E+03  0.98937831772E+03  0.00000000000E+00 0. -1.
         22    1    1    2    0    0 -0.12169450639E+04  0.10642298026E+04  0.15280850522E+04  0.22245413658E+04  0.00000000000E+00 0.  1.
<mgrwt>
<rscale>  0 0.37516091E+04</rscale>
<asrwt>0</asrwt>
<pdfrwt beam="1">  1        2 0.38350542E+00 0.37516091E+04</pdfrwt>
<pdfrwt beam="2">  1       -2 0.21715856E+00 0.37516091E+04</pdfrwt>
<totfact> 0.29150357E-01</totfact>
</mgrwt>
</event>
<event>
 6    1  0.9364335E-007  0.1297042E+04  0.7818608E-02  0.9031914E-01
         -1   -1    0    0    0  501 -0.00000000000E+00  0.00000000000E+00  0.40981020899E+03  0.40981020899E+03  0.00000000000E+00 0.  1.
          1   -1    0    0  501    0  0.00000000000E+00 -0.00000000000E+00 -0.10262785979E+04  0.10262785979E+04  0.00000000000E+00 0. -1.
         23    2    1    2    0    0 -0.87917737629E+02 -0.51409178574E+03  0.11192730044E+03  0.54022041642E+03  0.85384336851E+02 0.  0.
         13    1    3    3    0    0 -0.88170156001E+02 -0.29833947587E+03  0.87007232145E+02  0.32303355510E+03  0.00000000000E+00 0. -1.
        -13    1    3    3    0    0  0.25241837206E+00 -0.21575230987E+03  0.24920068300E+02  0.21718686133E+03  0.00000000000E+00 0.  1.
         22    1    1    2    0    0  0.87917737629E+02  0.51409178574E+03 -0.72839568935E+03  0.89586839046E+03  0.00000000000E+00 0.  1.
<mgrwt>
<rscale>  0 0.12970419E+04</rscale>
<asrwt>0</asrwt>
<pdfrwt beam="1">  1        1 0.15788901E+00 0.12970419E+04</pdfrwt>
<pdfrwt beam="2">  1       -1 0.63047726E-01 0.12970419E+04</pdfrwt>
<totfact> 0.36197414E+01</totfact>
</mgrwt>
</event>
<event>
 6    1  0.9364335E-007  0.4649747E+04  0.7818608E-02  0.7884932E-01
         -1   -1    0    0    0  501 -0.00000000000E+00  0.00000000000E+00  0.16579994729E+04  0.16579994729E+04  0.00000000000E+00 0.  1.
          1   -1    0    0  501    0  0.00000000000E+00 -0.00000000000E+00 -0.32599754935E+04  0.32599754935E+04  0.00000000000E+00 0. -1.
         23    2    1    2    0    0 -0.10718071095E+04  0.20230696612E+04 -0.37917866246E+03  0.23224375051E+04  0.91423043451E+02 0.  0.
         13    1    3    3    0    0 -0.52521448230E+03  0.89432858522E+03 -0.17438697217E+03  0.10517056084E+04  0.00000000000E+00 0. -1.
        -13    1    3    3    0    0 -0.54659262717E+03  0.11287410760E+04 -0.20479169029E+03  0.12707318966E+04  0.00000000000E+00 0.  1.
         22    1    1    2    0    0  0.10718071095E+04 -0.20230696612E+04 -0.12227973581E+04  0.25955374613E+04  0.00000000000E+00 0. -1.
<mgrwt>
<rscale>  0 0.46497474E+04</rscale>
<asrwt>0</asrwt>
<pdfrwt beam="1">  1        1 0.50153468E+00 0.46497474E+04</pdfrwt>
<pdfrwt beam="2">  1       -1 0.25507685E+00 0.46497474E+04</pdfrwt>
<totfact> 0.18356198E-02</totfact>
</mgrwt>
</event>
<event>
 6    1  0.9364335E-007  0.6631670E+03  0.7818608E-02  0.9782381E-01
         -2   -1    0    0    0  501 -0.00000000000E+00  0.00000000000E+00  0.42852144770E+03  0.42852144770E+03  0.00000000000E+00 0.  1.
          2   -1    0    0  501    0  0.00000000000E+00 -0.00000000000E+00 -0.25657433110E+03  0.25657433110E+03  0.00000000000E+00 0. -1.
         23    2    1    2    0    0 -0.25754023031E+03 -0.35562146723E+02  0.28911592655E+03  0.39992886885E+03  0.93613271722E+02 0.  0.
         13    1    3    3    0    0 -0.63682721208E+02  0.31496429121E+02  0.68688130919E+02  0.98820915584E+02  0.00000000000E+00 0.  1.
        -13    1    3    3    0    0 -0.19385750910E+03 -0.67058575844E+02  0.22042779563E+03  0.30110795326E+03  0.00000000000E+00 0. -1.
         22    1    1    2    0    0  0.25754023031E+03  0.35562146723E+02 -0.11716880996E+03  0.28516690996E+03  0.00000000000E+00 0.  1.
<mgrwt>
<rscale>  0 0.66316696E+03</rscale>
<asrwt>0</asrwt>
<pdfrwt beam="1">  1        2 0.39472974E-01 0.66316696E+03</pdfrwt>
<pdfrwt beam="2">  1       -2 0.65926377E-01 0.66316696E+03</pdfrwt>
<totfact> 0.27961680E+02</totfact>
</mgrwt>
</event>
<event>
 6    1  0.9364335E-007  0.1351443E+04  0.7818608E-02  0.8989737E-01
          2   -1    0    0  501    0  0.00000000000E+00  0.00000000000E+00  0.17075021539E+04  0.17075021539E+04  0.00000000000E+00 0. -1.
         -2   -1    0    0    0  501 -0.00000000000E+00 -0.00000000000E+00 -0.26740785946E+03  0.26740785946E+03  0.00000000000E+00 0.  1.
         23    2    1    2    0    0  0.22621888025E+03  0.22948588327E+03  0.15861670762E+04  0.16211077946E+04  0.90695841143E+02 0.  0.
         11    1    3    3    0    0  0.15398666505E+03  0.15545662266E+03  0.85008420944E+03  0.87779372160E+03  0.00000000000E+00 0. -1.
        -11    1    3    3    0    0  0.72232215198E+02  0.74029260607E+02  0.73608286680E+03  0.74331407301E+03  0.00000000000E+00 0.  1.
         22    1    1    2    0    0 -0.22621888025E+03 -0.22948588327E+03 -0.14607278181E+03  0.35380221874E+03  0.00000000000E+00 0.  1.
<mgrwt>
<rscale>  0 0.13514429E+04</rscale>
<asrwt>0</asrwt>
<pdfrwt beam="1">  1        2 0.26269263E+00 0.13514429E+04</pdfrwt>
<pdfrwt beam="2">  1       -2 0.41139672E-01 0.13514429E+04</pdfrwt>
<totfact> 0.53085047E+01</totfact>
</mgrwt>
</event>
<event>
 6    1  0.9364335E-007  0.1408428E+04  0.7818608E-02  0.8947741E-01
         -1   -1    0    0    0  501 -0.00000000000E+00  0.00000000000E+00  0.42528686463E+03  0.42528686463E+03  0.00000000000E+00 0.  1.
          1   -1    0    0  501    0  0.00000000000E+00 -0.00000000000E+00 -0.11660765882E+04  0.11660765882E+04  0.00000000000E+00 0. -1.
         23    2    1    2    0    0 -0.61294257417E+03 -0.34011442044E+03 -0.39261781301E+03  0.80867571337E+03  0.91821806084E+02 0.  0.
         11    1    3    3    0    0 -0.29265182721E+03 -0.20610195376E+03 -0.22836555986E+03  0.42458678293E+03  0.00000000000E+00 0. -1.
        -11    1    3    3    0    0 -0.32029074696E+03 -0.13401246668E+03 -0.16425225315E+03  0.38408893043E+03  0.00000000000E+00 0.  1.
         22    1    1    2    0    0  0.61294257417E+03  0.34011442044E+03 -0.34817191060E+03  0.78268773949E+03  0.00000000000E+00 0. -1.
<mgrwt>
<rscale>  0 0.14084276E+04</rscale>
<asrwt>0</asrwt>
<pdfrwt beam="1">  1        1 0.17939640E+00 0.14084276E+04</pdfrwt>
<pdfrwt beam="2">  1       -1 0.65428749E-01 0.14084276E+04</pdfrwt>
<totfact> 0.26115543E+01</totfact>
</mgrwt>
</event>
<event>
 6    1  0.9364335E-007  0.1958395E+04  0.7818608E-02  0.8626323E-01
         -1   -1    0    0    0  501 -0.00000000000E+00  0.00000000000E+00  0.31444699148E+03  0.31444699148E+03  0.00000000000E+00 0.  1.
          1   -1    0    0  501    0  0.00000000000E+00 -0.00000000000E+00 -0.30492506589E+04  0.30492506589E+04  0.00000000000E+00 0. -1.
         23    2    1    2    0    0 -0.56028833179E+03  0.61741026315E+03 -0.49512320600E+03  0.97386773654E+03  0.90293584340E+02 0.  0.
         11    1    3    3    0    0 -0.30886917798E+03  0.27439630259E+03 -0.25388945933E+03  0.48492613617E+03  0.00000000000E+00 0. -1.
        -11    1    3    3    0    0 -0.25141915381E+03  0.34301396056E+03 -0.24123374667E+03  0.48894160037E+03  0.00000000000E+00 0.  1.
         22    1    1    2    0    0  0.56028833179E+03 -0.61741026315E+03 -0.22396804614E+04  0.23898299138E+04  0.00000000000E+00 0. -1.
<mgrwt>
<rscale>  0 0.19583950E+04</rscale>
<asrwt>0</asrwt>
<pdfrwt beam="1">  1        1 0.46911546E+00 0.19583950E+04</pdfrwt>
<pdfrwt beam="2">  1       -1 0.48376463E-01 0.19583950E+04</pdfrwt>
<totfact> 0.21937864E+00</totfact>
</mgrwt>
</event>
<event>
 6    1  0.1104354E-006  0.2831096E+04  0.7818608E-02  0.8293679E-01
         -2   -1    0    0    0  501 -0.00000000000E+00  0.00000000000E+00  0.12802425854E+04  0.12802425854E+04  0.00000000000E+00 0.  1.
          2   -1    0    0  501    0  0.00000000000E+00 -0.00000000000E+00 -0.15651536141E+04  0.15651536141E+04  0.00000000000E+00 0. -1.
         23    2    1    2    0    0  0.71192427614E+03  0.75201449388E+03 -0.11103753820E+04  0.15211026624E+04  0.91966551406E+02 0.  0.
         13    1    3    3    0    0  0.19783872297E+03  0.27149517274E+03 -0.35995084305E+03  0.49235596730E+03  0.00000000000E+00 0.  1.
        -13    1    3    3    0    0  0.51408555317E+03  0.48051932114E+03 -0.75042453896E+03  0.10287466951E+04  0.00000000000E+00 0. -1.
         22    1    1    2    0    0 -0.71192427614E+03 -0.75201449388E+03  0.82546435329E+03  0.13242935371E+04  0.00000000000E+00 0.  1.
<mgrwt>
<rscale>  0 0.28310961E+04</rscale>
<asrwt>0</asrwt>
<pdfrwt beam="1">  1        2 0.24079287E+00 0.28310961E+04</pdfrwt>
<pdfrwt beam="2">  1       -2 0.19696040E+00 0.28310961E+04</pdfrwt>
<totfact> 0.14103699E+00</totfact>
</mgrwt>
</event>
<event>
 6    1  0.9364335E-007  0.2741108E+04  0.7818608E-02  0.8321789E-01
         -2   -1    0    0    0  501 -0.00000000000E+00  0.00000000000E+00  0.88506738277E+03  0.88506738277E+03  0.00000000000E+00 0.  1.
          2   -1    0    0  501    0  0.00000000000E+00 -0.00000000000E+00 -0.21223443552E+04  0.21223443552E+04  0.00000000000E+00 0. -1.
         23    2    1    2    0    0  0.55673052753E+03  0.12476079098E+04 -0.71672967145E+03  0.15454117827E+04  0.90120914398E+02 0.  0.
         13    1    3    3    0    0  0.19920817201E+03  0.51454315420E+03 -0.25055534265E+03  0.60598393795E+03  0.00000000000E+00 0.  1.
        -13    1    3    3    0    0  0.35752235552E+03  0.73306475558E+03 -0.46617432880E+03  0.93942784470E+03  0.00000000000E+00 0. -1.
         22    1    1    2    0    0 -0.55673052753E+03 -0.12476079098E+04 -0.52054730101E+03  0.14619999553E+04  0.00000000000E+00 0. -1.
<mgrwt>
<rscale>  0 0.27411076E+04</rscale>
<asrwt>0</asrwt>
<pdfrwt beam="1">  1        2 0.32651451E+00 0.27411076E+04</pdfrwt>
<pdfrwt beam="2">  1       -2 0.13616421E+00 0.27411076E+04</pdfrwt>
<totfact> 0.19264857E+00</totfact>
</mgrwt>
</event>
<event>
 6    1  0.9364335E-007  0.2722203E+04  0.7818608E-02  0.8327837E-01
         -1   -1    0    0    0  501 -0.00000000000E+00  0.00000000000E+00  0.43791116749E+03  0.43791116749E+03  0.00000000000E+00 0.  1.
          1   -1    0    0  501    0  0.00000000000E+00 -0.00000000000E+00 -0.42305308537E+04  0.42305308537E+04  0.00000000000E+00 0. -1.
         23    2    1    2    0    0  0.11027507212E+04 -0.20796432042E+03 -0.32157755848E+04  0.34066744400E+04  0.70070082014E+02 0.  0.
         11    1    3    3    0    0  0.48722897623E+03 -0.11319639867E+03 -0.15171354724E+04  0.15974684791E+04  0.00000000000E+00 0. -1.
        -11    1    3    3    0    0  0.61552174498E+03 -0.94767921756E+02 -0.16986401124E+04  0.18092059609E+04  0.00000000000E+00 0.  1.
         22    1    1    2    0    0 -0.11027507212E+04  0.20796432042E+03 -0.57684410139E+03  0.12617675812E+04  0.00000000000E+00 0.  1.
<mgrwt>
<rscale>  0 0.27222026E+04</rscale>
<asrwt>0</asrwt>
<pdfrwt beam="1">  1        1 0.65085092E+00 0.27222026E+04</pdfrwt>
<pdfrwt beam="2">  1       -1 0.67370947E-01 0.27222026E+04</pdfrwt>
<totfact> 0.11533733E-01</totfact>
</mgrwt>
</event>
<event>
 6    1  0.9364335E-007  0.3551882E+04  0.7818608E-02  0.8101603E-01
          2   -1    0    0  501    0  0.00000000000E+00  0.00000000000E+00  0.10236987972E+04  0.10236987972E+04  0.00000000000E+00 0. -1.
         -2   -1    0    0    0  501 -0.00000000000E+00 -0.00000000000E+00 -0.30809520953E+04  0.30809520953E+04  0.00000000000E+00 0.  1.
         23    2    1    2    0    0  0.33720119881E+03  0.88379117569E+03  0.70589936574E+03  0.11840680510E+04  0.94507904622E+02 0.  0.
         11    1    3    3    0    0  0.88137680290E+02  0.35789916871E+03  0.26310806740E+03  0.45286413059E+03  0.00000000000E+00 0. -1.
        -11    1    3    3    0    0  0.24906351852E+03  0.52589200698E+03  0.44279129834E+03  0.73120392036E+03  0.00000000000E+00 0.  1.
         22    1    1    2    0    0 -0.33720119881E+03 -0.88379117569E+03 -0.27631526639E+04  0.29205828416E+04  0.00000000000E+00 0.  1.
<mgrwt>
<rscale>  0 0.35518823E+04</rscale>
<asrwt>0</asrwt>
<pdfrwt beam="1">  1        2 0.15749212E+00 0.35518823E+04</pdfrwt>
<pdfrwt beam="2">  1       -2 0.47399263E+00 0.35518823E+04</pdfrwt>
<totfact> 0.48018190E-02</totfact>
</mgrwt>
</event>
<event>
 6    1  0.9364335E-007  0.1958178E+04  0.7818608E-02  0.8626427E-01
         -2   -1    0    0    0  501 -0.00000000000E+00  0.00000000000E+00  0.10443143427E+04  0.10443143427E+04  0.00000000000E+00 0.  1.
          2   -1    0    0  501    0  0.00000000000E+00 -0.00000000000E+00 -0.91793761014E+03  0.91793761014E+03  0.00000000000E+00 0. -1.
         23    2    1    2    0    0  0.30916858800E+03 -0.24370057888E+03  0.95958448456E+03  0.10407258566E+04  0.85631406125E+02 0.  0.
         13    1    3    3    0    0  0.75644306641E+02 -0.11086363958E+03  0.31867829618E+03  0.34578702140E+03  0.00000000000E+00 0. -1.
        -13    1    3    3    0    0  0.23352428136E+03 -0.13283693929E+03  0.64090618837E+03  0.69493883524E+03  0.00000000000E+00 0.  1.
         22    1    1    2    0    0 -0.30916858800E+03  0.24370057888E+03 -0.83320775201E+03  0.92152609619E+03  0.00000000000E+00 0. -1.
<mgrwt>
<rscale>  0 0.19581781E+04</rscale>
<asrwt>0</asrwt>
<pdfrwt beam="1">  1        2 0.14122117E+00 0.19581781E+04</pdfrwt>
<pdfrwt beam="2">  1       -2 0.16066375E+00 0.19581781E+04</pdfrwt>
<totfact> 0.66190494E+00</totfact>
</mgrwt>
</event>
<event>
 6    1  0.9364335E-007  0.7632272E+03  0.7818608E-02  0.9614825E-01
         -1   -1    0    0    0  501 -0.00000000000E+00  0.00000000000E+00  0.17921411145E+03  0.17921411145E+03  0.00000000000E+00 0.  1.
          1   -1    0    0  501    0  0.00000000000E+00 -0.00000000000E+00 -0.81259747327E+03  0.81259747327E+03  0.00000000000E+00 0. -1.
         23    2    1    2    0    0 -0.56902601551E+02  0.36202598333E+03 -0.43083793653E+03  0.57309286294E+03  0.92267997309E+02 0.  0.
         13    1    3    3    0    0 -0.44991639666E+02  0.29191371145E+03 -0.28308136847E+03  0.40911236079E+03  0.00000000000E+00 0. -1.
        -13    1    3    3    0    0 -0.11910961885E+02  0.70112271877E+02 -0.14775656806E+03  0.16398050215E+03  0.00000000000E+00 0.  1.
         22    1    1    2    0    0  0.56902601551E+02 -0.36202598333E+03 -0.20254542529E+03  0.41871872179E+03  0.00000000000E+00 0.  1.
<mgrwt>
<rscale>  0 0.76322719E+03</rscale>
<asrwt>0</asrwt>
<pdfrwt beam="1">  1        1 0.12501500E+00 0.76322719E+03</pdfrwt>
<pdfrwt beam="2">  1       -1 0.27571401E-01 0.76322719E+03</pdfrwt>
<totfact> 0.25762553E+02</totfact>
</mgrwt>
</event>
<event>
 6    1  0.9364335E-007  0.1833737E+04  0.7818608E-02  0.8688561E-01
         -1   -1    0    0    0  501 -0.00000000000E+00  0.00000000000E+00  0.10793116225E+04  0.10793116225E+04  0.00000000000E+00 0.  1.
          1   -1    0    0  501    0  0.00000000000E+00 -0.00000000000E+00 -0.77887424898E+03  0.77887424898E+03  0.00000000000E+00 0. -1.
         23    2    1    2    0    0  0.73960665843E+03  0.53423856457E+03  0.21466494814E+03  0.94178761633E+03  0.91945751634E+02 0.  0.
         13    1    3    3    0    0  0.26640145685E+03  0.24542396055E+03  0.71290718390E+02  0.36916801480E+03  0.00000000000E+00 0. -1.
        -13    1    3    3    0    0  0.47320520158E+03  0.28881460402E+03  0.14337422975E+03  0.57261960153E+03  0.00000000000E+00 0.  1.
         22    1    1    2    0    0 -0.73960665843E+03 -0.53423856457E+03  0.85772425358E+02  0.91639825514E+03  0.00000000000E+00 0. -1.
<mgrwt>
<rscale>  0 0.18337372E+04</rscale>
<asrwt>0</asrwt>
<pdfrwt beam="1">  1        1 0.11982681E+00 0.18337372E+04</pdfrwt>
<pdfrwt beam="2">  1       -1 0.16604794E+00 0.18337372E+04</pdfrwt>
<totfact> 0.57148703E+00</totfact>
</mgrwt>
</event>
<event>
 6    1  0.9364335E-007  0.8216583E+04  0.7818608E-02  0.7463518E-01
          2   -1    0    0  501    0  0.00000000000E+00  0.00000000000E+00  0.35809186534E+04  0.35809186534E+04  0.00000000000E+00 0. -1.
         -2   -1    0    0    0  501 -0.00000000000E+00 -0.00000000000E+00 -0.47133319027E+04  0.47133319027E+04  0.00000000000E+00 0.  1.
         23    2    1    2    0    0  0.93903180740E+03  0.22344336003E+04  0.27813817193E+04  0.36907447935E+04  0.10506480225E+03 0.  0.
         13    1    3    3    0    0  0.43754917562E+03  0.10198909007E+04  0.13523766809E+04  0.17494426019E+04  0.00000000000E+00 0. -1.
        -13    1    3    3    0    0  0.50148263178E+03  0.12145426996E+04  0.14290050384E+04  0.19413021916E+04  0.00000000000E+00 0.  1.
         22    1    1    2    0    0 -0.93903180740E+03 -0.22344336003E+04 -0.39137949687E+04  0.46035057626E+04  0.00000000000E+00 0.  1.
<mgrwt>
<rscale>  0 0.82165828E+04</rscale>
<asrwt>0</asrwt>
<pdfrwt beam="1">  1        2 0.55091056E+00 0.82165828E+04</pdfrwt>
<pdfrwt beam="2">  1       -2 0.72512799E+00 0.82165828E+04</pdfrwt>
<totfact> 0.76230858E-05</totfact>
</mgrwt>
</event>
<event>
 6    1  0.9364335E-007  0.1669704E+04  0.7818608E-02  0.8778834E-01
         -4   -1    0    0    0  501 -0.00000000000E+00  0.00000000000E+00  0.14511851120E+04  0.14511851120E+04  0.00000000000E+00 0.  1.
          4   -1    0    0  501    0  0.00000000000E+00 -0.00000000000E+00 -0.48028195926E+03  0.48028195926E+03  0.00000000000E+00 0. -1.
         23    2    1    2    0    0 -0.39533889621E+03 -0.67610166074E+03  0.81229736270E+03  0.11323662671E+04  0.94973991072E+02 0.  0.
         11    1    3    3    0    0 -0.29177945831E+03 -0.54738321786E+03  0.59625909439E+03  0.86040022497E+03  0.00000000000E+00 0.  1.
        -11    1    3    3    0    0 -0.10355943790E+03 -0.12871844288E+03  0.21603826831E+03  0.27196604216E+03  0.00000000000E+00 0. -1.
         22    1    1    2    0    0  0.39533889621E+03  0.67610166074E+03  0.15860579003E+03  0.79910080412E+03  0.00000000000E+00 0. -1.
<mgrwt>
<rscale>  0 0.16697042E+04</rscale>
<asrwt>0</asrwt>
<pdfrwt beam="1">  1        4 0.73889533E-01 0.16697042E+04</pdfrwt>
<pdfrwt beam="2">  1       -4 0.22325925E+00 0.16697042E+04</pdfrwt>
<totfact> 0.29469263E-01</totfact>
</mgrwt>
</event>
<event>
 6    1  0.9364335E-007  0.2086740E+04  0.7818608E-02  0.8567107E-01
         -1   -1    0    0    0  501 -0.00000000000E+00  0.00000000000E+00  0.42279293730E+03  0.42279293730E+03  0.00000000000E+00 0.  1.
          1   -1    0    0  501    0  0.00000000000E+00 -0.00000000000E+00 -0.25748334518E+04  0.25748334518E+04  0.00000000000E+00 0. -1.
         23    2    1    2    0    0  0.21879257829E+03 -0.87711847903E+03 -0.33547971372E+03  0.96856252576E+03  0.91431446539E+02 0.  0.
         11    1    3    3    0    0  0.16903330293E+02 -0.15955631765E+03 -0.31339717418E+02  0.16348124958E+03  0.00000000000E+00 0. -1.
        -11    1    3    3    0    0  0.20188924799E+03 -0.71756216139E+03 -0.30413999630E+03  0.80508127618E+03  0.00000000000E+00 0.  1.
         22    1    1    2    0    0 -0.21879257829E+03  0.87711847903E+03 -0.18165608008E+04  0.20290638633E+04  0.00000000000E+00 0. -1.
<mgrwt>
<rscale>  0 0.20867404E+04</rscale>
<asrwt>0</asrwt>
<pdfrwt beam="1">  1        1 0.39612822E+00 0.20867404E+04</pdfrwt>
<pdfrwt beam="2">  1       -1 0.65045068E-01 0.20867404E+04</pdfrwt>
<totfact> 0.26521392E+00</totfact>
</mgrwt>
</event>
<event>
 6    1  0.9364335E-007  0.2142645E+04  0.7818608E-02  0.8542687E-01
          1   -1    0    0  501    0  0.00000000000E+00  0.00000000000E+00  0.16209904281E+04  0.16209904281E+04  0.00000000000E+00 0. -1.
         -1   -1    0    0    0  501 -0.00000000000E+00 -0.00000000000E+00 -0.70804372753E+03  0.70804372753E+03  0.00000000000E+00 0.  1.
         23    2    1    2    0    0 -0.34304240252E+03 -0.80216002829E+03  0.11294358279E+04  0.14301424252E+04  0.92429789503E+02 0.  0.
         11    1    3    3    0    0 -0.21847468372E+03 -0.48930087108E+03  0.76425260093E+03  0.93339625449E+03  0.00000000000E+00 0. -1.
        -11    1    3    3    0    0 -0.12456771880E+03 -0.31285915721E+03  0.36518322698E+03  0.49674617068E+03  0.00000000000E+00 0.  1.
         22    1    1    2    0    0  0.34304240252E+03  0.80216002829E+03 -0.21648912730E+03  0.89889173050E+03  0.00000000000E+00 0.  1.
<mgrwt>
<rscale>  0 0.21426452E+04</rscale>
<asrwt>0</asrwt>
<pdfrwt beam="1">  1        1 0.24938314E+00 0.21426452E+04</pdfrwt>
<pdfrwt beam="2">  1       -1 0.10892981E+00 0.21426452E+04</pdfrwt>
<totfact> 0.38627262E+00</totfact>
</mgrwt>
</event>
<event>
 6    1  0.9364335E-007  0.2217957E+04  0.7818608E-02  0.8510991E-01
          2   -1    0    0  501    0  0.00000000000E+00  0.00000000000E+00  0.22274243661E+04  0.22274243661E+04  0.00000000000E+00 0. -1.
         -2   -1    0    0    0  501 -0.00000000000E+00 -0.00000000000E+00 -0.55213253983E+03  0.55213253983E+03  0.00000000000E+00 0.  1.
         23    2    1    2    0    0  0.74250315752E+03 -0.34030888378E+03 -0.96665979314E+02  0.82841479423E+03  0.99023655987E+02 0.  0.
         11    1    3    3    0    0  0.57337244932E+03 -0.23158460352E+03 -0.40721426821E+02  0.61971415090E+03  0.00000000000E+00 0. -1.
        -11    1    3    3    0    0  0.16913070820E+03 -0.10872428025E+03 -0.55944552493E+02  0.20870064333E+03  0.00000000000E+00 0.  1.
         22    1    1    2    0    0 -0.74250315752E+03  0.34030888378E+03  0.17719578056E+04  0.19511421117E+04  0.00000000000E+00 0. -1.
<mgrwt>
<rscale>  0 0.22179571E+04</rscale>
<asrwt>0</asrwt>
<pdfrwt beam="1">  1        2 0.34268067E+00 0.22179571E+04</pdfrwt>
<pdfrwt beam="2">  1       -2 0.84943469E-01 0.22179571E+04</pdfrwt>
<totfact> 0.54878404E+00</totfact>
</mgrwt>
</event>
<event>
 6    1  0.9364335E-007  0.1662919E+04  0.7818608E-02  0.8782800E-01
          1   -1    0    0  501    0  0.00000000000E+00  0.00000000000E+00  0.18967175862E+04  0.18967175862E+04  0.00000000000E+00 0. -1.
         -1   -1    0    0    0  501 -0.00000000000E+00 -0.00000000000E+00 -0.36448510315E+03  0.36448510315E+03  0.00000000000E+00 0.  1.
         23    2    1    2    0    0 -0.80474510593E+03 -0.19291153249E+03  0.71298933554E+03  0.10967333340E+04  0.98186905298E+02 0.  0.
         11    1    3    3    0    0 -0.47784796578E+03 -0.11084131457E+03  0.35837522912E+03  0.60750084795E+03  0.00000000000E+00 0. -1.
        -11    1    3    3    0    0 -0.32689714015E+03 -0.82070217918E+02  0.35461410642E+03  0.48923248602E+03  0.00000000000E+00 0.  1.
         22    1    1    2    0    0  0.80474510593E+03  0.19291153249E+03  0.81924314752E+03  0.11644693554E+04  0.00000000000E+00 0. -1.
<mgrwt>
<rscale>  0 0.16629195E+04</rscale>
<asrwt>0</asrwt>
<pdfrwt beam="1">  1        1 0.29180270E+00 0.16629195E+04</pdfrwt>
<pdfrwt beam="2">  1       -1 0.56074632E-01 0.16629195E+04</pdfrwt>
<totfact> 0.10757658E+01</totfact>
</mgrwt>
</event>
<event>
 6    1  0.9364335E-007  0.3733325E+04  0.7818608E-02  0.8060617E-01
         -2   -1    0    0    0  501 -0.00000000000E+00  0.00000000000E+00  0.21021609394E+04  0.21021609394E+04  0.00000000000E+00 0.  1.
          2   -1    0    0  501    0  0.00000000000E+00 -0.00000000000E+00 -0.16575459030E+04  0.16575459030E+04  0.00000000000E+00 0. -1.
         23    2    1    2    0    0 -0.28494308966E+03  0.10508145630E+04  0.17476611271E+04  0.20616688791E+04  0.10370796457E+03 0.  0.
         11    1    3    3    0    0 -0.11542448009E+03  0.25424749233E+03  0.43652454369E+03  0.51818749040E+03  0.00000000000E+00 0.  1.
        -11    1    3    3    0    0 -0.16951860957E+03  0.79656707069E+03  0.13111365834E+04  0.15434813887E+04  0.00000000000E+00 0. -1.
         22    1    1    2    0    0  0.28494308966E+03 -0.10508145630E+04 -0.13030460906E+04  0.16980379632E+04  0.00000000000E+00 0. -1.
<mgrwt>
<rscale>  0 0.37333247E+04</rscale>
<asrwt>0</asrwt>
<pdfrwt beam="1">  1        2 0.25500706E+00 0.37333247E+04</pdfrwt>
<pdfrwt beam="2">  1       -2 0.32340938E+00 0.37333247E+04</pdfrwt>
<totfact> 0.19039654E-01</totfact>
</mgrwt>
</event>
<event>
 6    1  0.9364335E-007  0.2486771E+04  0.7818608E-02  0.8407714E-01
         -1   -1    0    0    0  501 -0.00000000000E+00  0.00000000000E+00  0.27875383382E+04  0.27875383382E+04  0.00000000000E+00 0.  1.
          1   -1    0    0  501    0  0.00000000000E+00 -0.00000000000E+00 -0.55461388396E+03  0.55461388396E+03  0.00000000000E+00 0. -1.
         23    2    1    2    0    0  0.15391352117E+03  0.12154205954E+04  0.13905508146E+04  0.18553671185E+04  0.88425000759E+02 0.  0.
         11    1    3    3    0    0  0.15197463697E+02  0.25994965168E+03  0.24916973436E+03  0.36040302556E+03  0.00000000000E+00 0. -1.
        -11    1    3    3    0    0  0.13871605747E+03  0.95547094371E+03  0.11413810803E+04  0.14949640930E+04  0.00000000000E+00 0.  1.
         22    1    1    2    0    0 -0.15391352117E+03 -0.12154205954E+04  0.84237363965E+03  0.14867851037E+04  0.00000000000E+00 0.  1.
<mgrwt>
<rscale>  0 0.24867710E+04</rscale>
<asrwt>0</asrwt>
<pdfrwt beam="1">  1        1 0.85325215E-01 0.24867710E+04</pdfrwt>
<pdfrwt beam="2">  1       -1 0.42885204E+00 0.24867710E+04</pdfrwt>
<totfact> 0.15439529E-01</totfact>
</mgrwt>
</event>
<event>
 6    1  0.9364335E-007  0.1294668E+04  0.7818608E-02  0.9033804E-01
          2   -1    0    0  501    0  0.00000000000E+00  0.00000000000E+00  0.24760361481E+04  0.24760361481E+04  0.00000000000E+00 0. -1.
         -2   -1    0    0    0  501 -0.00000000000E+00 -0.00000000000E+00 -0.16923874147E+03  0.16923874147E+03  0.00000000000E+00 0.  1.
         23    2    1    2    0    0 -0.54884804242E+03  0.14031090441E+03  0.17854321762E+04  0.18753768268E+04  0.91372113642E+02 0.  0.
         13    1    3    3    0    0 -0.39166673818E+03  0.74881941094E+02  0.11341621868E+04  0.12022204477E+04  0.00000000000E+00 0. -1.
        -13    1    3    3    0    0 -0.15718130424E+03  0.65428963316E+02  0.65126998933E+03  0.67315637904E+03  0.00000000000E+00 0.  1.
         22    1    1    2    0    0  0.54884804242E+03 -0.14031090441E+03  0.52136523047E+03  0.76989806280E+03  0.00000000000E+00 0. -1.
<mgrwt>
<rscale>  0 0.12946679E+04</rscale>
<asrwt>0</asrwt>
<pdfrwt beam="1">  1        2 0.38092861E+00 0.12946679E+04</pdfrwt>
<pdfrwt beam="2">  1       -2 0.26036731E-01 0.12946679E+04</pdfrwt>
<totfact> 0.47168847E+01</totfact>
</mgrwt>
</event>
<event>
 6    1  0.9364335E-007  0.3293002E+04  0.7818608E-02  0.8164678E-01
          2   -1    0    0  501    0  0.00000000000E+00  0.00000000000E+00  0.27512788974E+04  0.27512788974E+04  0.00000000000E+00 0. -1.
         -2   -1    0    0    0  501 -0.00000000000E+00 -0.00000000000E+00 -0.98534759630E+03  0.98534759630E+03  0.00000000000E+00 0.  1.
         23    2    1    2    0    0 -0.91971565345E+03 -0.74722005226E+03  0.21787466803E+04  0.24817833852E+04  0.89983243598E+02 0.  0.
         11    1    3    3    0    0 -0.65878152525E+03 -0.50092091775E+03  0.15843933596E+04  0.17875170438E+04  0.00000000000E+00 0. -1.
        -11    1    3    3    0    0 -0.26093412820E+03 -0.24629913451E+03  0.59435332073E+03  0.69426634139E+03  0.00000000000E+00 0.  1.
         22    1    1    2    0    0  0.91971565345E+03  0.74722005226E+03 -0.41281537924E+03  0.12548431085E+04  0.00000000000E+00 0.  1.
<mgrwt>
<rscale>  0 0.32930023E+04</rscale>
<asrwt>0</asrwt>
<pdfrwt beam="1">  1        2 0.42327367E+00 0.32930023E+04</pdfrwt>
<pdfrwt beam="2">  1       -2 0.15159194E+00 0.32930023E+04</pdfrwt>
<totfact> 0.60213849E-01</totfact>
</mgrwt>
</event>
<event>
 6    1  0.9364335E-007  0.2429580E+04  0.7818608E-02  0.8428512E-01
          2   -1    0    0  501    0  0.00000000000E+00  0.00000000000E+00  0.83270103136E+03  0.83270103136E+03  0.00000000000E+00 0. -1.
         -2   -1    0    0    0  501 -0.00000000000E+00 -0.00000000000E+00 -0.17722021637E+04  0.17722021637E+04  0.00000000000E+00 0.  1.
         23    2    1    2    0    0 -0.43350514650E+03 -0.11202965795E+04 -0.65135501874E+03  0.13695816496E+04  0.92192170842E+02 0.  0.
         13    1    3    3    0    0 -0.19497456572E+03 -0.48280616379E+03 -0.33377239009E+03  0.61848272527E+03  0.00000000000E+00 0. -1.
        -13    1    3    3    0    0 -0.23853058079E+03 -0.63749041570E+03 -0.31758262865E+03  0.75109892431E+03  0.00000000000E+00 0.  1.
         22    1    1    2    0    0  0.43350514650E+03  0.11202965795E+04 -0.28814611365E+03  0.12353215455E+04  0.00000000000E+00 0. -1.
<mgrwt>
<rscale>  0 0.24295799E+04</rscale>
<asrwt>0</asrwt>
<pdfrwt beam="1">  1        2 0.12810785E+00 0.24295799E+04</pdfrwt>
<pdfrwt beam="2">  1       -2 0.27264649E+00 0.24295799E+04</pdfrwt>
<totfact> 0.13672536E+00</totfact>
</mgrwt>
</event>
<event>
 6    1  0.9364335E-007  0.9288507E+03  0.7818608E-02  0.9390218E-01
          1   -1    0    0  501    0  0.00000000000E+00  0.00000000000E+00  0.10007423313E+04  0.10007423313E+04  0.00000000000E+00 0. -1.
         -1   -1    0    0    0  501 -0.00000000000E+00 -0.00000000000E+00 -0.21553089330E+03  0.21553089330E+03  0.00000000000E+00 0.  1.
         23    2    1    2    0    0 -0.45700533321E+03 -0.38415566315E+02  0.35816687184E+03  0.58961806283E+03  0.95059568730E+02 0.  0.
         11    1    3    3    0    0 -0.19219462861E+03  0.30333442585E+02  0.14034615775E+03  0.23990818452E+03  0.00000000000E+00 0. -1.
        -11    1    3    3    0    0 -0.26481070460E+03 -0.68749008900E+02  0.21782071409E+03  0.34970987830E+03  0.00000000000E+00 0.  1.
         22    1    1    2    0    0  0.45700533321E+03  0.38415566315E+02  0.42704456620E+03  0.62665516182E+03  0.00000000000E+00 0. -1.
<mgrwt>
<rscale>  0 0.92885066E+03</rscale>
<asrwt>0</asrwt>
<pdfrwt beam="1">  1        1 0.15396036E+00 0.92885066E+03</pdfrwt>
<pdfrwt beam="2">  1       -1 0.33158599E-01 0.92885066E+03</pdfrwt>
<totfact> 0.12980232E+02</totfact>
</mgrwt>
</event>
<event>
 6    1  0.9364335E-007  0.6164575E+03  0.7818608E-02  0.9871838E-01
         -2   -1    0    0    0  501 -0.00000000000E+00  0.00000000000E+00  0.33996883495E+02  0.33996883495E+02  0.00000000000E+00 0.  1.
          2   -1    0    0  501    0  0.00000000000E+00 -0.00000000000E+00 -0.27945201862E+04  0.27945201862E+04  0.00000000000E+00 0. -1.
         23    2    1    2    0    0 -0.12632305240E+03 -0.26965671584E+03 -0.11873073349E+04  0.12273672518E+04  0.89774190807E+02 0.  0.
         11    1    3    3    0    0  0.97151359775E+01 -0.49901430732E+02 -0.15151603437E+03  0.15981753761E+03  0.00000000000E+00 0. -1.
        -11    1    3    3    0    0 -0.13603818838E+03 -0.21975528510E+03 -0.10357913005E+04  0.10675497142E+04  0.00000000000E+00 0.  1.
         22    1    1    2    0    0  0.12632305240E+03  0.26965671584E+03 -0.15732159678E+04  0.16011498179E+04  0.00000000000E+00 0. -1.
<mgrwt>
<rscale>  0 0.61645755E+03</rscale>
<asrwt>0</asrwt>
<pdfrwt beam="1">  1        2 0.42992642E+00 0.61645755E+03</pdfrwt>
<pdfrwt beam="2">  1       -2 0.52302869E-02 0.61645755E+03</pdfrwt>
<totfact> 0.47619923E+02</totfact>
</mgrwt>
</event>
<event>
 6    1  0.9364335E-007  0.2677942E+04  0.7818608E-02  0.8342198E-01
          2   -1    0    0  501    0  0.00000000000E+00  0.00000000000E+00  0.44582475075E+03  0.44582475075E+03  0.00000000000E+00 0. -1.
         -2   -1    0    0    0  501 -0.00000000000E+00 -0.00000000000E+00 -0.40214093809E+04  0.40214093809E+04  0.00000000000E+00 0.  1.
         23    2    1    2    0    0  0.50267657282E+03 -0.45208057919E+03 -0.37151121746E+04  0.37769236779E+04  0.77675039736E+02 0.  0.
         11    1    3    3    0    0  0.41147079676E+03 -0.33535319951E+03 -0.27942386929E+04  0.28442116409E+04  0.00000000000E+00 0. -1.
        -11    1    3    3    0    0  0.91205776063E+02 -0.11672737968E+03 -0.92087348164E+03  0.93271203699E+03  0.00000000000E+00 0.  1.
         22    1    1    2    0    0 -0.50267657282E+03  0.45208057919E+03  0.13952754444E+03  0.69031045378E+03  0.00000000000E+00 0. -1.
<mgrwt>
<rscale>  0 0.26779424E+04</rscale>
<asrwt>0</asrwt>
<pdfrwt beam="1">  1        2 0.68588422E-01 0.26779424E+04</pdfrwt>
<pdfrwt beam="2">  1       -2 0.61867838E+00 0.26779424E+04</pdfrwt>
<totfact> 0.26225065E-02</totfact>
</mgrwt>
</event>
<event>
 6    1  0.9364335E-007  0.2884003E+04  0.7818608E-02  0.8277653E-01
         -2   -1    0    0    0  501 -0.00000000000E+00  0.00000000000E+00  0.14680554417E+04  0.14680554417E+04  0.00000000000E+00 0.  1.
          2   -1    0    0  501    0  0.00000000000E+00 -0.00000000000E+00 -0.14164095195E+04  0.14164095195E+04  0.00000000000E+00 0. -1.
         23    2    1    2    0    0 -0.53418945320E+03  0.74474237681E+02  0.13618979934E+04  0.14675439069E+04  0.89522008733E+02 0.  0.
         13    1    3    3    0    0 -0.35204695015E+03  0.26369437138E+02  0.98133679342E+03  0.10429066614E+04  0.00000000000E+00 0. -1.
        -13    1    3    3    0    0 -0.18214250305E+03  0.48104800543E+02  0.38056120001E+03  0.42463724543E+03  0.00000000000E+00 0.  1.
         22    1    1    2    0    0  0.53418945320E+03 -0.74474237681E+02 -0.13102520712E+04  0.14169210543E+04  0.00000000000E+00 0. -1.
<mgrwt>
<rscale>  0 0.28840026E+04</rscale>
<asrwt>0</asrwt>
<pdfrwt beam="1">  1        2 0.21790916E+00 0.28840026E+04</pdfrwt>
<pdfrwt beam="2">  1       -2 0.22585468E+00 0.28840026E+04</pdfrwt>
<totfact> 0.11109339E+00</totfact>
</mgrwt>
</event>
<event>
 6    1  0.9364335E-007  0.5085630E+04  0.7818608E-02  0.7815432E-01
          2   -1    0    0  501    0  0.00000000000E+00  0.00000000000E+00  0.21511955367E+04  0.21511955367E+04  0.00000000000E+00 0. -1.
         -2   -1    0    0    0  501 -0.00000000000E+00 -0.00000000000E+00 -0.30057279859E+04  0.30057279859E+04  0.00000000000E+00 0.  1.
         23    2    1    2    0    0  0.79312543327E+03 -0.19363772629E+04 -0.18909636789E+04  0.28218015662E+04  0.90639874430E+02 0.  0.
         13    1    3    3    0    0  0.36841523771E+03 -0.78303698793E+03 -0.77234543477E+03  0.11599112821E+04  0.00000000000E+00 0.  1.
        -13    1    3    3    0    0  0.42471019556E+03 -0.11533402750E+04 -0.11186182442E+04  0.16618902841E+04  0.00000000000E+00 0. -1.
         22    1    1    2    0    0 -0.79312543327E+03  0.19363772629E+04  0.10364312298E+04  0.23351219564E+04  0.00000000000E+00 0. -1.
<mgrwt>
<rscale>  0 0.50856302E+04</rscale>
<asrwt>0</asrwt>
<pdfrwt beam="1">  1        2 0.33095316E+00 0.50856302E+04</pdfrwt>
<pdfrwt beam="2">  1       -2 0.46241969E+00 0.50856302E+04</pdfrwt>
<totfact> 0.11476937E-02</totfact>
</mgrwt>
</event>
<event>
 6    1  0.9364335E-007  0.1076348E+04  0.7818608E-02  0.9228556E-01
          2   -1    0    0  501    0  0.00000000000E+00  0.00000000000E+00  0.34707873458E+03  0.34707873458E+03  0.00000000000E+00 0. -1.
         -2   -1    0    0    0  501 -0.00000000000E+00 -0.00000000000E+00 -0.83448291091E+03  0.83448291091E+03  0.00000000000E+00 0.  1.
         23    2    1    2    0    0  0.17204262928E+03 -0.46110717832E+03 -0.16764599231E+02  0.50059166985E+03  0.89958167798E+02 0.  0.
         11    1    3    3    0    0  0.16021156775E+03 -0.31647421369E+03 -0.21828047061E+02  0.35538730705E+03  0.00000000000E+00 0. -1.
        -11    1    3    3    0    0  0.11831061529E+02 -0.14463296463E+03  0.50634478297E+01  0.14520436280E+03  0.00000000000E+00 0.  1.
         22    1    1    2    0    0 -0.17204262928E+03  0.46110717832E+03 -0.47063957710E+03  0.68096997563E+03  0.00000000000E+00 0.  1.
<mgrwt>
<rscale>  0 0.10763480E+04</rscale>
<asrwt>0</asrwt>
<pdfrwt beam="1">  1        2 0.53396729E-01 0.10763480E+04</pdfrwt>
<pdfrwt beam="2">  1       -2 0.12838199E+00 0.10763480E+04</pdfrwt>
<totfact> 0.41549092E+01</totfact>
</mgrwt>
</event>
<event>
 6    1  0.9364335E-007  0.8260101E+03  0.7818608E-02  0.9523113E-01
          2   -1    0    0  501    0  0.00000000000E+00  0.00000000000E+00  0.81098734687E+03  0.81098734687E+03  0.00000000000E+00 0. -1.
         -2   -1    0    0    0  501 -0.00000000000E+00 -0.00000000000E+00 -0.21032778005E+03  0.21032778005E+03  0.00000000000E+00 0.  1.
         23    2    1    2    0    0  0.38243547571E+03 -0.10790171884E+03  0.41383744743E+03  0.58222267845E+03  0.99106712154E+02 0.  0.
         11    1    3    3    0    0  0.15946272840E+03 -0.26074367958E+01  0.20023673382E+03  0.25598810529E+03  0.00000000000E+00 0. -1.
        -11    1    3    3    0    0  0.22297274730E+03 -0.10529428204E+03  0.21360071361E+03  0.32623457316E+03  0.00000000000E+00 0.  1.
         22    1    1    2    0    0 -0.38243547571E+03  0.10790171884E+03  0.18682211939E+03  0.43909244847E+03  0.00000000000E+00 0.  1.
<mgrwt>
<rscale>  0 0.82601009E+03</rscale>
<asrwt>0</asrwt>
<pdfrwt beam="1">  1        2 0.12476728E+00 0.82601009E+03</pdfrwt>
<pdfrwt beam="2">  1       -2 0.32358121E-01 0.82601009E+03</pdfrwt>
<totfact> 0.30204414E+02</totfact>
</mgrwt>
</event>
<event>
 6    1  0.9364335E-007  0.1456684E+04  0.7818608E-02  0.8913780E-01
          1   -1    0    0  501    0  0.00000000000E+00  0.00000000000E+00  0.43114889215E+03  0.43114889215E+03  0.00000000000E+00 0. -1.
         -1   -1    0    0    0  501 -0.00000000000E+00 -0.00000000000E+00 -0.12303910024E+04  0.12303910024E+04  0.00000000000E+00 0.  1.
         23    2    1    2    0    0  0.30808914689E+02  0.43681094118E+03  0.25855803038E+03  0.51668439053E+03  0.91419455132E+02 0.  0.
         11    1    3    3    0    0  0.48964763594E+01  0.28222688606E+03  0.21250175833E+03  0.35331712100E+03  0.00000000000E+00 0. -1.
        -11    1    3    3    0    0  0.25912438330E+02  0.15458405512E+03  0.46056272053E+02  0.16336726953E+03  0.00000000000E+00 0.  1.
         22    1    1    2    0    0 -0.30808914689E+02 -0.43681094118E+03 -0.10578001407E+04  0.11448555040E+04  0.00000000000E+00 0.  1.
<mgrwt>
<rscale>  0 0.14566835E+04</rscale>
<asrwt>0</asrwt>
<pdfrwt beam="1">  1        1 0.66330598E-01 0.14566835E+04</pdfrwt>
<pdfrwt beam="2">  1       -1 0.18929093E+00 0.14566835E+04</pdfrwt>
<totfact> 0.94121141E+00</totfact>
</mgrwt>
</event>
<event>
 6    1  0.9364335E-007  0.2937740E+04  0.7818608E-02  0.8261736E-01
         -2   -1    0    0    0  501 -0.00000000000E+00  0.00000000000E+00  0.87361170777E+03  0.87361170777E+03  0.00000000000E+00 0.  1.
          2   -1    0    0  501    0  0.00000000000E+00 -0.00000000000E+00 -0.24697234330E+04  0.24697234330E+04  0.00000000000E+00 0. -1.
         23    2    1    2    0    0 -0.78296939268E+03 -0.32453683291E+03  0.56455258983E+03  0.10223794091E+04  0.90414621409E+02 0.  0.
         13    1    3    3    0    0 -0.48185100989E+03 -0.22532834708E+03  0.30902268744E+03  0.61518150255E+03  0.00000000000E+00 0. -1.
        -13    1    3    3    0    0 -0.30111838279E+03 -0.99208485827E+02  0.25552990239E+03  0.40719790659E+03  0.00000000000E+00 0.  1.
         22    1    1    2    0    0  0.78296939268E+03  0.32453683291E+03 -0.21606643150E+04  0.23209557316E+04  0.00000000000E+00 0. -1.
<mgrwt>
<rscale>  0 0.29377402E+04</rscale>
<asrwt>0</asrwt>
<pdfrwt beam="1">  1        2 0.37995744E+00 0.29377402E+04</pdfrwt>
<pdfrwt beam="2">  1       -2 0.13440180E+00 0.29377402E+04</pdfrwt>
<totfact> 0.12441070E+00</totfact>
</mgrwt>
</event>
<event>
 6    1  0.9364335E-007  0.1748453E+04  0.7818608E-02  0.8734202E-01
          2   -1    0    0  501    0  0.00000000000E+00  0.00000000000E+00  0.15851195970E+04  0.15851195970E+04  0.00000000000E+00 0. -1.
         -2   -1    0    0    0  501 -0.00000000000E+00 -0.00000000000E+00 -0.48215431146E+03  0.48215431146E+03  0.00000000000E+00 0.  1.
         23    2    1    2    0    0 -0.23327869500E+03  0.66962868546E+03 -0.46353154081E+02  0.71680939519E+03  0.94050880947E+02 0.  0.
         11    1    3    3    0    0 -0.76579693235E+02  0.18347726166E+03 -0.53820389036E+02  0.20597327312E+03  0.00000000000E+00 0. -1.
        -11    1    3    3    0    0 -0.15669900177E+03  0.48615142380E+03  0.74672349558E+01  0.51083612208E+03  0.00000000000E+00 0.  1.
         22    1    1    2    0    0  0.23327869500E+03 -0.66962868546E+03  0.11493184396E+04  0.13504645132E+04  0.00000000000E+00 0. -1.
<mgrwt>
<rscale>  0 0.17484533E+04</rscale>
<asrwt>0</asrwt>
<pdfrwt beam="1">  1        2 0.24386455E+00 0.17484533E+04</pdfrwt>
<pdfrwt beam="2">  1       -2 0.74177587E-01 0.17484533E+04</pdfrwt>
<totfact> 0.17632078E+01</totfact>
</mgrwt>
</event>
<event>
 6    1  0.9364335E-007  0.2424247E+04  0.7818608E-02  0.8430481E-01
          2   -1    0    0  501    0  0.00000000000E+00  0.00000000000E+00  0.11390738824E+04  0.11390738824E+04  0.00000000000E+00 0. -1.
         -2   -1    0    0    0  501 -0.00000000000E+00 -0.00000000000E+00 -0.12898578097E+04  0.12898578097E+04  0.00000000000E+00 0.  1.
         23    2    1    2    0    0 -0.31470561210E+03  0.10123349622E+04  0.50974453855E+03  0.11798682221E+04  0.91585092223E+02 0.  0.
         13    1    3    3    0    0 -0.10435677032E+03  0.39004935698E+03  0.14848510663E+03  0.43020537338E+03  0.00000000000E+00 0. -1.
        -13    1    3    3    0    0 -0.21034884178E+03  0.62228560518E+03  0.36125943192E+03  0.74966284876E+03  0.00000000000E+00 0.  1.
         22    1    1    2    0    0  0.31470561210E+03 -0.10123349622E+04 -0.66052846580E+03  0.12490634700E+04  0.00000000000E+00 0.  1.
<mgrwt>
<rscale>  0 0.24242470E+04</rscale>
<asrwt>0</asrwt>
<pdfrwt beam="1">  1        2 0.17524214E+00 0.24242470E+04</pdfrwt>
<pdfrwt beam="2">  1       -2 0.19843966E+00 0.24242470E+04</pdfrwt>
<totfact> 0.25193919E+00</totfact>
</mgrwt>
</event>
<event>
 6    1  0.9364335E-007  0.7502099E+03  0.7818608E-02  0.9635021E-01
          2   -1    0    0  501    0  0.00000000000E+00  0.00000000000E+00  0.16001354347E+04  0.16001354347E+04  0.00000000000E+00 0. -1.
         -2   -1    0    0    0  501 -0.00000000000E+00 -0.00000000000E+00 -0.87932382446E+02  0.87932382446E+02  0.00000000000E+00 0.  1.
         23    2    1    2    0    0  0.23165783051E+03  0.28808030134E+03  0.74238446833E+03  0.83409108291E+03  0.88981039130E+02 0.  0.
         13    1    3    3    0    0  0.14262500518E+03  0.17872141969E+03  0.35942073241E+03  0.42598885061E+03  0.00000000000E+00 0.  1.
        -13    1    3    3    0    0  0.89032825330E+02  0.10935888165E+03  0.38296373592E+03  0.40810223230E+03  0.00000000000E+00 0. -1.
         22    1    1    2    0    0 -0.23165783051E+03 -0.28808030134E+03  0.76981858393E+03  0.85397673424E+03  0.00000000000E+00 0.  1.
<mgrwt>
<rscale>  0 0.75020989E+03</rscale>
<asrwt>0</asrwt>
<pdfrwt beam="1">  1        2 0.24617466E+00 0.75020989E+03</pdfrwt>
<pdfrwt beam="2">  1       -2 0.13528060E-01 0.75020989E+03</pdfrwt>
<totfact> 0.47152010E+02</totfact>
</mgrwt>
</event>
<event>
 6    1  0.9364335E-007  0.9652136E+03  0.7818608E-02  0.9347543E-01
         -1   -1    0    0    0  501 -0.00000000000E+00  0.00000000000E+00  0.33747417845E+03  0.33747417845E+03  0.00000000000E+00 0.  1.
          1   -1    0    0  501    0  0.00000000000E+00 -0.00000000000E+00 -0.69015456707E+03  0.69015456707E+03  0.00000000000E+00 0. -1.
         23    2    1    2    0    0 -0.55541922890E+02 -0.21713653561E+03  0.27186649142E+03  0.36408373147E+03  0.91719104185E+02 0.  0.
         13    1    3    3    0    0 -0.79092859330E+02 -0.13844321103E+03  0.16725367067E+03  0.23107573094E+03  0.00000000000E+00 0. -1.
        -13    1    3    3    0    0  0.23550936440E+02 -0.78693324581E+02  0.10461282075E+03  0.13300800054E+03  0.00000000000E+00 0.  1.
         22    1    1    2    0    0  0.55541922890E+02  0.21713653561E+03 -0.62454688004E+03  0.66354501404E+03  0.00000000000E+00 0. -1.
<mgrwt>
<rscale>  0 0.96521365E+03</rscale>
<asrwt>0</asrwt>
<pdfrwt beam="1">  1        1 0.10617763E+00 0.96521365E+03</pdfrwt>
<pdfrwt beam="2">  1       -1 0.51919104E-01 0.96521365E+03</pdfrwt>
<totfact> 0.10441407E+02</totfact>
</mgrwt>
</event>
<event>
 6    1  0.9364335E-007  0.1850822E+04  0.7818608E-02  0.8679730E-01
         -1   -1    0    0    0  501 -0.00000000000E+00  0.00000000000E+00  0.12895085943E+04  0.12895085943E+04  0.00000000000E+00 0.  1.
          1   -1    0    0  501    0  0.00000000000E+00 -0.00000000000E+00 -0.66411748341E+03  0.66411748341E+03  0.00000000000E+00 0. -1.
         23    2    1    2    0    0 -0.86406476034E+03  0.22282105759E+03  0.56361739373E+03  0.10591580090E+04  0.88848116410E+02 0.  0.
         11    1    3    3    0    0 -0.55534268357E+03  0.18530962989E+03  0.35482176499E+03  0.68457551814E+03  0.00000000000E+00 0.  1.
        -11    1    3    3    0    0 -0.30872207678E+03  0.37511427696E+02  0.20879562874E+03  0.37458249088E+03  0.00000000000E+00 0. -1.
         22    1    1    2    0    0  0.86406476034E+03 -0.22282105759E+03  0.61773717160E+02  0.89446806869E+03  0.00000000000E+00 0. -1.
<mgrwt>
<rscale>  0 0.18508217E+04</rscale>
<asrwt>0</asrwt>
<pdfrwt beam="1">  1        1 0.10217192E+00 0.18508217E+04</pdfrwt>
<pdfrwt beam="2">  1       -1 0.19838594E+00 0.18508217E+04</pdfrwt>
<totfact> 0.42787818E+00</totfact>
</mgrwt>
</event>
<event>
 6    1  0.9364335E-007  0.1893635E+04  0.7818608E-02  0.8658031E-01
         -1   -1    0    0    0  501 -0.00000000000E+00  0.00000000000E+00  0.27129828440E+03  0.27129828440E+03  0.00000000000E+00 0.  1.
          1   -1    0    0  501    0  0.00000000000E+00 -0.00000000000E+00 -0.33043473433E+04  0.33043473433E+04  0.00000000000E+00 0. -1.
         23    2    1    2    0    0  0.77096657787E+03  0.37764405325E+03 -0.22636640486E+04  0.24228413125E+04  0.94766055524E+02 0.  0.
         13    1    3    3    0    0  0.26866305594E+03  0.10789722554E+03 -0.87639495782E+03  0.92297874894E+03  0.00000000000E+00 0. -1.
        -13    1    3    3    0    0  0.50230352194E+03  0.26974682771E+03 -0.13872690908E+04  0.14998625635E+04  0.00000000000E+00 0.  1.
         22    1    1    2    0    0 -0.77096657787E+03 -0.37764405325E+03 -0.76938501028E+03  0.11528043152E+04  0.00000000000E+00 0.  1.
<mgrwt>
<rscale>  0 0.18936354E+04</rscale>
<asrwt>0</asrwt>
<pdfrwt beam="1">  1        1 0.50836116E+00 0.18936354E+04</pdfrwt>
<pdfrwt beam="2">  1       -1 0.41738195E-01 0.18936354E+04</pdfrwt>
<totfact> 0.18764277E+00</totfact>
</mgrwt>
</event>
<event>
 6    1  0.9364335E-007  0.2469374E+04  0.7818608E-02  0.8413978E-01
         -2   -1    0    0    0  501 -0.00000000000E+00  0.00000000000E+00  0.94878658060E+03  0.94878658060E+03  0.00000000000E+00 0.  1.
          2   -1    0    0  501    0  0.00000000000E+00 -0.00000000000E+00 -0.16067384054E+04  0.16067384054E+04  0.00000000000E+00 0. -1.
         23    2    1    2    0    0  0.60863384163E+02  0.12238120737E+04 -0.47100769582E+03  0.13160216780E+04  0.92975609717E+02 0.  0.
         11    1    3    3    0    0  0.32564630752E+02  0.34917432440E+03 -0.93270745844E+02  0.36288096675E+03  0.00000000000E+00 0.  1.
        -11    1    3    3    0    0  0.28298753411E+02  0.87463774933E+03 -0.37773694998E+03  0.95314071121E+03  0.00000000000E+00 0. -1.
         22    1    1    2    0    0 -0.60863384163E+02 -0.12238120737E+04 -0.18694412902E+03  0.12395033081E+04  0.00000000000E+00 0. -1.
<mgrwt>
<rscale>  0 0.24693739E+04</rscale>
<asrwt>0</asrwt>
<pdfrwt beam="1">  1        2 0.24719053E+00 0.24693739E+04</pdfrwt>
<pdfrwt beam="2">  1       -2 0.14596717E+00 0.24693739E+04</pdfrwt>
<totfact> 0.31834750E+00</totfact>
</mgrwt>
</event>
<event>
 6    1  0.9364335E-007  0.9254173E+03  0.7818608E-02  0.9394355E-01
         -2   -1    0    0    0  501 -0.00000000000E+00  0.00000000000E+00  0.40637035492E+03  0.40637035492E+03  0.00000000000E+00 0.  1.
          2   -1    0    0  501    0  0.00000000000E+00 -0.00000000000E+00 -0.52685756024E+03  0.52685756024E+03  0.00000000000E+00 0. -1.
         23    2    1    2    0    0  0.35130778516E+02 -0.35179595536E+03 -0.35496779704E+03  0.50899246909E+03  0.89870077590E+02 0.  0.
         13    1    3    3    0    0  0.38337166800E+02 -0.33620251088E+03 -0.30153517214E+03  0.45323870832E+03  0.00000000000E+00 0.  1.
        -13    1    3    3    0    0 -0.32063882845E+01 -0.15593444483E+02 -0.53432624895E+02  0.55753760768E+02  0.00000000000E+00 0. -1.
         22    1    1    2    0    0 -0.35130778516E+02  0.35179595536E+03  0.23448059172E+03  0.42423544607E+03  0.00000000000E+00 0.  1.
<mgrwt>
<rscale>  0 0.92541730E+03</rscale>
<asrwt>0</asrwt>
<pdfrwt beam="1">  1        2 0.81055009E-01 0.92541730E+03</pdfrwt>
<pdfrwt beam="2">  1       -2 0.62518516E-01 0.92541730E+03</pdfrwt>
<totfact> 0.13783836E+02</totfact>
</mgrwt>
</event>
<event>
 6    1  0.9364335E-007  0.5694572E+03  0.7818608E-02  0.9970881E-01
          2   -1    0    0  501    0  0.00000000000E+00  0.00000000000E+00  0.53171618939E+03  0.53171618939E+03  0.00000000000E+00 0. -1.
         -2   -1    0    0    0  501 -0.00000000000E+00 -0.00000000000E+00 -0.15246924847E+03  0.15246924847E+03  0.00000000000E+00 0.  1.
         23    2    1    2    0    0 -0.27339737765E+03  0.47279786973E+02  0.18676105041E+03  0.34649871557E+03  0.90554765655E+02 0.  0.
         11    1    3    3    0    0 -0.16481164429E+03 -0.49332663061E+01  0.71369507272E+02  0.17966864440E+03  0.00000000000E+00 0. -1.
        -11    1    3    3    0    0 -0.10858573335E+03  0.52213053279E+02  0.11539154314E+03  0.16683007118E+03  0.00000000000E+00 0.  1.
         22    1    1    2    0    0  0.27339737765E+03 -0.47279786973E+02  0.19248589051E+03  0.33768672228E+03  0.00000000000E+00 0. -1.
<mgrwt>
<rscale>  0 0.56945717E+03</rscale>
<asrwt>0</asrwt>
<pdfrwt beam="1">  1        2 0.81802490E-01 0.56945717E+03</pdfrwt>
<pdfrwt beam="2">  1       -2 0.23456808E-01 0.56945717E+03</pdfrwt>
<totfact> 0.92468850E+02</totfact>
</mgrwt>
</event>
<event>
 6    1  0.9364335E-007  0.1415525E+04  0.7818608E-02  0.8942657E-01
         -2   -1    0    0    0  501 -0.00000000000E+00  0.00000000000E+00  0.47682449827E+03  0.47682449827E+03  0.00000000000E+00 0.  1.
          2   -1    0    0  501    0  0.00000000000E+00 -0.00000000000E+00 -0.10505497629E+04  0.10505497629E+04  0.00000000000E+00 0. -1.
         23    2    1    2    0    0  0.32266441827E+02 -0.21104304960E+03 -0.10120746903E+04  0.10397981020E+04  0.10632319629E+03 0.  0.
         11    1    3    3    0    0 -0.36208211559E+02 -0.10086127716E+03 -0.51864126787E+03  0.52959682453E+03  0.00000000000E+00 0. -1.
        -11    1    3    3    0    0  0.68474653386E+02 -0.11018177244E+03 -0.49343342246E+03  0.51020127747E+03  0.00000000000E+00 0.  1.
         22    1    1    2    0    0 -0.32266441827E+02  0.21104304960E+03  0.43834942566E+03  0.48757615921E+03  0.00000000000E+00 0.  1.
<mgrwt>
<rscale>  0 0.14155252E+04</rscale>
<asrwt>0</asrwt>
<pdfrwt beam="1">  1        2 0.16162304E+00 0.14155252E+04</pdfrwt>
<pdfrwt beam="2">  1       -2 0.73357617E-01 0.14155252E+04</pdfrwt>
<totfact> 0.38143812E+01</totfact>
</mgrwt>
</event>
<event>
 6    1  0.9364335E-007  0.8434918E+03  0.7818608E-02  0.9499114E-01
         -2   -1    0    0    0  501 -0.00000000000E+00  0.00000000000E+00  0.17917488102E+03  0.17917488102E+03  0.00000000000E+00 0.  1.
          2   -1    0    0  501    0  0.00000000000E+00 -0.00000000000E+00 -0.99271509153E+03  0.99271509153E+03  0.00000000000E+00 0. -1.
         23    2    1    2    0    0  0.30668484781E+02 -0.27214733775E+03  0.24913138995E+02  0.28984193038E+03  0.91558455135E+02 0.  0.
         13    1    3    3    0    0  0.57514769615E+02 -0.17635204812E+03 -0.62204040644E+01  0.18559818702E+03  0.00000000000E+00 0. -1.
        -13    1    3    3    0    0 -0.26846284834E+02 -0.95795289635E+02  0.31133543059E+02  0.10424374336E+03  0.00000000000E+00 0.  1.
         22    1    1    2    0    0 -0.30668484781E+02  0.27214733775E+03 -0.83845334950E+03  0.88204804217E+03  0.00000000000E+00 0. -1.
<mgrwt>
<rscale>  0 0.84349181E+03</rscale>
<asrwt>0</asrwt>
<pdfrwt beam="1">  1        2 0.15272540E+00 0.84349181E+03</pdfrwt>
<pdfrwt beam="2">  1       -2 0.27565366E-01 0.84349181E+03</pdfrwt>
<totfact> 0.30637417E+02</totfact>
</mgrwt>
</event>
<event>
 6    1  0.9364335E-007  0.2842552E+04  0.7818608E-02  0.8290178E-01
         -2   -1    0    0    0  501 -0.00000000000E+00  0.00000000000E+00  0.16673463416E+04  0.16673463416E+04  0.00000000000E+00 0.  1.
          2   -1    0    0  501    0  0.00000000000E+00 -0.00000000000E+00 -0.12115210544E+04  0.12115210544E+04  0.00000000000E+00 0. -1.
         23    2    1    2    0    0 -0.12905319581E+04 -0.31730825486E+02  0.82580303529E+03  0.15359738357E+04  0.10385273516E+03 0.  0.
         11    1    3    3    0    0 -0.62026394077E+03 -0.32660249629E+02  0.45525279862E+03  0.77009685026E+03  0.00000000000E+00 0.  1.
        -11    1    3    3    0    0 -0.67026801735E+03  0.92942414270E+00  0.37055023667E+03  0.76587698543E+03  0.00000000000E+00 0. -1.
         22    1    1    2    0    0  0.12905319581E+04  0.31730825486E+02 -0.36997774805E+03  0.13428935603E+04  0.00000000000E+00 0. -1.
<mgrwt>
<rscale>  0 0.28425518E+04</rscale>
<asrwt>0</asrwt>
<pdfrwt beam="1">  1        2 0.18638785E+00 0.28425518E+04</pdfrwt>
<pdfrwt beam="2">  1       -2 0.25651482E+00 0.28425518E+04</pdfrwt>
<totfact> 0.94737456E-01</totfact>
</mgrwt>
</event>
<event>
 6    1  0.9364335E-007  0.3270749E+04  0.7818608E-02  0.8170378E-01
         -2   -1    0    0    0  501 -0.00000000000E+00  0.00000000000E+00  0.12815948511E+04  0.12815948511E+04  0.00000000000E+00 0.  1.
          2   -1    0    0  501    0  0.00000000000E+00 -0.00000000000E+00 -0.20868140999E+04  0.20868140999E+04  0.00000000000E+00 0. -1.
         23    2    1    2    0    0 -0.16225895263E+04 -0.23753370878E+02 -0.20482331552E+03  0.16381383739E+04  0.90464070097E+02 0.  0.
         11    1    3    3    0    0 -0.59525286484E+03  0.27078005439E+02 -0.10025163028E+03  0.60424298163E+03  0.00000000000E+00 0. -1.
        -11    1    3    3    0    0 -0.10273366614E+04 -0.50831376318E+02 -0.10457168524E+03  0.10338953923E+04  0.00000000000E+00 0.  1.
         22    1    1    2    0    0  0.16225895263E+04  0.23753370878E+02 -0.60039593325E+03  0.17302705771E+04  0.00000000000E+00 0. -1.
<mgrwt>
<rscale>  0 0.32707493E+04</rscale>
<asrwt>0</asrwt>
<pdfrwt beam="1">  1        2 0.32104832E+00 0.32707493E+04</pdfrwt>
<pdfrwt beam="2">  1       -2 0.19716844E+00 0.32707493E+04</pdfrwt>
<totfact> 0.69473109E-01</totfact>
</mgrwt>
</event>
<event>
 6    1  0.9364335E-007  0.2586822E+04  0.7818608E-02  0.8372691E-01
         -1   -1    0    0    0  501 -0.00000000000E+00  0.00000000000E+00  0.56093759002E+03  0.56093759002E+03  0.00000000000E+00 0.  1.
          1   -1    0    0  501    0  0.00000000000E+00 -0.00000000000E+00 -0.29823503601E+04  0.29823503601E+04  0.00000000000E+00 0. -1.
         23    2    1    2    0    0 -0.97016694779E+03 -0.57866864303E+03 -0.35405645698E+03  0.11874349347E+04  0.92544283349E+02 0.  0.
         11    1    3    3    0    0 -0.55380347982E+03 -0.32002391150E+03 -0.15314560588E+03  0.65769839197E+03  0.00000000000E+00 0.  1.
        -11    1    3    3    0    0 -0.41636346797E+03 -0.25864473153E+03 -0.20091085110E+03  0.52973654272E+03  0.00000000000E+00 0. -1.
         22    1    1    2    0    0  0.97016694779E+03  0.57866864303E+03 -0.20673563131E+04  0.23558530155E+04  0.00000000000E+00 0. -1.
<mgrwt>
<rscale>  0 0.25868223E+04</rscale>
<asrwt>0</asrwt>
<pdfrwt beam="1">  1        1 0.45882314E+00 0.25868223E+04</pdfrwt>
<pdfrwt beam="2">  1       -1 0.86298089E-01 0.25868223E+04</pdfrwt>
<totfact> 0.71900488E-01</totfact>
</mgrwt>
</event>
<event>
 6    1  0.9364335E-007  0.3350872E+03  0.7818608E-02  0.1068908E+00
         -3   -1    0    0    0  501 -0.00000000000E+00  0.00000000000E+00  0.57866148624E+03  0.57866148624E+03  0.00000000000E+00 0.  1.
          3   -1    0    0  501    0  0.00000000000E+00 -0.00000000000E+00 -0.48509995284E+02  0.48509995284E+02  0.00000000000E+00 0. -1.
         23    2    1    2    0    0 -0.20646003747E+02 -0.13226946583E+03  0.43143031225E+03  0.46083645759E+03  0.91195708526E+02 0.  0.
         13    1    3    3    0    0 -0.55109709167E+02 -0.58801610835E+02  0.20236931309E+03  0.21782572934E+03  0.00000000000E+00 0. -1.
        -13    1    3    3    0    0  0.34463705420E+02 -0.73467854994E+02  0.22906099917E+03  0.24301072826E+03  0.00000000000E+00 0.  1.
         22    1    1    2    0    0  0.20646003747E+02  0.13226946583E+03  0.98721178698E+02  0.16633502393E+03  0.00000000000E+00 0. -1.
<mgrwt>
<rscale>  0 0.33508725E+03</rscale>
<asrwt>0</asrwt>
<pdfrwt beam="1">  1        3 0.74630766E-02 0.33508725E+03</pdfrwt>
<pdfrwt beam="2">  1       -3 0.89024839E-01 0.33508725E+03</pdfrwt>
<totfact> 0.36249653E+02</totfact>
</mgrwt>
</event>
<event>
 6    1  0.9364335E-007  0.2816312E+04  0.7818608E-02  0.8298222E-01
          2   -1    0    0  501    0  0.00000000000E+00  0.00000000000E+00  0.12540283728E+04  0.12540283728E+04  0.00000000000E+00 0. -1.
         -2   -1    0    0    0  501 -0.00000000000E+00 -0.00000000000E+00 -0.15812266647E+04  0.15812266647E+04  0.00000000000E+00 0.  1.
         23    2    1    2    0    0  0.21950259563E+03 -0.10584531097E+04  0.74147441200E+03  0.13152005243E+04  0.10706885949E+03 0.  0.
         11    1    3    3    0    0  0.94387530826E+02 -0.27220318512E+03  0.16225824821E+03  0.33065286794E+03  0.00000000000E+00 0.  1.
        -11    1    3    3    0    0  0.12511506481E+03 -0.78624992456E+03  0.57921616379E+03  0.98454765639E+03  0.00000000000E+00 0. -1.
         22    1    1    2    0    0 -0.21950259563E+03  0.10584531097E+04 -0.10686727039E+04  0.15200545131E+04  0.00000000000E+00 0.  1.
<mgrwt>
<rscale>  0 0.28163118E+04</rscale>
<asrwt>0</asrwt>
<pdfrwt beam="1">  1        2 0.19292744E+00 0.28163118E+04</pdfrwt>
<pdfrwt beam="2">  1       -2 0.24326564E+00 0.28163118E+04</pdfrwt>
<totfact> 0.10808880E+00</totfact>
</mgrwt>
</event>
<event>
 6    1  0.9364335E-007  0.1562976E+04  0.7818608E-02  0.8843622E-01
          2   -1    0    0  501    0  0.00000000000E+00  0.00000000000E+00  0.72170800316E+03  0.72170800316E+03  0.00000000000E+00 0. -1.
         -2   -1    0    0    0  501 -0.00000000000E+00 -0.00000000000E+00 -0.84622001515E+03  0.84622001515E+03  0.00000000000E+00 0.  1.
         23    2    1    2    0    0  0.28629648269E+03  0.48677843732E+03 -0.60022981276E+03  0.82953357832E+03  0.94505060091E+02 0.  0.
         11    1    3    3    0    0  0.75267357544E+02  0.21784585221E+03 -0.25390846621E+03  0.34291617000E+03  0.00000000000E+00 0. -1.
        -11    1    3    3    0    0  0.21102912515E+03  0.26893258511E+03 -0.34632134655E+03  0.48661740831E+03  0.00000000000E+00 0.  1.
         22    1    1    2    0    0 -0.28629648269E+03 -0.48677843732E+03  0.47571780077E+03  0.73839443999E+03  0.00000000000E+00 0.  1.
<mgrwt>
<rscale>  0 0.15629763E+04</rscale>
<asrwt>0</asrwt>
<pdfrwt beam="1">  1        2 0.11103200E+00 0.15629763E+04</pdfrwt>
<pdfrwt beam="2">  1       -2 0.13018769E+00 0.15629763E+04</pdfrwt>
<totfact> 0.16393764E+01</totfact>
</mgrwt>
</event>
<event>
 6    1  0.9364335E-007  0.1818948E+04  0.7818608E-02  0.8696287E-01
         -1   -1    0    0    0  501 -0.00000000000E+00  0.00000000000E+00  0.67236965043E+03  0.67236965043E+03  0.00000000000E+00 0.  1.
          1   -1    0    0  501    0  0.00000000000E+00 -0.00000000000E+00 -0.12301911635E+04  0.12301911635E+04  0.00000000000E+00 0. -1.
         23    2    1    2    0    0 -0.68401952482E+03 -0.57347692190E+03 -0.10993887259E+03  0.90388301305E+03  0.90329703268E+02 0.  0.
         13    1    3    3    0    0 -0.58348389218E+03 -0.45958372202E+03 -0.11648502384E+03  0.75182405572E+03  0.00000000000E+00 0. -1.
        -13    1    3    3    0    0 -0.10053563264E+03 -0.11389319988E+03  0.65461512500E+01  0.15205895733E+03  0.00000000000E+00 0.  1.
         22    1    1    2    0    0  0.68401952482E+03  0.57347692190E+03 -0.44788264047E+03  0.99867780086E+03  0.00000000000E+00 0. -1.
<mgrwt>
<rscale>  0 0.18189483E+04</rscale>
<asrwt>0</asrwt>
<pdfrwt beam="1">  1        1 0.18926018E+00 0.18189483E+04</pdfrwt>
<pdfrwt beam="2">  1       -1 0.10344149E+00 0.18189483E+04</pdfrwt>
<totfact> 0.84359525E+00</totfact>
</mgrwt>
</event>
<event>
 6    1  0.9364335E-007  0.2566084E+04  0.7818608E-02  0.8379814E-01
         -1   -1    0    0    0  501 -0.00000000000E+00  0.00000000000E+00  0.23095175925E+04  0.23095175925E+04  0.00000000000E+00 0.  1.
          1   -1    0    0  501    0  0.00000000000E+00 -0.00000000000E+00 -0.71278837107E+03  0.71278837107E+03  0.00000000000E+00 0. -1.
         23    2    1    2    0    0  0.51132012848E+03  0.42352707852E+03  0.20902145767E+04  0.21950507092E+04  0.91799668435E+02 0.  0.
         11    1    3    3    0    0  0.25644966502E+03  0.18938422789E+03  0.11413902390E+04  0.11850757335E+04  0.00000000000E+00 0. -1.
        -11    1    3    3    0    0  0.25487046346E+03  0.23414285063E+03  0.94882433778E+03  0.10099749757E+04  0.00000000000E+00 0.  1.
         22    1    1    2    0    0 -0.51132012848E+03 -0.42352707852E+03 -0.49348535528E+03  0.82725525439E+03  0.00000000000E+00 0. -1.
<mgrwt>
<rscale>  0 0.25660844E+04</rscale>
<asrwt>0</asrwt>
<pdfrwt beam="1">  1        1 0.10965975E+00 0.25660844E+04</pdfrwt>
<pdfrwt beam="2">  1       -1 0.35531039E+00 0.25660844E+04</pdfrwt>
<totfact> 0.33540255E-01</totfact>
</mgrwt>
</event>
<event>
 6    1  0.9364335E-007  0.2728544E+04  0.7818608E-02  0.8325802E-01
         -2   -1    0    0    0  501 -0.00000000000E+00  0.00000000000E+00  0.22616017158E+04  0.22616017158E+04  0.00000000000E+00 0.  1.
          2   -1    0    0  501    0  0.00000000000E+00 -0.00000000000E+00 -0.82297347814E+03  0.82297347814E+03  0.00000000000E+00 0. -1.
         23    2    1    2    0    0  0.25795417622E+03 -0.95452165322E+03 -0.34019390214E+03  0.10494191438E+04  0.88863405273E+02 0.  0.
         13    1    3    3    0    0  0.19135371413E+03 -0.68080858962E+03 -0.20095414900E+03  0.73518647268E+03  0.00000000000E+00 0.  1.
        -13    1    3    3    0    0  0.66600462091E+02 -0.27371306360E+03 -0.13923975314E+03  0.31423267110E+03  0.00000000000E+00 0. -1.
         22    1    1    2    0    0 -0.25795417622E+03  0.95452165322E+03  0.17788221398E+04  0.20351560502E+04  0.00000000000E+00 0.  1.
<mgrwt>
<rscale>  0 0.27285441E+04</rscale>
<asrwt>0</asrwt>
<pdfrwt beam="1">  1        2 0.12661131E+00 0.27285441E+04</pdfrwt>
<pdfrwt beam="2">  1       -2 0.34793872E+00 0.27285441E+04</pdfrwt>
<totfact> 0.46532782E-01</totfact>
</mgrwt>
</event>
<event>
 6    1  0.9364335E-007  0.3235856E+04  0.7818608E-02  0.8179411E-01
          1   -1    0    0  501    0  0.00000000000E+00  0.00000000000E+00  0.15759309605E+04  0.15759309605E+04  0.00000000000E+00 0. -1.
         -1   -1    0    0    0  501 -0.00000000000E+00 -0.00000000000E+00 -0.16610441810E+04  0.16610441810E+04  0.00000000000E+00 0.  1.
         23    2    1    2    0    0 -0.15896525345E+04  0.28598143209E+03 -0.11037417318E+03  0.16216056248E+04  0.92961198546E+02 0.  0.
         13    1    3    3    0    0 -0.49039261379E+03  0.50601384829E+02 -0.12172325948E+02  0.49314661240E+03  0.00000000000E+00 0. -1.
        -13    1    3    3    0    0 -0.10992599207E+04  0.23538004726E+03 -0.98201847228E+02  0.11284590124E+04  0.00000000000E+00 0.  1.
         22    1    1    2    0    0  0.15896525345E+04 -0.28598143209E+03  0.25260952750E+02  0.16153695167E+04  0.00000000000E+00 0. -1.
<mgrwt>
<rscale>  0 0.32358560E+04</rscale>
<asrwt>0</asrwt>
<pdfrwt beam="1">  1        1 0.24245092E+00 0.32358560E+04</pdfrwt>
<pdfrwt beam="2">  1       -1 0.25554526E+00 0.32358560E+04</pdfrwt>
<totfact> 0.31015494E-01</totfact>
</mgrwt>
</event>
<event>
 6    1  0.9364335E-007  0.1716270E+04  0.7818608E-02  0.8752139E-01
          2   -1    0    0  501    0  0.00000000000E+00  0.00000000000E+00  0.22915997930E+04  0.22915997930E+04  0.00000000000E+00 0. -1.
         -2   -1    0    0    0  501 -0.00000000000E+00 -0.00000000000E+00 -0.32134571730E+03  0.32134571730E+03  0.00000000000E+00 0.  1.
         23    2    1    2    0    0 -0.16026169156E+03 -0.42989537619E+03 -0.11196270727E+03  0.48078215456E+03  0.90122073183E+02 0.  0.
         11    1    3    3    0    0 -0.47220156459E+02 -0.25467756665E+03 -0.64632053184E+02  0.26696012517E+03  0.00000000000E+00 0. -1.
        -11    1    3    3    0    0 -0.11304153510E+03 -0.17521780954E+03 -0.47330654083E+02  0.21382202939E+03  0.00000000000E+00 0.  1.
         22    1    1    2    0    0  0.16026169156E+03  0.42989537619E+03  0.20822167830E+04  0.21321633557E+04  0.00000000000E+00 0. -1.
<mgrwt>
<rscale>  0 0.17162701E+04</rscale>
<asrwt>0</asrwt>
<pdfrwt beam="1">  1        2 0.35255380E+00 0.17162701E+04</pdfrwt>
<pdfrwt beam="2">  1       -2 0.49437804E-01 0.17162701E+04</pdfrwt>
<totfact> 0.16881682E+01</totfact>
</mgrwt>
</event>
<event>
 6    1  0.9364335E-007  0.1513161E+04  0.7818608E-02  0.8875748E-01
         -2   -1    0    0    0  501 -0.00000000000E+00  0.00000000000E+00  0.33667579131E+03  0.33667579131E+03  0.00000000000E+00 0.  1.
          2   -1    0    0  501    0  0.00000000000E+00 -0.00000000000E+00 -0.17001925622E+04  0.17001925622E+04  0.00000000000E+00 0. -1.
         23    2    1    2    0    0  0.18825753757E+03 -0.72368637157E+03 -0.55440366429E+03  0.93513023394E+03  0.89119395220E+02 0.  0.
         11    1    3    3    0    0  0.96855728274E+01 -0.18026335027E+03 -0.14817285231E+03  0.23354631218E+03  0.00000000000E+00 0.  1.
        -11    1    3    3    0    0  0.17857196474E+03 -0.54342302130E+03 -0.40623081198E+03  0.70158392176E+03  0.00000000000E+00 0. -1.
         22    1    1    2    0    0 -0.18825753757E+03  0.72368637157E+03 -0.80911310661E+03  0.11017381196E+04  0.00000000000E+00 0.  1.
<mgrwt>
<rscale>  0 0.15131605E+04</rscale>
<asrwt>0</asrwt>
<pdfrwt beam="1">  1        2 0.26156809E+00 0.15131605E+04</pdfrwt>
<pdfrwt beam="2">  1       -2 0.51796275E-01 0.15131605E+04</pdfrwt>
<totfact> 0.33308834E+01</totfact>
</mgrwt>
</event>
<event>
 6    1  0.9364335E-007  0.1783449E+04  0.7818608E-02  0.8715151E-01
          2   -1    0    0  501    0  0.00000000000E+00  0.00000000000E+00  0.21777394978E+04  0.21777394978E+04  0.00000000000E+00 0. -1.
         -2   -1    0    0    0  501 -0.00000000000E+00 -0.00000000000E+00 -0.36513649890E+03  0.36513649890E+03  0.00000000000E+00 0.  1.
         23    2    1    2    0    0 -0.64160215339E+03 -0.35452346998E+02  0.17854418054E+04  0.18997213321E+04  0.90711117750E+02 0.  0.
         11    1    3    3    0    0 -0.39100036243E+03  0.10480607101E+02  0.98972790194E+03  0.10642144739E+04  0.00000000000E+00 0. -1.
        -11    1    3    3    0    0 -0.25060179096E+03 -0.45932954099E+02  0.79571390349E+03  0.83550685821E+03  0.00000000000E+00 0.  1.
         22    1    1    2    0    0  0.64160215339E+03  0.35452346998E+02  0.27161193439E+02  0.64315466458E+03  0.00000000000E+00 0.  1.
<mgrwt>
<rscale>  0 0.17834485E+04</rscale>
<asrwt>0</asrwt>
<pdfrwt beam="1">  1        2 0.33503684E+00 0.17834485E+04</pdfrwt>
<pdfrwt beam="2">  1       -2 0.56174847E-01 0.17834485E+04</pdfrwt>
<totfact> 0.14950640E+01</totfact>
</mgrwt>
</event>
<event>
 6    1  0.9364335E-007  0.2985549E+04  0.7818608E-02  0.8247870E-01
         -2   -1    0    0    0  501 -0.00000000000E+00  0.00000000000E+00  0.74354979613E+03  0.74354979613E+03  0.00000000000E+00 0.  1.
          2   -1    0    0  501    0  0.00000000000E+00 -0.00000000000E+00 -0.29969419160E+04  0.29969419160E+04  0.00000000000E+00 0. -1.
         23    2    1    2    0    0  0.13184400049E+04 -0.30799119785E+03 -0.34424342933E+03  0.13999807963E+04  0.91104703806E+02 0.  0.
         13    1    3    3    0    0  0.13690289860E+03 -0.54090206960E+01 -0.44017906007E+02  0.14390704360E+03  0.00000000000E+00 0. -1.
        -13    1    3    3    0    0  0.11815371063E+04 -0.30258217716E+03 -0.30022552332E+03  0.12560737527E+04  0.00000000000E+00 0.  1.
         22    1    1    2    0    0 -0.13184400049E+04  0.30799119785E+03 -0.19091486905E+04  0.23405109158E+04  0.00000000000E+00 0. -1.
<mgrwt>
<rscale>  0 0.29855489E+04</rscale>
<asrwt>0</asrwt>
<pdfrwt beam="1">  1        2 0.46106799E+00 0.29855489E+04</pdfrwt>
<pdfrwt beam="2">  1       -2 0.11439228E+00 0.29855489E+04</pdfrwt>
<totfact> 0.89476808E-01</totfact>
</mgrwt>
</event>
<event>
 6    1  0.9364335E-007  0.1863187E+04  0.7818608E-02  0.8673401E-01
         -2   -1    0    0    0  501 -0.00000000000E+00  0.00000000000E+00  0.12362136455E+04  0.12362136455E+04  0.00000000000E+00 0.  1.
          2   -1    0    0  501    0  0.00000000000E+00 -0.00000000000E+00 -0.70203587152E+03  0.70203587152E+03  0.00000000000E+00 0. -1.
         23    2    1    2    0    0 -0.85226667070E+03 -0.34516037016E+03  0.40804520098E+03  0.10101312136E+04  0.91487832730E+02 0.  0.
         11    1    3    3    0    0 -0.63259613711E+03 -0.29664881259E+03  0.29603133856E+03  0.75882339454E+03  0.00000000000E+00 0.  1.
        -11    1    3    3    0    0 -0.21967053359E+03 -0.48511557566E+02  0.11201386243E+03  0.25130781906E+03  0.00000000000E+00 0. -1.
         22    1    1    2    0    0  0.85226667070E+03  0.34516037016E+03  0.12613257296E+03  0.92811830338E+03  0.00000000000E+00 0. -1.
<mgrwt>
<rscale>  0 0.18631869E+04</rscale>
<asrwt>0</asrwt>
<pdfrwt beam="1">  1        2 0.10800552E+00 0.18631869E+04</pdfrwt>
<pdfrwt beam="2">  1       -2 0.19018671E+00 0.18631869E+04</pdfrwt>
<totfact> 0.59221986E+00</totfact>
</mgrwt>
</event>
<event>
 6    1  0.9364335E-007  0.1450790E+04  0.7818608E-02  0.8917853E-01
         -2   -1    0    0    0  501 -0.00000000000E+00  0.00000000000E+00  0.50069820488E+03  0.50069820488E+03  0.00000000000E+00 0.  1.
          2   -1    0    0  501    0  0.00000000000E+00 -0.00000000000E+00 -0.10509282186E+04  0.10509282186E+04  0.00000000000E+00 0. -1.
         23    2    1    2    0    0  0.44245214494E+03  0.52428337079E+03 -0.51875654701E+03  0.86487498914E+03  0.90903456010E+02 0.  0.
         11    1    3    3    0    0  0.22427268520E+03  0.21804696737E+03 -0.19431078006E+03  0.36823823342E+03  0.00000000000E+00 0.  1.
        -11    1    3    3    0    0  0.21817945974E+03  0.30623640342E+03 -0.32444576696E+03  0.49663675572E+03  0.00000000000E+00 0. -1.
         22    1    1    2    0    0 -0.44245214494E+03 -0.52428337079E+03 -0.31473466696E+02  0.68675143434E+03  0.00000000000E+00 0.  1.
<mgrwt>
<rscale>  0 0.14507900E+04</rscale>
<asrwt>0</asrwt>
<pdfrwt beam="1">  1        2 0.16168126E+00 0.14507900E+04</pdfrwt>
<pdfrwt beam="2">  1       -2 0.77030493E-01 0.14507900E+04</pdfrwt>
<totfact> 0.34115903E+01</totfact>
</mgrwt>
</event>
<event>
 6    1  0.9364335E-007  0.2712011E+04  0.7818608E-02  0.8331118E-01
          1   -1    0    0  501    0  0.00000000000E+00  0.00000000000E+00  0.15773487766E+04  0.15773487766E+04  0.00000000000E+00 0. -1.
         -1   -1    0    0    0  501 -0.00000000000E+00 -0.00000000000E+00 -0.11657225144E+04  0.11657225144E+04  0.00000000000E+00 0.  1.
         23    2    1    2    0    0  0.25474446980E+03  0.85899623202E+03  0.12334927454E+04  0.15272449105E+04  0.90572580373E+02 0.  0.
         11    1    3    3    0    0  0.15366743137E+03  0.50227657822E+03  0.79729695670E+03  0.95476587583E+03  0.00000000000E+00 0. -1.
        -11    1    3    3    0    0  0.10107703843E+03  0.35671965379E+03  0.43619578867E+03  0.57247903468E+03  0.00000000000E+00 0.  1.
         22    1    1    2    0    0 -0.25474446980E+03 -0.85899623202E+03 -0.82186648309E+03  0.12158263805E+04  0.00000000000E+00 0.  1.
<mgrwt>
<rscale>  0 0.27120110E+04</rscale>
<asrwt>0</asrwt>
<pdfrwt beam="1">  1        1 0.24266904E+00 0.27120110E+04</pdfrwt>
<pdfrwt beam="2">  1       -1 0.17934193E+00 0.27120110E+04</pdfrwt>
<totfact> 0.10615094E+00</totfact>
</mgrwt>
</event>
<event>
 6    1  0.9364335E-007  0.3369211E+04  0.7818608E-02  0.8145505E-01
          2   -1    0    0  501    0  0.00000000000E+00  0.00000000000E+00  0.31457303119E+04  0.31457303119E+04  0.00000000000E+00 0. -1.
         -2   -1    0    0    0  501 -0.00000000000E+00 -0.00000000000E+00 -0.90214197408E+03  0.90214197408E+03  0.00000000000E+00 0.  1.
         23    2    1    2    0    0 -0.51237762809E+03 -0.56754698790E+03  0.29242767713E+04  0.30241647298E+04  0.97658899115E+02 0.  0.
         13    1    3    3    0    0 -0.31462263453E+02 -0.14521907350E+02  0.20254022619E+03  0.20548309672E+03  0.00000000000E+00 0.  1.
        -13    1    3    3    0    0 -0.48091536464E+03 -0.55302508055E+03  0.27217365451E+04  0.28186816331E+04  0.00000000000E+00 0. -1.
         22    1    1    2    0    0  0.51237762809E+03  0.56754698790E+03 -0.68068843344E+03  0.10237075562E+04  0.00000000000E+00 0.  1.
<mgrwt>
<rscale>  0 0.33692108E+04</rscale>
<asrwt>0</asrwt>
<pdfrwt beam="1">  1        2 0.48395850E+00 0.33692108E+04</pdfrwt>
<pdfrwt beam="2">  1       -2 0.13879107E+00 0.33692108E+04</pdfrwt>
<totfact> 0.42866607E-01</totfact>
</mgrwt>
</event>
<event>
 6    1  0.9364335E-007  0.6509662E+03  0.7818608E-02  0.9804968E-01
         -3   -1    0    0    0  501 -0.00000000000E+00  0.00000000000E+00  0.45973162970E+03  0.45973162970E+03  0.00000000000E+00 0.  1.
          3   -1    0    0  501    0  0.00000000000E+00 -0.00000000000E+00 -0.23043713727E+03  0.23043713727E+03  0.00000000000E+00 0. -1.
         23    2    1    2    0    0  0.13382956212E+03  0.27748624961E+03  0.29339245923E+02  0.32289356902E+03  0.92143882832E+02 0.  0.
         11    1    3    3    0    0  0.11251694018E+03  0.13913591395E+03  0.36915600786E+02  0.18270639277E+03  0.00000000000E+00 0. -1.
        -11    1    3    3    0    0  0.21312621937E+02  0.13835033567E+03 -0.75763548622E+01  0.14018717625E+03  0.00000000000E+00 0.  1.
         22    1    1    2    0    0 -0.13382956212E+03 -0.27748624961E+03  0.19995524651E+03  0.36727519794E+03  0.00000000000E+00 0.  1.
<mgrwt>
<rscale>  0 0.65096618E+03</rscale>
<asrwt>0</asrwt>
<pdfrwt beam="1">  1        3 0.35451867E-01 0.65096618E+03</pdfrwt>
<pdfrwt beam="2">  1       -3 0.70727943E-01 0.65096618E+03</pdfrwt>
<totfact> 0.39529051E+01</totfact>
</mgrwt>
</event>
<event>
 6    1  0.9364335E-007  0.6266296E+03  0.7818608E-02  0.9851648E-01
          1   -1    0    0  501    0  0.00000000000E+00  0.00000000000E+00  0.48918414773E+03  0.48918414773E+03  0.00000000000E+00 0. -1.
         -1   -1    0    0    0  501 -0.00000000000E+00 -0.00000000000E+00 -0.20067324313E+03  0.20067324313E+03  0.00000000000E+00 0.  1.
         23    2    1    2    0    0 -0.16096351004E+03 -0.24573285140E+03  0.23241373881E+03  0.39079088014E+03  0.11138886922E+03 0.  0.
         11    1    3    3    0    0 -0.41241588199E+01 -0.91575338194E+02  0.46331595272E+02  0.10271157662E+03  0.00000000000E+00 0.  1.
        -11    1    3    3    0    0 -0.15683935122E+03 -0.15415751321E+03  0.18608214354E+03  0.28807930352E+03  0.00000000000E+00 0. -1.
         22    1    1    2    0    0  0.16096351004E+03  0.24573285140E+03  0.56097165786E+02  0.29906651072E+03  0.00000000000E+00 0.  1.
<mgrwt>
<rscale>  0 0.62662962E+03</rscale>
<asrwt>0</asrwt>
<pdfrwt beam="1">  1        1 0.75259099E-01 0.62662962E+03</pdfrwt>
<pdfrwt beam="2">  1       -1 0.30872807E-01 0.62662962E+03</pdfrwt>
<totfact> 0.44809262E+02</totfact>
</mgrwt>
</event>
<event>
 6    1  0.9364335E-007  0.1769429E+04  0.7818608E-02  0.8722728E-01
         -1   -1    0    0    0  501 -0.00000000000E+00  0.00000000000E+00  0.11767739343E+04  0.11767739343E+04  0.00000000000E+00 0.  1.
          1   -1    0    0  501    0  0.00000000000E+00 -0.00000000000E+00 -0.66514033173E+03  0.66514033173E+03  0.00000000000E+00 0. -1.
         23    2    1    2    0    0  0.64231513593E+03 -0.26808474789E+03 -0.30816089175E+03  0.76650681823E+03  0.90174282868E+02 0.  0.
         11    1    3    3    0    0  0.12652635832E+03 -0.49918778494E+02 -0.10088992678E+03  0.16935046833E+03  0.00000000000E+00 0.  1.
        -11    1    3    3    0    0  0.51578877761E+03 -0.21816596940E+03 -0.20727096497E+03  0.59715634990E+03  0.00000000000E+00 0. -1.
         22    1    1    2    0    0 -0.64231513593E+03  0.26808474789E+03  0.81979449436E+03  0.10754074479E+04  0.00000000000E+00 0.  1.
<mgrwt>
<rscale>  0 0.17694291E+04</rscale>
<asrwt>0</asrwt>
<pdfrwt beam="1">  1        1 0.10232928E+00 0.17694291E+04</pdfrwt>
<pdfrwt beam="2">  1       -1 0.18104214E+00 0.17694291E+04</pdfrwt>
<totfact> 0.56944474E+00</totfact>
</mgrwt>
</event>
<event>
 6    1  0.9364335E-007  0.1833503E+04  0.7818608E-02  0.8688683E-01
         -2   -1    0    0    0  501 -0.00000000000E+00  0.00000000000E+00  0.87418240237E+03  0.87418240237E+03  0.00000000000E+00 0.  1.
          2   -1    0    0  501    0  0.00000000000E+00 -0.00000000000E+00 -0.96139313457E+03  0.96139313457E+03  0.00000000000E+00 0. -1.
         23    2    1    2    0    0  0.22060998493E+03 -0.38882366944E+03 -0.84231776513E+03  0.95805673796E+03  0.92308636229E+02 0.  0.
         11    1    3    3    0    0  0.13745787515E+03 -0.15570267364E+03 -0.42018301845E+03  0.46871287481E+03  0.00000000000E+00 0. -1.
        -11    1    3    3    0    0  0.83152109784E+02 -0.23312099581E+03 -0.42213474668E+03  0.48934386315E+03  0.00000000000E+00 0.  1.
         22    1    1    2    0    0 -0.22060998493E+03  0.38882366944E+03  0.75510703294E+03  0.87751879898E+03  0.00000000000E+00 0.  1.
<mgrwt>
<rscale>  0 0.18335026E+04</rscale>
<asrwt>0</asrwt>
<pdfrwt beam="1">  1        2 0.14790664E+00 0.18335026E+04</pdfrwt>
<pdfrwt beam="2">  1       -2 0.13448960E+00 0.18335026E+04</pdfrwt>
<totfact> 0.10008322E+01</totfact>
</mgrwt>
</event>
<event>
 6    1  0.9364335E-007  0.1961571E+04  0.7818608E-02  0.8624801E-01
         -2   -1    0    0    0  501 -0.00000000000E+00  0.00000000000E+00  0.39228142698E+03  0.39228142698E+03  0.00000000000E+00 0.  1.
          2   -1    0    0  501    0  0.00000000000E+00 -0.00000000000E+00 -0.24521673512E+04  0.24521673512E+04  0.00000000000E+00 0. -1.
         23    2    1    2    0    0 -0.68152350933E+03  0.30374822285E+03 -0.19510021147E+04  0.20903977450E+04  0.81340051269E+02 0.  0.
         13    1    3    3    0    0 -0.42244897436E+03  0.22424111253E+03 -0.13033802269E+04  0.13883613465E+04  0.00000000000E+00 0.  1.
        -13    1    3    3    0    0 -0.25907453497E+03  0.79507110314E+02 -0.64762188782E+03  0.70203639852E+03  0.00000000000E+00 0. -1.
         22    1    1    2    0    0  0.68152350933E+03 -0.30374822285E+03 -0.10888380948E+03  0.75405103316E+03  0.00000000000E+00 0.  1.
<mgrwt>
<rscale>  0 0.19615705E+04</rscale>
<asrwt>0</asrwt>
<pdfrwt beam="1">  1        2 0.37725652E+00 0.19615705E+04</pdfrwt>
<pdfrwt beam="2">  1       -2 0.60350988E-01 0.19615705E+04</pdfrwt>
<totfact> 0.88497884E+00</totfact>
</mgrwt>
</event>
<event>
 6    1  0.9364335E-007  0.2211567E+04  0.7818608E-02  0.8513629E-01
          2   -1    0    0  501    0  0.00000000000E+00  0.00000000000E+00  0.15929407496E+04  0.15929407496E+04  0.00000000000E+00 0. -1.
         -2   -1    0    0    0  501 -0.00000000000E+00 -0.00000000000E+00 -0.76760965833E+03  0.76760965833E+03  0.00000000000E+00 0.  1.
         23    2    1    2    0    0  0.79900532703E+03 -0.64778332866E+03 -0.14072011009E+02  0.10329095222E+04  0.93119847254E+02 0.  0.
         11    1    3    3    0    0  0.48469304562E+03 -0.34234309655E+03 -0.32026569273E+02  0.59426580363E+03  0.00000000000E+00 0. -1.
        -11    1    3    3    0    0  0.31431228141E+03 -0.30544023211E+03  0.17954558263E+02  0.43864371852E+03  0.00000000000E+00 0.  1.
         22    1    1    2    0    0 -0.79900532703E+03  0.64778332866E+03  0.83940310231E+03  0.13276408858E+04  0.00000000000E+00 0.  1.
<mgrwt>
<rscale>  0 0.22115666E+04</rscale>
<asrwt>0</asrwt>
<pdfrwt beam="1">  1        2 0.24506781E+00 0.22115666E+04</pdfrwt>
<pdfrwt beam="2">  1       -2 0.11809379E+00 0.22115666E+04</pdfrwt>
<totfact> 0.56788505E+00</totfact>
</mgrwt>
</event>
<event>
 6    1  0.9364335E-007  0.1069954E+04  0.7818608E-02  0.9234981E-01
         -2   -1    0    0    0  501 -0.00000000000E+00  0.00000000000E+00  0.94110391618E+02  0.94110391618E+02  0.00000000000E+00 0.  1.
          2   -1    0    0  501    0  0.00000000000E+00 -0.00000000000E+00 -0.30411163160E+04  0.30411163160E+04  0.00000000000E+00 0. -1.
         23    2    1    2    0    0 -0.44409419461E+03 -0.28553470514E+03 -0.13159963271E+04  0.14208924264E+04  0.91319399786E+02 0.  0.
         11    1    3    3    0    0 -0.55620135457E+02 -0.46632953382E+02 -0.27427328692E+03  0.28371476474E+03  0.00000000000E+00 0. -1.
        -11    1    3    3    0    0 -0.38847405915E+03 -0.23890175175E+03 -0.10417230402E+04  0.11371776616E+04  0.00000000000E+00 0.  1.
         22    1    1    2    0    0  0.44409419461E+03  0.28553470514E+03 -0.16310095972E+04  0.17143342812E+04  0.00000000000E+00 0.  1.
<mgrwt>
<rscale>  0 0.10699545E+04</rscale>
<asrwt>0</asrwt>
<pdfrwt beam="1">  1        2 0.46786399E+00 0.10699545E+04</pdfrwt>
<pdfrwt beam="2">  1       -2 0.14478524E-01 0.10699545E+04</pdfrwt>
<totfact> 0.62130810E+01</totfact>
</mgrwt>
</event>
<event>
 6    1  0.9364335E-007  0.3740938E+04  0.7818608E-02  0.8058949E-01
          1   -1    0    0  501    0  0.00000000000E+00  0.00000000000E+00  0.16099722227E+04  0.16099722227E+04  0.00000000000E+00 0. -1.
         -1   -1    0    0    0  501 -0.00000000000E+00 -0.00000000000E+00 -0.21731149642E+04  0.21731149642E+04  0.00000000000E+00 0.  1.
         23    2    1    2    0    0  0.41708921849E+03  0.13747284571E+04  0.92777788603E+03  0.17126558153E+04  0.92608794753E+02 0.  0.
         11    1    3    3    0    0  0.19273308677E+03  0.77645507447E+03  0.54062156838E+03  0.96555694063E+03  0.00000000000E+00 0. -1.
        -11    1    3    3    0    0  0.22435613172E+03  0.59827338260E+03  0.38715631766E+03  0.74709887463E+03  0.00000000000E+00 0.  1.
         22    1    1    2    0    0 -0.41708921849E+03 -0.13747284571E+04 -0.14909206276E+04  0.20704313716E+04  0.00000000000E+00 0. -1.
<mgrwt>
<rscale>  0 0.37409382E+04</rscale>
<asrwt>0</asrwt>
<pdfrwt beam="1">  1        1 0.24768804E+00 0.37409382E+04</pdfrwt>
<pdfrwt beam="2">  1       -1 0.33432538E+00 0.37409382E+04</pdfrwt>
<totfact> 0.86578482E-02</totfact>
</mgrwt>
</event>
<event>
 6    1  0.9364335E-007  0.2186006E+04  0.7818608E-02  0.8524275E-01
         -3   -1    0    0    0  501 -0.00000000000E+00  0.00000000000E+00  0.30304084808E+04  0.30304084808E+04  0.00000000000E+00 0.  1.
          3   -1    0    0  501    0  0.00000000000E+00 -0.00000000000E+00 -0.39422272335E+03  0.39422272335E+03  0.00000000000E+00 0. -1.
         23    2    1    2    0    0 -0.10413275685E+04 -0.30808580145E+03  0.11620593829E+04  0.15936946858E+04  0.10099889322E+03 0.  0.
         11    1    3    3    0    0 -0.19795162425E+03 -0.78382789562E+02  0.28161794987E+03  0.35304019167E+03  0.00000000000E+00 0.  1.
        -11    1    3    3    0    0 -0.84337594421E+03 -0.22970301189E+03  0.88044143302E+03  0.12406544942E+04  0.00000000000E+00 0. -1.
         22    1    1    2    0    0  0.10413275685E+04  0.30808580145E+03  0.14741263746E+04  0.18309365183E+04  0.00000000000E+00 0.  1.
<mgrwt>
<rscale>  0 0.21860063E+04</rscale>
<asrwt>0</asrwt>
<pdfrwt beam="1">  1        3 0.60649652E-01 0.21860063E+04</pdfrwt>
<pdfrwt beam="2">  1       -3 0.46621667E+00 0.21860063E+04</pdfrwt>
<totfact> 0.29246567E-02</totfact>
</mgrwt>
</event>
<event>
 6    1  0.9364335E-007  0.3530273E+04  0.7818608E-02  0.8106653E-01
          2   -1    0    0  501    0  0.00000000000E+00  0.00000000000E+00  0.35999641317E+04  0.35999641317E+04  0.00000000000E+00 0. -1.
         -2   -1    0    0    0  501 -0.00000000000E+00 -0.00000000000E+00 -0.86548292985E+03  0.86548292985E+03  0.00000000000E+00 0.  1.
         23    2    1    2    0    0 -0.15827505863E+04 -0.35223120218E+03  0.22468191846E+04  0.27722310442E+04  0.88894746047E+02 0.  0.
         11    1    3    3    0    0 -0.31752586333E+03 -0.91793259239E+02  0.50909018707E+03  0.60697734298E+03  0.00000000000E+00 0. -1.
        -11    1    3    3    0    0 -0.12652247230E+04 -0.26043794294E+03  0.17377289976E+04  0.21652537012E+04  0.00000000000E+00 0.  1.
         22    1    1    2    0    0  0.15827505863E+04  0.35223120218E+03  0.48766201724E+03  0.16932160173E+04  0.00000000000E+00 0.  1.
<mgrwt>
<rscale>  0 0.35302734E+04</rscale>
<asrwt>0</asrwt>
<pdfrwt beam="1">  1        2 0.55384063E+00 0.35302734E+04</pdfrwt>
<pdfrwt beam="2">  1       -2 0.13315122E+00 0.35302734E+04</pdfrwt>
<totfact> 0.23084771E-01</totfact>
</mgrwt>
</event>
<event>
 6    1  0.9364335E-007  0.3873367E+04  0.7818608E-02  0.8030591E-01
          1   -1    0    0  501    0  0.00000000000E+00  0.00000000000E+00  0.27255873559E+04  0.27255873559E+04  0.00000000000E+00 0. -1.
         -1   -1    0    0    0  501 -0.00000000000E+00 -0.00000000000E+00 -0.13761230428E+04  0.13761230428E+04  0.00000000000E+00 0.  1.
         23    2    1    2    0    0  0.18602710452E+04  0.34324347374E+03  0.24139652207E+03  0.19093968552E+04  0.95391957660E+02 0.  0.
         13    1    3    3    0    0  0.53798695900E+03  0.10500630466E+03  0.26809761540E+02  0.54879418309E+03  0.00000000000E+00 0.  1.
        -13    1    3    3    0    0  0.13222840862E+04  0.23823716908E+03  0.21458676053E+03  0.13606026721E+04  0.00000000000E+00 0. -1.
         22    1    1    2    0    0 -0.18602710452E+04 -0.34324347374E+03  0.11080677910E+04  0.21923135436E+04  0.00000000000E+00 0. -1.
<mgrwt>
<rscale>  0 0.38733673E+04</rscale>
<asrwt>0</asrwt>
<pdfrwt beam="1">  1        1 0.41932113E+00 0.38733673E+04</pdfrwt>
<pdfrwt beam="2">  1       -1 0.21171124E+00 0.38733673E+04</pdfrwt>
<totfact> 0.93157279E-02</totfact>
</mgrwt>
</event>
<event>
 6    1  0.9364335E-007  0.2187944E+04  0.7818608E-02  0.8523463E-01
          2   -1    0    0  501    0  0.00000000000E+00  0.00000000000E+00  0.18004143023E+04  0.18004143023E+04  0.00000000000E+00 0. -1.
         -2   -1    0    0    0  501 -0.00000000000E+00 -0.00000000000E+00 -0.66472182348E+03  0.66472182348E+03  0.00000000000E+00 0.  1.
         23    2    1    2    0    0  0.39945677048E+03  0.10152052441E+04  0.51370644011E+03  0.12093200439E+04  0.91396185983E+02 0.  0.
         13    1    3    3    0    0  0.31628876829E+03  0.70933067103E+03  0.33937268283E+03  0.84756262522E+03  0.00000000000E+00 0. -1.
        -13    1    3    3    0    0  0.83168002197E+02  0.30587457308E+03  0.17433375728E+03  0.36175741869E+03  0.00000000000E+00 0.  1.
         22    1    1    2    0    0 -0.39945677048E+03 -0.10152052441E+04  0.62198603871E+03  0.12558160819E+04  0.00000000000E+00 0.  1.
<mgrwt>
<rscale>  0 0.21879439E+04</rscale>
<asrwt>0</asrwt>
<pdfrwt beam="1">  1        2 0.27698681E+00 0.21879439E+04</pdfrwt>
<pdfrwt beam="2">  1       -2 0.10226490E+00 0.21879439E+04</pdfrwt>
<totfact> 0.61791056E+00</totfact>
</mgrwt>
</event>
<event>
 6    1  0.9364335E-007  0.2049173E+04  0.7818608E-02  0.8583970E-01
          4   -1    0    0  501    0  0.00000000000E+00  0.00000000000E+00  0.70058022000E+03  0.70058022000E+03  0.00000000000E+00 0. -1.
         -4   -1    0    0    0  501 -0.00000000000E+00 -0.00000000000E+00 -0.14984397682E+04  0.14984397682E+04  0.00000000000E+00 0.  1.
         23    2    1    2    0    0 -0.46528954194E+03  0.66984593378E+03  0.26209848649E+03  0.86159747899E+03  0.92014489898E+02 0.  0.
         13    1    3    3    0    0 -0.39742457110E+03  0.51268478653E+03  0.22353826949E+03  0.68612049815E+03  0.00000000000E+00 0. -1.
        -13    1    3    3    0    0 -0.67864970836E+02  0.15716114725E+03  0.38560217004E+02  0.17547698085E+03  0.00000000000E+00 0.  1.
         22    1    1    2    0    0  0.46528954194E+03 -0.66984593378E+03 -0.10599580347E+04  0.13374225092E+04  0.00000000000E+00 0.  1.
<mgrwt>
<rscale>  0 0.20491728E+04</rscale>
<asrwt>0</asrwt>
<pdfrwt beam="1">  1        4 0.10778157E+00 0.20491728E+04</pdfrwt>
<pdfrwt beam="2">  1       -4 0.23052919E+00 0.20491728E+04</pdfrwt>
<totfact> 0.10666488E-01</totfact>
</mgrwt>
</event>
<event>
 6    1  0.9364335E-007  0.2321031E+04  0.7818608E-02  0.8469675E-01
          1   -1    0    0  501    0  0.00000000000E+00  0.00000000000E+00  0.83331995275E+03  0.83331995275E+03  0.00000000000E+00 0. -1.
         -1   -1    0    0    0  501 -0.00000000000E+00 -0.00000000000E+00 -0.16161812058E+04  0.16161812058E+04  0.00000000000E+00 0.  1.
         23    2    1    2    0    0 -0.10015264927E+04  0.53198156544E+03 -0.64256238360E+03  0.13068098291E+04  0.93839283169E+02 0.  0.
         13    1    3    3    0    0 -0.64813264860E+03  0.32862258404E+03 -0.46028476661E+03  0.86019230367E+03  0.00000000000E+00 0. -1.
        -13    1    3    3    0    0 -0.35339384410E+03  0.20335898140E+03 -0.18227761699E+03  0.44661752543E+03  0.00000000000E+00 0.  1.
         22    1    1    2    0    0  0.10015264927E+04 -0.53198156544E+03 -0.14029886941E+03  0.11426913294E+04  0.00000000000E+00 0. -1.
<mgrwt>
<rscale>  0 0.23210308E+04</rscale>
<asrwt>0</asrwt>
<pdfrwt beam="1">  1        1 0.12820307E+00 0.23210308E+04</pdfrwt>
<pdfrwt beam="2">  1       -1 0.24864326E+00 0.23210308E+04</pdfrwt>
<totfact> 0.13284112E+00</totfact>
</mgrwt>
</event>
<event>
 6    1  0.9364335E-007  0.6354970E+03  0.7818608E-02  0.9834380E-01
          1   -1    0    0  501    0  0.00000000000E+00  0.00000000000E+00  0.73348161015E+02  0.73348161015E+02  0.00000000000E+00 0. -1.
         -1   -1    0    0    0  501 -0.00000000000E+00 -0.00000000000E+00 -0.13765049428E+04  0.13765049428E+04  0.00000000000E+00 0.  1.
         23    2    1    2    0    0 -0.26563665707E+03 -0.73693048984E+02 -0.33444350130E+03  0.44267937558E+03  0.90105909663E+02 0.  0.
         13    1    3    3    0    0 -0.26671864335E+03 -0.79159360615E+02 -0.33660609900E+03  0.43670207804E+03  0.00000000000E+00 0. -1.
        -13    1    3    3    0    0  0.10819862762E+01  0.54663116309E+01  0.21625976952E+01  0.59772975448E+01  0.00000000000E+00 0.  1.
         22    1    1    2    0    0  0.26563665707E+03  0.73693048984E+02 -0.96871328046E+03  0.10071737282E+04  0.00000000000E+00 0.  1.
<mgrwt>
<rscale>  0 0.63549699E+03</rscale>
<asrwt>0</asrwt>
<pdfrwt beam="1">  1        1 0.11284333E-01 0.63549699E+03</pdfrwt>
<pdfrwt beam="2">  1       -1 0.21176998E+00 0.63549699E+03</pdfrwt>
<totfact> 0.73370538E+01</totfact>
</mgrwt>
</event>
<event>
 6    1  0.9364335E-007  0.3155070E+04  0.7818608E-02  0.8200785E-01
         -1   -1    0    0    0  501 -0.00000000000E+00  0.00000000000E+00  0.18464533971E+04  0.18464533971E+04  0.00000000000E+00 0.  1.
          1   -1    0    0  501    0  0.00000000000E+00 -0.00000000000E+00 -0.13477819637E+04  0.13477819637E+04  0.00000000000E+00 0. -1.
         23    2    1    2    0    0  0.12895914670E+04 -0.85906992044E+03  0.54107335765E+03  0.16441240089E+04  0.96623486822E+02 0.  0.
         13    1    3    3    0    0  0.81100972013E+03 -0.55324448201E+03  0.29454469168E+03  0.10249745355E+04  0.00000000000E+00 0.  1.
        -13    1    3    3    0    0  0.47858174690E+03 -0.30582543843E+03  0.24652866597E+03  0.61914947339E+03  0.00000000000E+00 0. -1.
         22    1    1    2    0    0 -0.12895914670E+04  0.85906992044E+03 -0.42401924202E+02  0.15501113519E+04  0.00000000000E+00 0.  1.
<mgrwt>
<rscale>  0 0.31550699E+04</rscale>
<asrwt>0</asrwt>
<pdfrwt beam="1">  1        1 0.20735107E+00 0.31550699E+04</pdfrwt>
<pdfrwt beam="2">  1       -1 0.28406975E+00 0.31550699E+04</pdfrwt>
<totfact> 0.29420400E-01</totfact>
</mgrwt>
</event>
<event>
 6    1  0.9364335E-007  0.5676108E+03  0.7818608E-02  0.9974980E-01
         -2   -1    0    0    0  501 -0.00000000000E+00  0.00000000000E+00  0.58598403189E+02  0.58598403189E+02  0.00000000000E+00 0.  1.
          2   -1    0    0  501    0  0.00000000000E+00 -0.00000000000E+00 -0.13745342056E+04  0.13745342056E+04  0.00000000000E+00 0. -1.
         23    2    1    2    0    0  0.21227489503E+03  0.53740485547E+01 -0.22703680631E+03  0.32372261462E+03  0.90338852864E+02 0.  0.
         13    1    3    3    0    0  0.14813476989E+03  0.45603764538E+02 -0.14925622133E+03  0.21517674827E+03  0.00000000000E+00 0. -1.
        -13    1    3    3    0    0  0.64140125141E+02 -0.40229715983E+02 -0.77780584985E+02  0.10854586635E+03  0.00000000000E+00 0.  1.
         22    1    1    2    0    0 -0.21227489503E+03 -0.53740485547E+01 -0.10888989961E+04  0.11094099941E+04  0.00000000000E+00 0. -1.
<mgrwt>
<rscale>  0 0.56761082E+03</rscale>
<asrwt>0</asrwt>
<pdfrwt beam="1">  1        2 0.21146679E+00 0.56761082E+03</pdfrwt>
<pdfrwt beam="2">  1       -2 0.90151394E-02 0.56761082E+03</pdfrwt>
<totfact> 0.12348864E+03</totfact>
</mgrwt>
</event>
<event>
 6    1  0.9364335E-007  0.2671441E+04  0.7818608E-02  0.8344331E-01
         -2   -1    0    0    0  501 -0.00000000000E+00  0.00000000000E+00  0.11119281637E+04  0.11119281637E+04  0.00000000000E+00 0.  1.
          2   -1    0    0  501    0  0.00000000000E+00 -0.00000000000E+00 -0.16045544072E+04  0.16045544072E+04  0.00000000000E+00 0. -1.
         23    2    1    2    0    0  0.10989176098E+04  0.71378703299E+03  0.83118996063E+01  0.13136102086E+04  0.91601587343E+02 0.  0.
         11    1    3    3    0    0  0.74992245938E+03  0.51847555435E+03  0.38734763134E+02  0.91252450784E+03  0.00000000000E+00 0. -1.
        -11    1    3    3    0    0  0.34899515043E+03  0.19531147864E+03 -0.30422863528E+02  0.40108570074E+03  0.00000000000E+00 0.  1.
         22    1    1    2    0    0 -0.10989176098E+04 -0.71378703299E+03 -0.50093814316E+03  0.14028723623E+04  0.00000000000E+00 0.  1.
<mgrwt>
<rscale>  0 0.26714410E+04</rscale>
<asrwt>0</asrwt>
<pdfrwt beam="1">  1        2 0.24685452E+00 0.26714410E+04</pdfrwt>
<pdfrwt beam="2">  1       -2 0.17106587E+00 0.26714410E+04</pdfrwt>
<totfact> 0.20422601E+00</totfact>
</mgrwt>
</event>
<event>
 6    1  0.9364335E-007  0.2025808E+04  0.7818608E-02  0.8594649E-01
          2   -1    0    0  501    0  0.00000000000E+00  0.00000000000E+00  0.17641657754E+04  0.17641657754E+04  0.00000000000E+00 0. -1.
         -2   -1    0    0    0  501 -0.00000000000E+00 -0.00000000000E+00 -0.58156360272E+03  0.58156360272E+03  0.00000000000E+00 0.  1.
         23    2    1    2    0    0 -0.54911763304E+03 -0.83798175384E+03  0.74862068974E+03  0.12539036035E+04  0.89987304786E+02 0.  0.
         11    1    3    3    0    0 -0.27064122055E+03 -0.36518119054E+03  0.38463553880E+03  0.59543972818E+03  0.00000000000E+00 0. -1.
        -11    1    3    3    0    0 -0.27847641249E+03 -0.47280056330E+03  0.36398515095E+03  0.65846387530E+03  0.00000000000E+00 0.  1.
         22    1    1    2    0    0  0.54911763304E+03  0.83798175384E+03  0.43398148298E+03  0.10918257747E+04  0.00000000000E+00 0. -1.
<mgrwt>
<rscale>  0 0.20258081E+04</rscale>
<asrwt>0</asrwt>
<pdfrwt beam="1">  1        2 0.27141012E+00 0.20258081E+04</pdfrwt>
<pdfrwt beam="2">  1       -2 0.89471324E-01 0.20258081E+04</pdfrwt>
<totfact> 0.89717823E+00</totfact>
</mgrwt>
</event>
<event>
 6    1  0.9364335E-007  0.9115380E+03  0.7818608E-02  0.9411272E-01
          2   -1    0    0  501    0  0.00000000000E+00  0.00000000000E+00  0.49459470556E+03  0.49459470556E+03  0.00000000000E+00 0. -1.
         -2   -1    0    0    0  501 -0.00000000000E+00 -0.00000000000E+00 -0.41999112952E+03  0.41999112952E+03  0.00000000000E+00 0.  1.
         23    2    1    2    0    0  0.19267352975E+03 -0.39795318942E+03  0.12653605170E+03  0.46940406090E+03  0.94015796369E+02 0.  0.
         11    1    3    3    0    0  0.17947926039E+03 -0.38686524357E+03  0.13853069922E+03  0.44840637397E+03  0.00000000000E+00 0. -1.
        -11    1    3    3    0    0  0.13194269360E+02 -0.11087945857E+02 -0.11994647516E+02  0.20997686928E+02  0.00000000000E+00 0.  1.
         22    1    1    2    0    0 -0.19267352975E+03  0.39795318942E+03 -0.51932475661E+02  0.44518177419E+03  0.00000000000E+00 0. -1.
<mgrwt>
<rscale>  0 0.91153802E+03</rscale>
<asrwt>0</asrwt>
<pdfrwt beam="1">  1        2 0.76091493E-01 0.91153802E+03</pdfrwt>
<pdfrwt beam="2">  1       -2 0.64614020E-01 0.91153802E+03</pdfrwt>
<totfact> 0.13838501E+02</totfact>
</mgrwt>
</event>
<event>
 6    1  0.9364335E-007  0.1108637E+04  0.7818608E-02  0.9196815E-01
         -3   -1    0    0    0  501 -0.00000000000E+00  0.00000000000E+00  0.46848115874E+03  0.46848115874E+03  0.00000000000E+00 0.  1.
          3   -1    0    0  501    0  0.00000000000E+00 -0.00000000000E+00 -0.65588279620E+03  0.65588279620E+03  0.00000000000E+00 0. -1.
         23    2    1    2    0    0 -0.32307888882E+03 -0.12309431082E+03  0.34162405899E+03  0.49238265358E+03  0.78749616588E+02 0.  0.
         11    1    3    3    0    0 -0.12766737130E+03 -0.90470794710E+02  0.15062661610E+03  0.21719185038E+03  0.00000000000E+00 0. -1.
        -11    1    3    3    0    0 -0.19541151752E+03 -0.32623516112E+02  0.19099744288E+03  0.27519080321E+03  0.00000000000E+00 0.  1.
         22    1    1    2    0    0  0.32307888882E+03  0.12309431082E+03 -0.52902569645E+03  0.63198130135E+03  0.00000000000E+00 0. -1.
<mgrwt>
<rscale>  0 0.11086365E+04</rscale>
<asrwt>0</asrwt>
<pdfrwt beam="1">  1        3 0.10090505E+00 0.11086365E+04</pdfrwt>
<pdfrwt beam="2">  1       -3 0.72074025E-01 0.11086365E+04</pdfrwt>
<totfact> 0.40802543E+00</totfact>
</mgrwt>
</event>
<event>
 6    1  0.9364335E-007  0.4831966E+04  0.7818608E-02  0.7854964E-01
         -2   -1    0    0    0  501 -0.00000000000E+00  0.00000000000E+00  0.15866260370E+04  0.15866260370E+04  0.00000000000E+00 0.  1.
          2   -1    0    0  501    0  0.00000000000E+00 -0.00000000000E+00 -0.36788590168E+04  0.36788590168E+04  0.00000000000E+00 0. -1.
         23    2    1    2    0    0 -0.23492240103E+04 -0.25945537083E+03 -0.15877556507E+04  0.28487376703E+04  0.90375701786E+02 0.  0.
         11    1    3    3    0    0 -0.19039497485E+04 -0.19765838038E+03 -0.13251347641E+04  0.23281055868E+04  0.00000000000E+00 0.  1.
        -11    1    3    3    0    0 -0.44527426187E+03 -0.61796990452E+02 -0.26262088663E+03  0.52063208354E+03  0.00000000000E+00 0. -1.
         22    1    1    2    0    0  0.23492240103E+04  0.25945537083E+03 -0.50447732903E+03  0.24167473835E+04  0.00000000000E+00 0. -1.
<mgrwt>
<rscale>  0 0.48319659E+04</rscale>
<asrwt>0</asrwt>
<pdfrwt beam="1">  1        2 0.56597831E+00 0.48319659E+04</pdfrwt>
<pdfrwt beam="2">  1       -2 0.24409631E+00 0.48319659E+04</pdfrwt>
<totfact> 0.31107187E-02</totfact>
</mgrwt>
</event>
<event>
 6    1  0.9364335E-007  0.8780349E+03  0.7818608E-02  0.9453463E-01
          2   -1    0    0  501    0  0.00000000000E+00  0.00000000000E+00  0.74473861555E+03  0.74473861555E+03  0.00000000000E+00 0. -1.
         -2   -1    0    0    0  501 -0.00000000000E+00 -0.00000000000E+00 -0.25879727433E+03  0.25879727433E+03  0.00000000000E+00 0.  1.
         23    2    1    2    0    0  0.34297621032E+03 -0.60113375304E+02  0.54213515333E+03  0.65082631635E+03  0.91750045438E+02 0.  0.
         13    1    3    3    0    0  0.18924358084E+03 -0.55953434416E+02  0.37464243942E+03  0.42343934291E+03  0.00000000000E+00 0. -1.
        -13    1    3    3    0    0  0.15373262948E+03 -0.41599408874E+01  0.16749271392E+03  0.22738697344E+03  0.00000000000E+00 0.  1.
         22    1    1    2    0    0 -0.34297621032E+03  0.60113375304E+02 -0.56193812121E+02  0.35270957353E+03  0.00000000000E+00 0.  1.
<mgrwt>
<rscale>  0 0.87803491E+03</rscale>
<asrwt>0</asrwt>
<pdfrwt beam="1">  1        2 0.11457517E+00 0.87803491E+03</pdfrwt>
<pdfrwt beam="2">  1       -2 0.39814966E-01 0.87803491E+03</pdfrwt>
<totfact> 0.22657794E+02</totfact>
</mgrwt>
</event>
<event>
 6    1  0.9364335E-007  0.1461341E+04  0.7818608E-02  0.8910575E-01
         -1   -1    0    0    0  501 -0.00000000000E+00  0.00000000000E+00  0.12305219726E+04  0.12305219726E+04  0.00000000000E+00 0.  1.
          1   -1    0    0  501    0  0.00000000000E+00 -0.00000000000E+00 -0.43386440828E+03  0.43386440828E+03  0.00000000000E+00 0. -1.
         23    2    1    2    0    0  0.10013317086E+03  0.29473523110E+03 -0.34966268097E+03  0.47655406397E+03  0.89130674112E+02 0.  0.
         11    1    3    3    0    0  0.91496656393E+02  0.18608284343E+03 -0.27509082140E+03  0.34449009096E+03  0.00000000000E+00 0.  1.
        -11    1    3    3    0    0  0.86365144623E+01  0.10865238767E+03 -0.74571859570E+02  0.13206397301E+03  0.00000000000E+00 0. -1.
         22    1    1    2    0    0 -0.10013317086E+03 -0.29473523110E+03  0.11463202453E+04  0.11878323169E+04  0.00000000000E+00 0.  1.
<mgrwt>
<rscale>  0 0.14613414E+04</rscale>
<asrwt>0</asrwt>
<pdfrwt beam="1">  1        1 0.66748371E-01 0.14613414E+04</pdfrwt>
<pdfrwt beam="2">  1       -1 0.18931107E+00 0.14613414E+04</pdfrwt>
<totfact> 0.93262154E+00</totfact>
</mgrwt>
</event>
<event>
 6    1  0.9364335E-007  0.3494577E+04  0.7818608E-02  0.8115076E-01
          2   -1    0    0  501    0  0.00000000000E+00  0.00000000000E+00  0.22649354890E+04  0.22649354890E+04  0.00000000000E+00 0. -1.
         -2   -1    0    0    0  501 -0.00000000000E+00 -0.00000000000E+00 -0.13479489863E+04  0.13479489863E+04  0.00000000000E+00 0.  1.
         23    2    1    2    0    0 -0.12444050173E+03  0.16626720986E+04  0.99491531987E+03  0.19437419270E+04  0.91171482556E+02 0.  0.
         11    1    3    3    0    0 -0.13762919758E+03  0.15219045554E+04  0.90000094941E+03  0.17734534053E+04  0.00000000000E+00 0. -1.
        -11    1    3    3    0    0  0.13188695855E+02  0.14076754319E+03  0.94914370463E+02  0.17028852174E+03  0.00000000000E+00 0.  1.
         22    1    1    2    0    0  0.12444050173E+03 -0.16626720986E+04 -0.77928817136E+02  0.16691425483E+04  0.00000000000E+00 0. -1.
<mgrwt>
<rscale>  0 0.34945772E+04</rscale>
<asrwt>0</asrwt>
<pdfrwt beam="1">  1        2 0.34845161E+00 0.34945772E+04</pdfrwt>
<pdfrwt beam="2">  1       -2 0.20737677E+00 0.34945772E+04</pdfrwt>
<totfact> 0.46451551E-01</totfact>
</mgrwt>
</event>
<event>
 6    1  0.9364335E-007  0.1427588E+04  0.7818608E-02  0.8934087E-01
          1   -1    0    0  501    0  0.00000000000E+00  0.00000000000E+00  0.17834526721E+04  0.17834526721E+04  0.00000000000E+00 0. -1.
         -1   -1    0    0    0  501 -0.00000000000E+00 -0.00000000000E+00 -0.28568299899E+03  0.28568299899E+03  0.00000000000E+00 0.  1.
         23    2    1    2    0    0  0.29328672148E+03 -0.35094238416E+03  0.15404222118E+04  0.16097916855E+04  0.96700683320E+02 0.  0.
         11    1    3    3    0    0  0.11664941628E+03 -0.71539361731E+02  0.46430592377E+03  0.48405057323E+03  0.00000000000E+00 0. -1.
        -11    1    3    3    0    0  0.17663730520E+03 -0.27940302243E+03  0.10761162880E+04  0.11257411123E+04  0.00000000000E+00 0.  1.
         22    1    1    2    0    0 -0.29328672148E+03  0.35094238416E+03 -0.42652538710E+02  0.45934398555E+03  0.00000000000E+00 0.  1.
<mgrwt>
<rscale>  0 0.14275883E+04</rscale>
<asrwt>0</asrwt>
<pdfrwt beam="1">  1        1 0.27437733E+00 0.14275883E+04</pdfrwt>
<pdfrwt beam="2">  1       -1 0.43951232E-01 0.14275883E+04</pdfrwt>
<totfact> 0.20824315E+01</totfact>
</mgrwt>
</event>
<event>
 6    1  0.9364335E-007  0.3199911E+04  0.7818608E-02  0.8188841E-01
         -2   -1    0    0    0  501 -0.00000000000E+00  0.00000000000E+00  0.12682193303E+04  0.12682193303E+04  0.00000000000E+00 0.  1.
          2   -1    0    0  501    0  0.00000000000E+00 -0.00000000000E+00 -0.20184662333E+04  0.20184662333E+04  0.00000000000E+00 0. -1.
         23    2    1    2    0    0 -0.49758818950E+03 -0.13861002399E+04  0.26337993076E+03  0.14988636375E+04  0.91407519556E+02 0.  0.
         13    1    3    3    0    0 -0.83758804944E+02 -0.33484611109E+03  0.43528508076E+02  0.34789680443E+03  0.00000000000E+00 0. -1.
        -13    1    3    3    0    0 -0.41382938456E+03 -0.10512541288E+04  0.21985142268E+03  0.11509668331E+04  0.00000000000E+00 0.  1.
         22    1    1    2    0    0  0.49758818950E+03  0.13861002399E+04 -0.10136268337E+04  0.17878219261E+04  0.00000000000E+00 0. -1.
<mgrwt>
<rscale>  0 0.31999112E+04</rscale>
<asrwt>0</asrwt>
<pdfrwt beam="1">  1        2 0.31053327E+00 0.31999112E+04</pdfrwt>
<pdfrwt beam="2">  1       -2 0.19511067E+00 0.31999112E+04</pdfrwt>
<totfact> 0.78726885E-01</totfact>
</mgrwt>
</event>
<event>
 6    1  0.9364335E-007  0.1779983E+04  0.7818608E-02  0.8717017E-01
         -2   -1    0    0    0  501 -0.00000000000E+00  0.00000000000E+00  0.19180814632E+04  0.19180814632E+04  0.00000000000E+00 0.  1.
          2   -1    0    0  501    0  0.00000000000E+00 -0.00000000000E+00 -0.41295687351E+03  0.41295687351E+03  0.00000000000E+00 0. -1.
         23    2    1    2    0    0  0.13862085001E+03  0.60945809888E+03 -0.70798974955E+02  0.63569471493E+03  0.91871439428E+02 0.  0.
         11    1    3    3    0    0  0.10043265823E+02  0.24137748100E+03 -0.18197853120E+02  0.24227075222E+03  0.00000000000E+00 0. -1.
        -11    1    3    3    0    0  0.12857758419E+03  0.36808061788E+03 -0.52601121836E+02  0.39342396271E+03  0.00000000000E+00 0.  1.
         22    1    1    2    0    0 -0.13862085001E+03 -0.60945809888E+03  0.15759235647E+04  0.16953436218E+04  0.00000000000E+00 0.  1.
<mgrwt>
<rscale>  0 0.17799831E+04</rscale>
<asrwt>0</asrwt>
<pdfrwt beam="1">  1        2 0.63531828E-01 0.17799831E+04</pdfrwt>
<pdfrwt beam="2">  1       -2 0.29508945E+00 0.17799831E+04</pdfrwt>
<totfact> 0.24742429E+00</totfact>
</mgrwt>
</event>
<event>
 6    1  0.9364335E-007  0.2020147E+04  0.7818608E-02  0.8597259E-01
          2   -1    0    0  501    0  0.00000000000E+00  0.00000000000E+00  0.36529269415E+04  0.36529269415E+04  0.00000000000E+00 0. -1.
         -2   -1    0    0    0  501 -0.00000000000E+00 -0.00000000000E+00 -0.27929612347E+03  0.27929612347E+03  0.00000000000E+00 0.  1.
         23    2    1    2    0    0 -0.15629591789E+03 -0.62898041411E+03  0.18675428651E+03  0.68011193488E+03  0.87351617942E+02 0.  0.
         11    1    3    3    0    0 -0.49206816376E+02 -0.37105543183E+03  0.95293076400E+02  0.38624372445E+03  0.00000000000E+00 0. -1.
        -11    1    3    3    0    0 -0.10708910151E+03 -0.25792498228E+03  0.91461210112E+02  0.29386821043E+03  0.00000000000E+00 0.  1.
         22    1    1    2    0    0  0.15629591789E+03  0.62898041411E+03  0.31868765316E+04  0.32521111301E+04  0.00000000000E+00 0. -1.
<mgrwt>
<rscale>  0 0.20201469E+04</rscale>
<asrwt>0</asrwt>
<pdfrwt beam="1">  1        2 0.56198873E+00 0.20201469E+04</pdfrwt>
<pdfrwt beam="2">  1       -2 0.42968637E-01 0.20201469E+04</pdfrwt>
<totfact> 0.30307716E+00</totfact>
</mgrwt>
</event>
<event>
 6    1  0.9364335E-007  0.1985213E+04  0.7818608E-02  0.8613566E-01
         -1   -1    0    0    0  501 -0.00000000000E+00  0.00000000000E+00  0.73843042258E+03  0.73843042258E+03  0.00000000000E+00 0.  1.
          1   -1    0    0  501    0  0.00000000000E+00 -0.00000000000E+00 -0.13342726120E+04  0.13342726120E+04  0.00000000000E+00 0. -1.
         23    2    1    2    0    0  0.42610246100E+03  0.67345275860E+03  0.31543490044E+03  0.86211315364E+03  0.92940776446E+02 0.  0.
         13    1    3    3    0    0  0.33401844357E+03  0.49662125458E+03  0.19634839871E+03  0.62988386614E+03  0.00000000000E+00 0. -1.
        -13    1    3    3    0    0  0.92084017435E+02  0.17683150403E+03  0.11908650172E+03  0.23222928751E+03  0.00000000000E+00 0.  1.
         22    1    1    2    0    0 -0.42610246100E+03 -0.67345275860E+03 -0.91127708984E+03  0.12105898809E+04  0.00000000000E+00 0. -1.
<mgrwt>
<rscale>  0 0.19852128E+04</rscale>
<asrwt>0</asrwt>
<pdfrwt beam="1">  1        1 0.20527271E+00 0.19852128E+04</pdfrwt>
<pdfrwt beam="2">  1       -1 0.11360468E+00 0.19852128E+04</pdfrwt>
<totfact> 0.56135551E+00</totfact>
</mgrwt>
</event>
<event>
 6    1  0.9364335E-007  0.1715132E+04  0.7818608E-02  0.8752781E-01
         -1   -1    0    0    0  501 -0.00000000000E+00  0.00000000000E+00  0.73265041745E+03  0.73265041745E+03  0.00000000000E+00 0.  1.
          1   -1    0    0  501    0  0.00000000000E+00 -0.00000000000E+00 -0.10037789319E+04  0.10037789319E+04  0.00000000000E+00 0. -1.
         23    2    1    2    0    0 -0.15092134117E+02  0.50268260041E+03 -0.83612269241E+03  0.98003263445E+03  0.91897979045E+02 0.  0.
         13    1    3    3    0    0  0.14213248285E+01  0.14565560296E+03 -0.32706756572E+03  0.35803738266E+03  0.00000000000E+00 0.  1.
        -13    1    3    3    0    0 -0.16513458946E+02  0.35702699745E+03 -0.50905512669E+03  0.62199525179E+03  0.00000000000E+00 0. -1.
         22    1    1    2    0    0  0.15092134117E+02 -0.50268260041E+03  0.56499417793E+03  0.75639671493E+03  0.00000000000E+00 0.  1.
<mgrwt>
<rscale>  0 0.17151315E+04</rscale>
<asrwt>0</asrwt>
<pdfrwt beam="1">  1        1 0.15442753E+00 0.17151315E+04</pdfrwt>
<pdfrwt beam="2">  1       -1 0.11271545E+00 0.17151315E+04</pdfrwt>
<totfact> 0.10288605E+01</totfact>
</mgrwt>
</event>
<event>
 6    1  0.9364335E-007  0.1974820E+04  0.7818608E-02  0.8618484E-01
         -1   -1    0    0    0  501 -0.00000000000E+00  0.00000000000E+00  0.45984718550E+03  0.45984718550E+03  0.00000000000E+00 0.  1.
          1   -1    0    0  501    0  0.00000000000E+00 -0.00000000000E+00 -0.21202229483E+04  0.21202229483E+04  0.00000000000E+00 0. -1.
         23    2    1    2    0    0  0.23379209961E+03  0.57045759580E+03 -0.18361421178E+04  0.19389972627E+04  0.90619499096E+02 0.  0.
         13    1    3    3    0    0  0.30799535584E+02  0.15046487753E+03 -0.54248194921E+03  0.56380400494E+03  0.00000000000E+00 0. -1.
        -13    1    3    3    0    0  0.20299256403E+03  0.41999271827E+03 -0.12936601686E+04  0.13751932578E+04  0.00000000000E+00 0.  1.
         22    1    1    2    0    0 -0.23379209961E+03 -0.57045759580E+03  0.17576635502E+03  0.64107287105E+03  0.00000000000E+00 0.  1.
<mgrwt>
<rscale>  0 0.19748200E+04</rscale>
<asrwt>0</asrwt>
<pdfrwt beam="1">  1        1 0.32618814E+00 0.19748200E+04</pdfrwt>
<pdfrwt beam="2">  1       -1 0.70745721E-01 0.19748200E+04</pdfrwt>
<totfact> 0.46336157E+00</totfact>
</mgrwt>
</event>
<event>
 6    1  0.9364335E-007  0.2352891E+04  0.7818608E-02  0.8457354E-01
          2   -1    0    0  501    0  0.00000000000E+00  0.00000000000E+00  0.17152405804E+04  0.17152405804E+04  0.00000000000E+00 0. -1.
         -2   -1    0    0    0  501 -0.00000000000E+00 -0.00000000000E+00 -0.80689799290E+03  0.80689799290E+03  0.00000000000E+00 0.  1.
         23    2    1    2    0    0  0.55303036744E+03  0.26258057091E+03 -0.61972771083E+03  0.87599460020E+03  0.92265705828E+02 0.  0.
         11    1    3    3    0    0  0.13289208638E+03  0.28308584345E+02 -0.16836264055E+03  0.21635078300E+03  0.00000000000E+00 0.  1.
        -11    1    3    3    0    0  0.42013828105E+03  0.23427198656E+03 -0.45136507028E+03  0.65964381720E+03  0.00000000000E+00 0. -1.
         22    1    1    2    0    0 -0.55303036744E+03 -0.26258057091E+03  0.15280702984E+04  0.16461439731E+04  0.00000000000E+00 0. -1.
<mgrwt>
<rscale>  0 0.23528911E+04</rscale>
<asrwt>0</asrwt>
<pdfrwt beam="1">  1        2 0.26388317E+00 0.23528911E+04</pdfrwt>
<pdfrwt beam="2">  1       -2 0.12413815E+00 0.23528911E+04</pdfrwt>
<totfact> 0.42360536E+00</totfact>
</mgrwt>
</event>
<event>
 6    1  0.9364335E-007  0.9126251E+03  0.7818608E-02  0.9409936E-01
          2   -1    0    0  501    0  0.00000000000E+00  0.00000000000E+00  0.17255230423E+03  0.17255230423E+03  0.00000000000E+00 0. -1.
         -2   -1    0    0    0  501 -0.00000000000E+00 -0.00000000000E+00 -0.12067132716E+04  0.12067132716E+04  0.00000000000E+00 0.  1.
         23    2    1    2    0    0 -0.27088856932E+03 -0.11961704225E+03 -0.10378589023E+04  0.10831194489E+04  0.91147055105E+02 0.  0.
         13    1    3    3    0    0 -0.11746194923E+03 -0.86903042542E+01 -0.46987426291E+03  0.48441165743E+03  0.00000000000E+00 0. -1.
        -13    1    3    3    0    0 -0.15342662009E+03 -0.11092673799E+03 -0.56798463942E+03  0.59870779147E+03  0.00000000000E+00 0.  1.
         22    1    1    2    0    0  0.27088856932E+03  0.11961704225E+03  0.36979349415E+01  0.29614612695E+03  0.00000000000E+00 0. -1.
<mgrwt>
<rscale>  0 0.91262513E+03</rscale>
<asrwt>0</asrwt>
<pdfrwt beam="1">  1        2 0.26546508E-01 0.91262513E+03</pdfrwt>
<pdfrwt beam="2">  1       -2 0.18564820E+00 0.91262513E+03</pdfrwt>
<totfact> 0.34085532E+01</totfact>
</mgrwt>
</event>
<event>
 6    1  0.9364335E-007  0.5297198E+04  0.7818608E-02  0.7784228E-01
         -1   -1    0    0    0  501 -0.00000000000E+00  0.00000000000E+00  0.25605139234E+04  0.25605139234E+04  0.00000000000E+00 0.  1.
          1   -1    0    0  501    0  0.00000000000E+00 -0.00000000000E+00 -0.27397146833E+04  0.27397146833E+04  0.00000000000E+00 0. -1.
         23    2    1    2    0    0 -0.16071976583E+04  0.17908931448E+04  0.10158245572E+04  0.26135079147E+04  0.90230372911E+02 0.  0.
         13    1    3    3    0    0 -0.57058528103E+03  0.59755801451E+03  0.31151453322E+03  0.88299742244E+03  0.00000000000E+00 0. -1.
        -13    1    3    3    0    0 -0.10366123772E+04  0.11933351303E+04  0.70431002399E+03  0.17305104922E+04  0.00000000000E+00 0.  1.
         22    1    1    2    0    0  0.16071976583E+04 -0.17908931448E+04 -0.11950253171E+04  0.26867206921E+04  0.00000000000E+00 0.  1.
<mgrwt>
<rscale>  0 0.52971984E+04</rscale>
<asrwt>0</asrwt>
<pdfrwt beam="1">  1        1 0.42149456E+00 0.52971984E+04</pdfrwt>
<pdfrwt beam="2">  1       -1 0.39392522E+00 0.52971984E+04</pdfrwt>
<totfact> 0.51090472E-03</totfact>
</mgrwt>
</event>
<event>
 6    1  0.9364335E-007  0.8288220E+03  0.7818608E-02  0.9519211E-01
         -1   -1    0    0    0  501 -0.00000000000E+00  0.00000000000E+00  0.75849410830E+03  0.75849410830E+03  0.00000000000E+00 0.  1.
          1   -1    0    0  501    0  0.00000000000E+00 -0.00000000000E+00 -0.22641767098E+03  0.22641767098E+03  0.00000000000E+00 0. -1.
         23    2    1    2    0    0  0.30890183319E+02  0.17414190192E+03 -0.16942629485E+03  0.26145778027E+03  0.91516643561E+02 0.  0.
         11    1    3    3    0    0 -0.31114118953E+02  0.35329251951E+02 -0.41906766081E+02  0.63027148794E+02  0.00000000000E+00 0. -1.
        -11    1    3    3    0    0  0.62004302272E+02  0.13881264997E+03 -0.12751952877E+03  0.19843063148E+03  0.00000000000E+00 0.  1.
         22    1    1    2    0    0 -0.30890183319E+02 -0.17414190192E+03  0.70150273217E+03  0.72345399900E+03  0.00000000000E+00 0.  1.
<mgrwt>
<rscale>  0 0.82882198E+03</rscale>
<asrwt>0</asrwt>
<pdfrwt beam="1">  1        1 0.34833488E-01 0.82882198E+03</pdfrwt>
<pdfrwt beam="2">  1       -1 0.11669140E+00 0.82882198E+03</pdfrwt>
<totfact> 0.84841426E+01</totfact>
</mgrwt>
</event>
<event>
 6    1  0.9364335E-007  0.3537431E+04  0.7818608E-02  0.8104976E-01
         -2   -1    0    0    0  501 -0.00000000000E+00  0.00000000000E+00  0.11392793467E+04  0.11392793467E+04  0.00000000000E+00 0.  1.
          2   -1    0    0  501    0  0.00000000000E+00 -0.00000000000E+00 -0.27459060245E+04  0.27459060245E+04  0.00000000000E+00 0. -1.
         23    2    1    2    0    0  0.22315978663E+03  0.17525424917E+04 -0.86569757124E+03  0.19694136164E+04  0.89175289087E+02 0.  0.
         13    1    3    3    0    0  0.18863949375E+03  0.11732101425E+04 -0.56444326056E+03  0.13155238848E+04  0.00000000000E+00 0. -1.
        -13    1    3    3    0    0  0.34520292876E+02  0.57933234920E+03 -0.30125431068E+03  0.65388973165E+03  0.00000000000E+00 0.  1.
         22    1    1    2    0    0 -0.22315978663E+03 -0.17525424917E+04 -0.74092910658E+03  0.19157717548E+04  0.00000000000E+00 0.  1.
<mgrwt>
<rscale>  0 0.35374307E+04</rscale>
<asrwt>0</asrwt>
<pdfrwt beam="1">  1        2 0.42244708E+00 0.35374307E+04</pdfrwt>
<pdfrwt beam="2">  1       -2 0.17527375E+00 0.35374307E+04</pdfrwt>
<totfact> 0.39931897E-01</totfact>
</mgrwt>
</event>
<event>
 6    1  0.9364335E-007  0.3738647E+04  0.7818608E-02  0.8059451E-01
         -2   -1    0    0    0  501 -0.00000000000E+00  0.00000000000E+00  0.20767539497E+04  0.20767539497E+04  0.00000000000E+00 0.  1.
          2   -1    0    0  501    0  0.00000000000E+00 -0.00000000000E+00 -0.16826115370E+04  0.16826115370E+04  0.00000000000E+00 0. -1.
         23    2    1    2    0    0  0.88620360829E+03 -0.11520470735E+04  0.13774040722E+04  0.20045513125E+04  0.91731628008E+02 0.  0.
         11    1    3    3    0    0  0.58153207119E+03 -0.73711028129E+03  0.94716962462E+03  0.13336571578E+04  0.00000000000E+00 0.  1.
        -11    1    3    3    0    0  0.30467153710E+03 -0.41493679217E+03  0.43023444755E+03  0.67089415475E+03  0.00000000000E+00 0. -1.
         22    1    1    2    0    0 -0.88620360829E+03  0.11520470735E+04 -0.98326165952E+03  0.17548141742E+04  0.00000000000E+00 0. -1.
<mgrwt>
<rscale>  0 0.37386469E+04</rscale>
<asrwt>0</asrwt>
<pdfrwt beam="1">  1        2 0.25886331E+00 0.37386469E+04</pdfrwt>
<pdfrwt beam="2">  1       -2 0.31950061E+00 0.37386469E+04</pdfrwt>
<totfact> 0.19484572E-01</totfact>
</mgrwt>
</event>
<event>
 6    1  0.9364335E-007  0.1828341E+04  0.7818608E-02  0.8691371E-01
          2   -1    0    0  501    0  0.00000000000E+00  0.00000000000E+00  0.12054532109E+04  0.12054532109E+04  0.00000000000E+00 0. -1.
         -2   -1    0    0    0  501 -0.00000000000E+00 -0.00000000000E+00 -0.69327290378E+03  0.69327290378E+03  0.00000000000E+00 0.  1.
         23    2    1    2    0    0  0.37930078691E+03  0.82801026077E+03  0.20868773788E+03  0.93873766761E+03  0.90596676348E+02 0.  0.
         13    1    3    3    0    0  0.31162155290E+03  0.68905611669E+03  0.13779993464E+03  0.76869704446E+03  0.00000000000E+00 0. -1.
        -13    1    3    3    0    0  0.67679234017E+02  0.13895414408E+03  0.70887803241E+02  0.17004062315E+03  0.00000000000E+00 0.  1.
         22    1    1    2    0    0 -0.37930078691E+03 -0.82801026077E+03  0.30349256922E+03  0.95998844705E+03  0.00000000000E+00 0. -1.
<mgrwt>
<rscale>  0 0.18283414E+04</rscale>
<asrwt>0</asrwt>
<pdfrwt beam="1">  1        2 0.18545434E+00 0.18283414E+04</pdfrwt>
<pdfrwt beam="2">  1       -2 0.10665737E+00 0.18283414E+04</pdfrwt>
<totfact> 0.12537334E+01</totfact>
</mgrwt>
</event>
<event>
 6    1  0.9364335E-007  0.1873590E+04  0.7818608E-02  0.8668115E-01
         -2   -1    0    0    0  501 -0.00000000000E+00  0.00000000000E+00  0.25612899224E+03  0.25612899224E+03  0.00000000000E+00 0.  1.
          2   -1    0    0  501    0  0.00000000000E+00 -0.00000000000E+00 -0.34263397772E+04  0.34263397772E+04  0.00000000000E+00 0. -1.
         23    2    1    2    0    0  0.86285733150E+02  0.86208702783E+03 -0.22772595514E+04  0.24382818153E+04  0.93101424267E+02 0.  0.
         13    1    3    3    0    0  0.59749256856E+02  0.79167055645E+03 -0.20262663938E+04  0.21762508454E+04  0.00000000000E+00 0. -1.
        -13    1    3    3    0    0  0.26536476295E+02  0.70416471378E+02 -0.25099315756E+03  0.26203096984E+03  0.00000000000E+00 0.  1.
         22    1    1    2    0    0 -0.86285733150E+02 -0.86208702783E+03 -0.89295123363E+03  0.12441869542E+04  0.00000000000E+00 0.  1.
<mgrwt>
<rscale>  0 0.18735901E+04</rscale>
<asrwt>0</asrwt>
<pdfrwt beam="1">  1        2 0.52712916E+00 0.18735901E+04</pdfrwt>
<pdfrwt beam="2">  1       -2 0.39404463E-01 0.18735901E+04</pdfrwt>
<totfact> 0.52619115E+00</totfact>
</mgrwt>
</event>
<event>
 6    1  0.9364335E-007  0.2096478E+04  0.7818608E-02  0.8562796E-01
          2   -1    0    0  501    0  0.00000000000E+00  0.00000000000E+00  0.22665712673E+04  0.22665712673E+04  0.00000000000E+00 0. -1.
         -2   -1    0    0    0  501 -0.00000000000E+00 -0.00000000000E+00 -0.48478751927E+03  0.48478751927E+03  0.00000000000E+00 0.  1.
         23    2    1    2    0    0 -0.39618806409E+03  0.67041924828E+03  0.18095827839E+04  0.19721285657E+04  0.90963056146E+02 0.  0.
         11    1    3    3    0    0 -0.30983729056E+03  0.49700193309E+03  0.14471236445E+04  0.15611460247E+04  0.00000000000E+00 0. -1.
        -11    1    3    3    0    0 -0.86350773533E+02  0.17341731519E+03  0.36245913938E+03  0.41098254102E+03  0.00000000000E+00 0.  1.
         22    1    1    2    0    0  0.39618806409E+03 -0.67041924828E+03 -0.27799035858E+02  0.77923022079E+03  0.00000000000E+00 0.  1.
<mgrwt>
<rscale>  0 0.20964784E+04</rscale>
<asrwt>0</asrwt>
<pdfrwt beam="1">  1        2 0.34870326E+00 0.20964784E+04</pdfrwt>
<pdfrwt beam="2">  1       -2 0.74582697E-01 0.20964784E+04</pdfrwt>
<totfact> 0.70576837E+00</totfact>
</mgrwt>
</event>
<event>
 6    1  0.9364335E-007  0.1583657E+04  0.7818608E-02  0.8830652E-01
          2   -1    0    0  501    0  0.00000000000E+00  0.00000000000E+00  0.13649637081E+04  0.13649637081E+04  0.00000000000E+00 0. -1.
         -2   -1    0    0    0  501 -0.00000000000E+00 -0.00000000000E+00 -0.45934705538E+03  0.45934705538E+03  0.00000000000E+00 0.  1.
         23    2    1    2    0    0  0.39694998299E+03  0.20010536887E+03 -0.29699125953E+03  0.54217300246E+03  0.90201489556E+02 0.  0.
         13    1    3    3    0    0  0.27425502220E+03  0.17921671846E+03 -0.23457269998E+03  0.40293771349E+03  0.00000000000E+00 0. -1.
        -13    1    3    3    0    0  0.12269496079E+03  0.20888650407E+02 -0.62418559549E+02  0.13923528897E+03  0.00000000000E+00 0.  1.
         22    1    1    2    0    0 -0.39694998299E+03 -0.20010536887E+03  0.12026079122E+04  0.12821377610E+04  0.00000000000E+00 0. -1.
<mgrwt>
<rscale>  0 0.15836566E+04</rscale>
<asrwt>0</asrwt>
<pdfrwt beam="1">  1        2 0.20999442E+00 0.15836566E+04</pdfrwt>
<pdfrwt beam="2">  1       -2 0.70668778E-01 0.15836566E+04</pdfrwt>
<totfact> 0.26495453E+01</totfact>
</mgrwt>
</event>
<event>
 6    1  0.9364335E-007  0.2153271E+04  0.7818608E-02  0.8538133E-01
          2   -1    0    0  501    0  0.00000000000E+00  0.00000000000E+00  0.11970977639E+04  0.11970977639E+04  0.00000000000E+00 0. -1.
         -2   -1    0    0    0  501 -0.00000000000E+00 -0.00000000000E+00 -0.96829548778E+03  0.96829548778E+03  0.00000000000E+00 0.  1.
         23    2    1    2    0    0  0.45484215352E+01  0.72304572280E+03 -0.68498284290E+03  0.10001383229E+04  0.90881045134E+02 0.  0.
         13    1    3    3    0    0  0.12087327279E+01  0.14886090954E+02 -0.38375724334E+02  0.41179521086E+02  0.00000000000E+00 0. -1.
        -13    1    3    3    0    0  0.33396888073E+01  0.70815963185E+03 -0.64660711857E+03  0.95895880177E+03  0.00000000000E+00 0.  1.
         22    1    1    2    0    0 -0.45484215352E+01 -0.72304572280E+03  0.91378511902E+03  0.11652549288E+04  0.00000000000E+00 0. -1.
<mgrwt>
<rscale>  0 0.21532713E+04</rscale>
<asrwt>0</asrwt>
<pdfrwt beam="1">  1        2 0.18416889E+00 0.21532713E+04</pdfrwt>
<pdfrwt beam="2">  1       -2 0.14896854E+00 0.21532713E+04</pdfrwt>
<totfact> 0.53249422E+00</totfact>
</mgrwt>
</event>
<event>
 6    1  0.9364335E-007  0.1312705E+04  0.7818608E-02  0.9019551E-01
         -2   -1    0    0    0  501 -0.00000000000E+00  0.00000000000E+00  0.35463740564E+03  0.35463740564E+03  0.00000000000E+00 0.  1.
          2   -1    0    0  501    0  0.00000000000E+00 -0.00000000000E+00 -0.12147572870E+04  0.12147572870E+04  0.00000000000E+00 0. -1.
         23    2    1    2    0    0  0.52420943860E+03  0.23280481796E+02 -0.89744404386E+03  0.10433427851E+04  0.88435507094E+02 0.  0.
         13    1    3    3    0    0  0.28930454704E+03  0.33508065510E+02 -0.41940278503E+03  0.51060611775E+03  0.00000000000E+00 0. -1.
        -13    1    3    3    0    0  0.23490489156E+03 -0.10227583714E+02 -0.47804125883E+03  0.53273666731E+03  0.00000000000E+00 0.  1.
         22    1    1    2    0    0 -0.52420943860E+03 -0.23280481796E+02  0.37324162514E+02  0.52605190757E+03  0.00000000000E+00 0.  1.
<mgrwt>
<rscale>  0 0.13127046E+04</rscale>
<asrwt>0</asrwt>
<pdfrwt beam="1">  1        2 0.18688574E+00 0.13127046E+04</pdfrwt>
<pdfrwt beam="2">  1       -2 0.54559601E-01 0.13127046E+04</pdfrwt>
<totfact> 0.57455523E+01</totfact>
</mgrwt>
</event>
<event>
 6    1  0.9364335E-007  0.4408687E+04  0.7818608E-02  0.7926821E-01
          2   -1    0    0  501    0  0.00000000000E+00  0.00000000000E+00  0.31631353330E+04  0.31631353330E+04  0.00000000000E+00 0. -1.
         -2   -1    0    0    0  501 -0.00000000000E+00 -0.00000000000E+00 -0.15361752822E+04  0.15361752822E+04  0.00000000000E+00 0.  1.
         23    2    1    2    0    0 -0.13652235236E+04  0.88358246768E+03 -0.77084934021E+03  0.18020631073E+04  0.93110100906E+02 0.  0.
         13    1    3    3    0    0 -0.11109233645E+04  0.68422613723E+03 -0.64293354695E+03  0.14545376154E+04  0.00000000000E+00 0. -1.
        -13    1    3    3    0    0 -0.25430015907E+03  0.19935633045E+03 -0.12791579326E+03  0.34752549195E+03  0.00000000000E+00 0.  1.
         22    1    1    2    0    0  0.13652235236E+04 -0.88358246768E+03  0.23978093910E+04  0.28972475079E+04  0.00000000000E+00 0. -1.
<mgrwt>
<rscale>  0 0.44086870E+04</rscale>
<asrwt>0</asrwt>
<pdfrwt beam="1">  1        2 0.48663620E+00 0.44086870E+04</pdfrwt>
<pdfrwt beam="2">  1       -2 0.23633466E+00 0.44086870E+04</pdfrwt>
<totfact> 0.81580016E-02</totfact>
</mgrwt>
</event>
<event>
 6    1  0.9364335E-007  0.9434507E+03  0.7818608E-02  0.9372839E-01
         -1   -1    0    0    0  501 -0.00000000000E+00  0.00000000000E+00  0.23238003709E+03  0.23238003709E+03  0.00000000000E+00 0.  1.
          1   -1    0    0  501    0  0.00000000000E+00 -0.00000000000E+00 -0.95759005870E+03  0.95759005870E+03  0.00000000000E+00 0. -1.
         23    2    1    2    0    0  0.41894382115E+03 -0.13514666554E+03 -0.16949997010E+03  0.48103271644E+03  0.94253317901E+02 0.  0.
         11    1    3    3    0    0  0.14997039750E+03 -0.96770792097E+02 -0.67762140164E+02  0.19091205821E+03  0.00000000000E+00 0.  1.
        -11    1    3    3    0    0  0.26897342366E+03 -0.38375873439E+02 -0.10173782994E+03  0.29012065824E+03  0.00000000000E+00 0. -1.
         22    1    1    2    0    0 -0.41894382115E+03  0.13514666554E+03 -0.55571005151E+03  0.70893737935E+03  0.00000000000E+00 0.  1.
<mgrwt>
<rscale>  0 0.94345072E+03</rscale>
<asrwt>0</asrwt>
<pdfrwt beam="1">  1        1 0.14732154E+00 0.94345072E+03</pdfrwt>
<pdfrwt beam="2">  1       -1 0.35750776E-01 0.94345072E+03</pdfrwt>
<totfact> 0.12262149E+02</totfact>
</mgrwt>
</event>
<event>
 6    1  0.9364335E-007  0.6830828E+04  0.7818608E-02  0.7595138E-01
         -2   -1    0    0    0  501 -0.00000000000E+00  0.00000000000E+00  0.27063152372E+04  0.27063152372E+04  0.00000000000E+00 0.  1.
          2   -1    0    0  501    0  0.00000000000E+00 -0.00000000000E+00 -0.43103077814E+04  0.43103077814E+04  0.00000000000E+00 0. -1.
         23    2    1    2    0    0  0.15362644248E+04 -0.25300064370E+04  0.94709178988E+03  0.31090569944E+04  0.90617778845E+02 0.  0.
         13    1    3    3    0    0  0.11732819338E+04 -0.19142766499E+04  0.75770961922E+03  0.23696348781E+04  0.00000000000E+00 0. -1.
        -13    1    3    3    0    0  0.36298249102E+03 -0.61572978705E+03  0.18938217066E+03  0.73942211626E+03  0.00000000000E+00 0.  1.
         22    1    1    2    0    0 -0.15362644248E+04  0.25300064370E+04 -0.25510843341E+04  0.39075660242E+04  0.00000000000E+00 0. -1.
<mgrwt>
<rscale>  0 0.68308277E+04</rscale>
<asrwt>0</asrwt>
<pdfrwt beam="1">  1        2 0.66312427E+00 0.68308277E+04</pdfrwt>
<pdfrwt beam="2">  1       -2 0.41635619E+00 0.68308277E+04</pdfrwt>
<totfact> 0.67466891E-04</totfact>
</mgrwt>
</event>
<event>
 6    1  0.9364335E-007  0.5114488E+03  0.7818608E-02  0.1010833E+00
         -2   -1    0    0    0  501 -0.00000000000E+00  0.00000000000E+00  0.30751336794E+02  0.30751336794E+02  0.00000000000E+00 0.  1.
          2   -1    0    0  501    0  0.00000000000E+00 -0.00000000000E+00 -0.21265731977E+04  0.21265731977E+04  0.00000000000E+00 0. -1.
         23    2    1    2    0    0  0.73489393391E+02 -0.23633240915E+03 -0.11215510206E+04  0.11521094486E+04  0.90696148120E+02 0.  0.
         13    1    3    3    0    0  0.33596989895E+02 -0.82927186073E+02 -0.61107249527E+03  0.61758826932E+03  0.00000000000E+00 0. -1.
        -13    1    3    3    0    0  0.39892403496E+02 -0.15340522308E+03 -0.51047852528E+03  0.53452117928E+03  0.00000000000E+00 0.  1.
         22    1    1    2    0    0 -0.73489393391E+02  0.23633240915E+03 -0.97427084035E+03  0.10052150859E+04  0.00000000000E+00 0.  1.
<mgrwt>
<rscale>  0 0.51144880E+03</rscale>
<asrwt>0</asrwt>
<pdfrwt beam="1">  1        2 0.32716513E+00 0.51144880E+03</pdfrwt>
<pdfrwt beam="2">  1       -2 0.47309745E-02 0.51144880E+03</pdfrwt>
<totfact> 0.13304007E+03</totfact>
</mgrwt>
</event>
<event>
 6    1  0.9364335E-007  0.4530657E+03  0.7818608E-02  0.1026812E+00
         -2   -1    0    0    0  501 -0.00000000000E+00  0.00000000000E+00  0.35848605570E+03  0.35848605570E+03  0.00000000000E+00 0.  1.
          2   -1    0    0  501    0  0.00000000000E+00 -0.00000000000E+00 -0.14314958977E+03  0.14314958977E+03  0.00000000000E+00 0. -1.
         23    2    1    2    0    0 -0.19530104751E+03  0.97256724149E+02  0.10445089790E+03  0.25689705279E+03  0.86514369397E+02 0.  0.
         13    1    3    3    0    0 -0.13794432363E+03  0.69475235276E+02  0.27330944693E+02  0.15685160272E+03  0.00000000000E+00 0. -1.
        -13    1    3    3    0    0 -0.57356723880E+02  0.27781488873E+02  0.77119953203E+02  0.10004545007E+03  0.00000000000E+00 0.  1.
         22    1    1    2    0    0  0.19530104751E+03 -0.97256724149E+02  0.11088556803E+03  0.24473859268E+03  0.00000000000E+00 0.  1.
<mgrwt>
<rscale>  0 0.45306570E+03</rscale>
<asrwt>0</asrwt>
<pdfrwt beam="1">  1        2 0.22023014E-01 0.45306570E+03</pdfrwt>
<pdfrwt beam="2">  1       -2 0.55151700E-01 0.45306570E+03</pdfrwt>
<totfact> 0.78762670E+02</totfact>
</mgrwt>
</event>
<event>
 6    1  0.9364335E-007  0.2729406E+04  0.7818608E-02  0.8325526E-01
         -1   -1    0    0    0  501 -0.00000000000E+00  0.00000000000E+00  0.93762289607E+03  0.93762289607E+03  0.00000000000E+00 0.  1.
          1   -1    0    0  501    0  0.00000000000E+00 -0.00000000000E+00 -0.19863144754E+04  0.19863144754E+04  0.00000000000E+00 0. -1.
         23    2    1    2    0    0  0.10923140754E+04 -0.52645162103E+03  0.14226593339E+03  0.12243253141E+04  0.91823364552E+02 0.  0.
         11    1    3    3    0    0  0.22746591969E+03 -0.14418461527E+03  0.53774666790E+02  0.27463004696E+03  0.00000000000E+00 0. -1.
        -11    1    3    3    0    0  0.86484815570E+03 -0.38226700575E+03  0.88491266596E+02  0.94969526711E+03  0.00000000000E+00 0.  1.
         22    1    1    2    0    0 -0.10923140754E+04  0.52645162103E+03 -0.11909575127E+04  0.16996120574E+04  0.00000000000E+00 0. -1.
<mgrwt>
<rscale>  0 0.27294057E+04</rscale>
<asrwt>0</asrwt>
<pdfrwt beam="1">  1        1 0.30558684E+00 0.27294057E+04</pdfrwt>
<pdfrwt beam="2">  1       -1 0.14424968E+00 0.27294057E+04</pdfrwt>
<totfact> 0.10270646E+00</totfact>
</mgrwt>
</event>
<event>
 6    1  0.9364335E-007  0.1975586E+04  0.7818608E-02  0.8618121E-01
         -2   -1    0    0    0  501 -0.00000000000E+00  0.00000000000E+00  0.11804155187E+04  0.11804155187E+04  0.00000000000E+00 0.  1.
          2   -1    0    0  501    0  0.00000000000E+00 -0.00000000000E+00 -0.82660328969E+03  0.82660328969E+03  0.00000000000E+00 0. -1.
         23    2    1    2    0    0  0.12113800782E+03 -0.28017641615E+03 -0.77493282813E+03  0.83772900465E+03  0.89976419230E+02 0.  0.
         11    1    3    3    0    0  0.63500372435E+02 -0.82168035949E+02 -0.35521708877E+03  0.37008521124E+03  0.00000000000E+00 0.  1.
        -11    1    3    3    0    0  0.57637635384E+02 -0.19800838020E+03 -0.41971573937E+03  0.46764379341E+03  0.00000000000E+00 0. -1.
         22    1    1    2    0    0 -0.12113800782E+03  0.28017641615E+03  0.11287450571E+04  0.11692898037E+04  0.00000000000E+00 0.  1.
<mgrwt>
<rscale>  0 0.19755863E+04</rscale>
<asrwt>0</asrwt>
<pdfrwt beam="1">  1        2 0.12716974E+00 0.19755863E+04</pdfrwt>
<pdfrwt beam="2">  1       -2 0.18160239E+00 0.19755863E+04</pdfrwt>
<totfact> 0.54221879E+00</totfact>
</mgrwt>
</event>
<event>
 6    1  0.9364335E-007  0.4630179E+04  0.7818608E-02  0.7888234E-01
         -2   -1    0    0    0  501 -0.00000000000E+00  0.00000000000E+00  0.30059581520E+04  0.30059581520E+04  0.00000000000E+00 0.  1.
          2   -1    0    0  501    0  0.00000000000E+00 -0.00000000000E+00 -0.17830052887E+04  0.17830052887E+04  0.00000000000E+00 0. -1.
         23    2    1    2    0    0 -0.19051067715E+04 -0.13113832214E+04  0.69397114806E+03  0.24164164086E+04  0.91184106433E+02 0.  0.
         13    1    3    3    0    0 -0.15021193495E+04 -0.10330444043E+04  0.58560352006E+03  0.19148041059E+04  0.00000000000E+00 0.  1.
        -13    1    3    3    0    0 -0.40298742200E+03 -0.27833881708E+03  0.10836762799E+03  0.50161230266E+03  0.00000000000E+00 0. -1.
         22    1    1    2    0    0  0.19051067715E+04  0.13113832214E+04  0.52898171527E+03  0.23725470320E+04  0.00000000000E+00 0. -1.
<mgrwt>
<rscale>  0 0.46301790E+04</rscale>
<asrwt>0</asrwt>
<pdfrwt beam="1">  1        2 0.27430850E+00 0.46301790E+04</pdfrwt>
<pdfrwt beam="2">  1       -2 0.46245510E+00 0.46301790E+04</pdfrwt>
<totfact> 0.19039374E-02</totfact>
</mgrwt>
</event>
<event>
 6    1  0.9364335E-007  0.3173134E+04  0.7818608E-02  0.8195949E-01
          1   -1    0    0  501    0  0.00000000000E+00  0.00000000000E+00  0.17955749826E+04  0.17955749826E+04  0.00000000000E+00 0. -1.
         -1   -1    0    0    0  501 -0.00000000000E+00 -0.00000000000E+00 -0.14018881021E+04  0.14018881021E+04  0.00000000000E+00 0.  1.
         23    2    1    2    0    0  0.66831369659E+03  0.65226113847E+02 -0.12500021171E+04  0.14219036900E+04  0.91690609575E+02 0.  0.
         13    1    3    3    0    0  0.38659418345E+03  0.80637390149E+02 -0.69784990881E+03  0.80184284407E+03  0.00000000000E+00 0. -1.
        -13    1    3    3    0    0  0.28171951314E+03 -0.15411276301E+02 -0.55215220834E+03  0.62006084596E+03  0.00000000000E+00 0.  1.
         22    1    1    2    0    0 -0.66831369659E+03 -0.65226113847E+02  0.16436889977E+04  0.17755593947E+04  0.00000000000E+00 0. -1.
<mgrwt>
<rscale>  0 0.31731342E+04</rscale>
<asrwt>0</asrwt>
<pdfrwt beam="1">  1        1 0.27624230E+00 0.31731342E+04</pdfrwt>
<pdfrwt beam="2">  1       -1 0.21567509E+00 0.31731342E+04</pdfrwt>
<totfact> 0.40483467E-01</totfact>
</mgrwt>
</event>
<event>
 6    1  0.9364335E-007  0.1144129E+04  0.7818608E-02  0.9163217E-01
          2   -1    0    0  501    0  0.00000000000E+00  0.00000000000E+00  0.12415147707E+04  0.12415147707E+04  0.00000000000E+00 0. -1.
         -2   -1    0    0    0  501 -0.00000000000E+00 -0.00000000000E+00 -0.26359544670E+03  0.26359544670E+03  0.00000000000E+00 0.  1.
         23    2    1    2    0    0 -0.32697066916E+02  0.40921204067E+03  0.10092026088E+04  0.10934037245E+04  0.92294131673E+02 0.  0.
         11    1    3    3    0    0 -0.11304547506E+02  0.15510643252E+03  0.27171145382E+03  0.31307013965E+03  0.00000000000E+00 0. -1.
        -11    1    3    3    0    0 -0.21392519410E+02  0.25410560815E+03  0.73749115497E+03  0.78033358484E+03  0.00000000000E+00 0.  1.
         22    1    1    2    0    0  0.32697066916E+02 -0.40921204067E+03 -0.31283284766E+02  0.41170649293E+03  0.00000000000E+00 0.  1.
<mgrwt>
<rscale>  0 0.11441287E+04</rscale>
<asrwt>0</asrwt>
<pdfrwt beam="1">  1        2 0.19100227E+00 0.11441287E+04</pdfrwt>
<pdfrwt beam="2">  1       -2 0.40553146E-01 0.11441287E+04</pdfrwt>
<totfact> 0.10193213E+02</totfact>
</mgrwt>
</event>
<event>
 6    1  0.9364335E-007  0.6675416E+03  0.7818608E-02  0.9774409E-01
         -2   -1    0    0    0  501 -0.00000000000E+00  0.00000000000E+00  0.90865597590E+02  0.90865597590E+02  0.00000000000E+00 0.  1.
          2   -1    0    0  501    0  0.00000000000E+00 -0.00000000000E+00 -0.12260189454E+04  0.12260189454E+04  0.00000000000E+00 0. -1.
         23    2    1    2    0    0 -0.11404941306E+03 -0.17156160447E+03 -0.10135561447E+03  0.26276006922E+03  0.12778591723E+03 0.  0.
         13    1    3    3    0    0 -0.91432071581E+02 -0.29314949689E+02 -0.22757143248E+02  0.98676631264E+02  0.00000000000E+00 0. -1.
        -13    1    3    3    0    0 -0.22617341484E+02 -0.14224665478E+03 -0.78598471226E+02  0.16408343796E+03  0.00000000000E+00 0.  1.
         22    1    1    2    0    0  0.11404941306E+03  0.17156160447E+03 -0.10337977333E+04  0.10541244737E+04  0.00000000000E+00 0. -1.
<mgrwt>
<rscale>  0 0.66754159E+03</rscale>
<asrwt>0</asrwt>
<pdfrwt beam="1">  1        2 0.18861830E+00 0.66754159E+03</pdfrwt>
<pdfrwt beam="2">  1       -2 0.13979323E-01 0.66754159E+03</pdfrwt>
<totfact> 0.72894782E+02</totfact>
</mgrwt>
</event>
<event>
 6    1  0.9364335E-007  0.1738987E+04  0.7818608E-02  0.8739436E-01
          1   -1    0    0  501    0  0.00000000000E+00  0.00000000000E+00  0.96230443200E+03  0.96230443200E+03  0.00000000000E+00 0. -1.
         -1   -1    0    0    0  501 -0.00000000000E+00 -0.00000000000E+00 -0.78563430726E+03  0.78563430726E+03  0.00000000000E+00 0.  1.
         23    2    1    2    0    0 -0.44800538186E+02 -0.64630165486E+03 -0.48981975219E+03  0.81846487016E+03  0.10123456298E+03 0.  0.
         13    1    3    3    0    0  0.62071406417E+01 -0.50505175544E+03 -0.36467779952E+03  0.62298130127E+03  0.00000000000E+00 0.  1.
        -13    1    3    3    0    0 -0.51007678827E+02 -0.14124989942E+03 -0.12514195268E+03  0.19548356889E+03  0.00000000000E+00 0. -1.
         22    1    1    2    0    0  0.44800538186E+02  0.64630165486E+03  0.66648987692E+03  0.92947386910E+03  0.00000000000E+00 0. -1.
<mgrwt>
<rscale>  0 0.17389875E+04</rscale>
<asrwt>0</asrwt>
<pdfrwt beam="1">  1        1 0.14804683E+00 0.17389875E+04</pdfrwt>
<pdfrwt beam="2">  1       -1 0.12086682E+00 0.17389875E+04</pdfrwt>
<totfact> 0.93499680E+00</totfact>
</mgrwt>
</event>
<event>
 6    1  0.9364335E-007  0.1185605E+04  0.7818608E-02  0.9125551E-01
         -1   -1    0    0    0  501 -0.00000000000E+00  0.00000000000E+00  0.57461088689E+03  0.57461088689E+03  0.00000000000E+00 0.  1.
          1   -1    0    0  501    0  0.00000000000E+00 -0.00000000000E+00 -0.61156964670E+03  0.61156964670E+03  0.00000000000E+00 0. -1.
         23    2    1    2    0    0  0.42852046648E+03 -0.32851971864E+03  0.21659391888E+03  0.58965395698E+03  0.96040968109E+02 0.  0.
         13    1    3    3    0    0  0.19289901073E+03 -0.16568977801E+03  0.52792949055E+02  0.25971181403E+03  0.00000000000E+00 0.  1.
        -13    1    3    3    0    0  0.23562145575E+03 -0.16282994063E+03  0.16380096983E+03  0.32994214295E+03  0.00000000000E+00 0. -1.
         22    1    1    2    0    0 -0.42852046648E+03  0.32851971864E+03 -0.25355267869E+03  0.59652657661E+03  0.00000000000E+00 0. -1.
<mgrwt>
<rscale>  0 0.11856046E+04</rscale>
<asrwt>0</asrwt>
<pdfrwt beam="1">  1        1 0.94087638E-01 0.11856046E+04</pdfrwt>
<pdfrwt beam="2">  1       -1 0.88401675E-01 0.11856046E+04</pdfrwt>
<totfact> 0.41494586E+01</totfact>
</mgrwt>
</event>
<event>
 6    1  0.9364335E-007  0.4842431E+04  0.7818608E-02  0.7853284E-01
         -2   -1    0    0    0  501 -0.00000000000E+00  0.00000000000E+00  0.20963377729E+04  0.20963377729E+04  0.00000000000E+00 0.  1.
          2   -1    0    0  501    0  0.00000000000E+00 -0.00000000000E+00 -0.27964402614E+04  0.27964402614E+04  0.00000000000E+00 0. -1.
         23    2    1    2    0    0  0.99619759193E+03  0.14719394953E+04 -0.20101417576E+04  0.26847883589E+04  0.91668566957E+02 0.  0.
         11    1    3    3    0    0  0.30753347691E+03  0.40304102111E+03 -0.61844209010E+03  0.79968088818E+03  0.00000000000E+00 0.  1.
        -11    1    3    3    0    0  0.68866411502E+03  0.10688984742E+04 -0.13916996675E+04  0.18851074707E+04  0.00000000000E+00 0. -1.
         22    1    1    2    0    0 -0.99619759193E+03 -0.14719394953E+04  0.13100392692E+04  0.22079896754E+04  0.00000000000E+00 0.  1.
<mgrwt>
<rscale>  0 0.48424305E+04</rscale>
<asrwt>0</asrwt>
<pdfrwt beam="1">  1        2 0.43022158E+00 0.48424305E+04</pdfrwt>
<pdfrwt beam="2">  1       -2 0.32251351E+00 0.48424305E+04</pdfrwt>
<totfact> 0.39569897E-02</totfact>
</mgrwt>
</event>
<event>
 6    1  0.9364335E-007  0.2607406E+04  0.7818608E-02  0.8365690E-01
          1   -1    0    0  501    0  0.00000000000E+00  0.00000000000E+00  0.38980062439E+04  0.38980062439E+04  0.00000000000E+00 0. -1.
         -1   -1    0    0    0  501 -0.00000000000E+00 -0.00000000000E+00 -0.43602825501E+03  0.43602825501E+03  0.00000000000E+00 0.  1.
         23    2    1    2    0    0  0.17367721623E+03  0.11091219551E+04  0.63360088011E+03  0.12910043715E+04  0.70192059493E+02 0.  0.
         11    1    3    3    0    0  0.63339668786E+02  0.58097052169E+03  0.35468519919E+03  0.68362288672E+03  0.00000000000E+00 0. -1.
        -11    1    3    3    0    0  0.11033754744E+03  0.52815143344E+03  0.27891568092E+03  0.60738148480E+03  0.00000000000E+00 0.  1.
         22    1    1    2    0    0 -0.17367721623E+03 -0.11091219551E+04  0.28283771088E+04  0.30430301274E+04  0.00000000000E+00 0.  1.
<mgrwt>
<rscale>  0 0.26074055E+04</rscale>
<asrwt>0</asrwt>
<pdfrwt beam="1">  1        1 0.59969324E+00 0.26074055E+04</pdfrwt>
<pdfrwt beam="2">  1       -1 0.67081273E-01 0.26074055E+04</pdfrwt>
<totfact> 0.23350225E-01</totfact>
</mgrwt>
</event>
<event>
 6    1  0.9364335E-007  0.2125147E+04  0.7818608E-02  0.8550246E-01
          1   -1    0    0  501    0  0.00000000000E+00  0.00000000000E+00  0.54042284961E+03  0.54042284961E+03  0.00000000000E+00 0. -1.
         -1   -1    0    0    0  501 -0.00000000000E+00 -0.00000000000E+00 -0.20892208645E+04  0.20892208645E+04  0.00000000000E+00 0.  1.
         23    2    1    2    0    0  0.40654558529E+03  0.31465469520E+03  0.37196823075E+03  0.64127004185E+03  0.92628352859E+02 0.  0.
         11    1    3    3    0    0  0.53774135315E+02  0.86365799668E+02  0.83048032630E+02  0.13133044089E+03  0.00000000000E+00 0.  1.
        -11    1    3    3    0    0  0.35277144998E+03  0.22828889553E+03  0.28892019812E+03  0.50993960096E+03  0.00000000000E+00 0. -1.
         22    1    1    2    0    0 -0.40654558529E+03 -0.31465469520E+03 -0.19207662457E+04  0.19883736723E+04  0.00000000000E+00 0.  1.
<mgrwt>
<rscale>  0 0.21251472E+04</rscale>
<asrwt>0</asrwt>
<pdfrwt beam="1">  1        1 0.83141978E-01 0.21251472E+04</pdfrwt>
<pdfrwt beam="2">  1       -1 0.32141859E+00 0.21251472E+04</pdfrwt>
<totfact> 0.87497281E-01</totfact>
</mgrwt>
</event>
<event>
 6    1  0.1399271E-006  0.4105551E+04  0.7818608E-02  0.7983586E-01
          1   -1    0    0  501    0  0.00000000000E+00  0.00000000000E+00  0.22419813228E+04  0.22419813228E+04  0.00000000000E+00 0. -1.
         -1   -1    0    0    0  501 -0.00000000000E+00 -0.00000000000E+00 -0.18795375997E+04  0.18795375997E+04  0.00000000000E+00 0.  1.
         23    2    1    2    0    0  0.91597499945E+03  0.11371843125E+04 -0.12657214179E+04  0.19344843808E+04  0.89335052753E+02 0.  0.
         13    1    3    3    0    0  0.62390317667E+03  0.70787066664E+03 -0.82792248138E+03  0.12553054169E+04  0.00000000000E+00 0. -1.
        -13    1    3    3    0    0  0.29207182278E+03  0.42931364589E+03 -0.43779893648E+03  0.67917896389E+03  0.00000000000E+00 0.  1.
         22    1    1    2    0    0 -0.91597499945E+03 -0.11371843125E+04  0.16281651409E+04  0.21870345417E+04  0.00000000000E+00 0. -1.
<mgrwt>
<rscale>  0 0.41055515E+04</rscale>
<asrwt>0</asrwt>
<pdfrwt beam="1">  1        1 0.34492020E+00 0.41055515E+04</pdfrwt>
<pdfrwt beam="2">  1       -1 0.28915963E+00 0.41055515E+04</pdfrwt>
<totfact> 0.61438808E-02</totfact>
</mgrwt>
</event>
<event>
 6    1  0.9364335E-007  0.3033779E+04  0.7818608E-02  0.8234150E-01
          2   -1    0    0  501    0  0.00000000000E+00  0.00000000000E+00  0.15020867745E+04  0.15020867745E+04  0.00000000000E+00 0. -1.
         -2   -1    0    0    0  501 -0.00000000000E+00 -0.00000000000E+00 -0.15318382987E+04  0.15318382987E+04  0.00000000000E+00 0.  1.
         23    2    1    2    0    0 -0.15129286628E+04 -0.28126829369E+01  0.73922397487E+02  0.15174458178E+04  0.90643471617E+02 0.  0.
         13    1    3    3    0    0 -0.50314785215E+03  0.25550821526E+02  0.58176041644E+02  0.50714402040E+03  0.00000000000E+00 0.  1.
        -13    1    3    3    0    0 -0.10097808107E+04 -0.28363504463E+02  0.15746355843E+02  0.10103017974E+04  0.00000000000E+00 0. -1.
         22    1    1    2    0    0  0.15129286628E+04  0.28126829369E+01 -0.10367392173E+03  0.15164792554E+04  0.00000000000E+00 0.  1.
<mgrwt>
<rscale>  0 0.30337792E+04</rscale>
<asrwt>0</asrwt>
<pdfrwt beam="1">  1        2 0.23109027E+00 0.30337792E+04</pdfrwt>
<pdfrwt beam="2">  1       -2 0.23566743E+00 0.30337792E+04</pdfrwt>
<totfact> 0.85170495E-01</totfact>
</mgrwt>
</event>
<event>
 6    1  0.9364335E-007  0.2655046E+04  0.7818608E-02  0.8349740E-01
          1   -1    0    0  501    0  0.00000000000E+00  0.00000000000E+00  0.14842143365E+04  0.14842143365E+04  0.00000000000E+00 0. -1.
         -1   -1    0    0    0  501 -0.00000000000E+00 -0.00000000000E+00 -0.11873742976E+04  0.11873742976E+04  0.00000000000E+00 0.  1.
         23    2    1    2    0    0  0.65207653964E+03  0.83517754452E+03  0.95056254628E+03  0.14265671640E+04  0.93804981758E+02 0.  0.
         13    1    3    3    0    0  0.26292373348E+03  0.39560107721E+03  0.38586778653E+03  0.61198288424E+03  0.00000000000E+00 0.  1.
        -13    1    3    3    0    0  0.38915280615E+03  0.43957646731E+03  0.56469475975E+03  0.81458427976E+03  0.00000000000E+00 0. -1.
         22    1    1    2    0    0 -0.65207653964E+03 -0.83517754452E+03 -0.65372250735E+03  0.12450214701E+04  0.00000000000E+00 0.  1.
<mgrwt>
<rscale>  0 0.26550465E+04</rscale>
<asrwt>0</asrwt>
<pdfrwt beam="1">  1        1 0.22834067E+00 0.26550465E+04</pdfrwt>
<pdfrwt beam="2">  1       -1 0.18267297E+00 0.26550465E+04</pdfrwt>
<totfact> 0.11710877E+00</totfact>
</mgrwt>
</event>
<event>
 6    1  0.9364335E-007  0.2538251E+04  0.7818608E-02  0.8389484E-01
          1   -1    0    0  501    0  0.00000000000E+00  0.00000000000E+00  0.68363067674E+03  0.68363067674E+03  0.00000000000E+00 0. -1.
         -1   -1    0    0    0  501 -0.00000000000E+00 -0.00000000000E+00 -0.23560660078E+04  0.23560660078E+04  0.00000000000E+00 0.  1.
         23    2    1    2    0    0 -0.10145322611E+03  0.11008008360E+04 -0.15800710829E+04  0.19303786995E+04  0.87647356904E+02 0.  0.
         13    1    3    3    0    0 -0.32782175426E+02  0.53957492845E+03 -0.70200212302E+03  0.88601509873E+03  0.00000000000E+00 0. -1.
        -13    1    3    3    0    0 -0.68671050680E+02  0.56122590753E+03 -0.87806895983E+03  0.10443636008E+04  0.00000000000E+00 0.  1.
         22    1    1    2    0    0  0.10145322611E+03 -0.11008008360E+04 -0.92364248249E+02  0.11093179850E+04  0.00000000000E+00 0. -1.
<mgrwt>
<rscale>  0 0.25382506E+04</rscale>
<asrwt>0</asrwt>
<pdfrwt beam="1">  1        1 0.10517395E+00 0.25382506E+04</pdfrwt>
<pdfrwt beam="2">  1       -1 0.36247170E+00 0.25382506E+04</pdfrwt>
<totfact> 0.32097376E-01</totfact>
</mgrwt>
</event>
<event>
 6    1  0.9364335E-007  0.1879954E+04  0.7818608E-02  0.8664900E-01
         -2   -1    0    0    0  501 -0.00000000000E+00  0.00000000000E+00  0.63714846537E+03  0.63714846537E+03  0.00000000000E+00 0.  1.
          2   -1    0    0  501    0  0.00000000000E+00 -0.00000000000E+00 -0.13867355002E+04  0.13867355002E+04  0.00000000000E+00 0. -1.
         23    2    1    2    0    0 -0.86511097251E+03 -0.20717902650E+03 -0.69521709905E+03  0.11326509804E+04  0.90726428926E+02 0.  0.
         13    1    3    3    0    0 -0.69843049593E+02 -0.42186343806E+01 -0.29844294429E+02  0.76069247153E+02  0.00000000000E+00 0. -1.
        -13    1    3    3    0    0 -0.79526792292E+03 -0.20296039212E+03 -0.66537280462E+03  0.10565817333E+04  0.00000000000E+00 0.  1.
         22    1    1    2    0    0  0.86511097251E+03  0.20717902650E+03 -0.54369935739E+02  0.89123298508E+03  0.00000000000E+00 0. -1.
<mgrwt>
<rscale>  0 0.18799536E+04</rscale>
<asrwt>0</asrwt>
<pdfrwt beam="1">  1        2 0.21334392E+00 0.18799536E+04</pdfrwt>
<pdfrwt beam="2">  1       -2 0.98022842E-01 0.18799536E+04</pdfrwt>
<totfact> 0.11963708E+01</totfact>
</mgrwt>
</event>
<event>
 6    1  0.9364335E-007  0.3045617E+04  0.7818608E-02  0.8230823E-01
          1   -1    0    0  501    0  0.00000000000E+00  0.00000000000E+00  0.28165879965E+04  0.28165879965E+04  0.00000000000E+00 0. -1.
         -1   -1    0    0    0  501 -0.00000000000E+00 -0.00000000000E+00 -0.82331717529E+03  0.82331717529E+03  0.00000000000E+00 0.  1.
         23    2    1    2    0    0 -0.61419004527E+03  0.14396330331E+02 -0.66593608494E+03  0.91065288668E+03  0.91548592330E+02 0.  0.
         13    1    3    3    0    0 -0.41835172039E+03  0.23550416737E+02 -0.51061699907E+03  0.66053198546E+03  0.00000000000E+00 0. -1.
        -13    1    3    3    0    0 -0.19583832488E+03 -0.91540864059E+01 -0.15531908587E+03  0.25012090122E+03  0.00000000000E+00 0.  1.
         22    1    1    2    0    0  0.61419004527E+03 -0.14396330331E+02  0.26592069061E+04  0.27292522851E+04  0.00000000000E+00 0. -1.
<mgrwt>
<rscale>  0 0.30456167E+04</rscale>
<asrwt>0</asrwt>
<pdfrwt beam="1">  1        1 0.43332123E+00 0.30456167E+04</pdfrwt>
<pdfrwt beam="2">  1       -1 0.12666418E+00 0.30456167E+04</pdfrwt>
<totfact> 0.37199503E-01</totfact>
</mgrwt>
</event>
<event>
 6    1  0.9364335E-007  0.2836340E+04  0.7818608E-02  0.8292074E-01
          1   -1    0    0  501    0  0.00000000000E+00  0.00000000000E+00  0.24926628498E+04  0.24926628498E+04  0.00000000000E+00 0. -1.
         -1   -1    0    0    0  501 -0.00000000000E+00 -0.00000000000E+00 -0.80685059854E+03  0.80685059854E+03  0.00000000000E+00 0.  1.
         23    2    1    2    0    0  0.61703099626E+03 -0.68543302614E+03 -0.40718070142E+03  0.10123393877E+04  0.92137010038E+02 0.  0.
         13    1    3    3    0    0  0.47577127660E+03 -0.49825809908E+03 -0.34089563877E+03  0.76865419889E+03  0.00000000000E+00 0. -1.
        -13    1    3    3    0    0  0.14125971966E+03 -0.18717492706E+03 -0.66285062659E+02  0.24368518882E+03  0.00000000000E+00 0.  1.
         22    1    1    2    0    0 -0.61703099626E+03  0.68543302614E+03  0.20929929527E+04  0.22871740607E+04  0.00000000000E+00 0. -1.
<mgrwt>
<rscale>  0 0.28363403E+04</rscale>
<asrwt>0</asrwt>
<pdfrwt beam="1">  1        1 0.38348659E+00 0.28363403E+04</pdfrwt>
<pdfrwt beam="2">  1       -1 0.12413086E+00 0.28363403E+04</pdfrwt>
<totfact> 0.67334573E-01</totfact>
</mgrwt>
</event>
<event>
 6    1  0.9364335E-007  0.1832057E+04  0.7818608E-02  0.8689435E-01
         -1   -1    0    0    0  501 -0.00000000000E+00  0.00000000000E+00  0.62190164968E+03  0.62190164968E+03  0.00000000000E+00 0.  1.
          1   -1    0    0  501    0  0.00000000000E+00 -0.00000000000E+00 -0.13492621084E+04  0.13492621084E+04  0.00000000000E+00 0. -1.
         23    2    1    2    0    0 -0.46537389974E+03  0.57044803117E+03 -0.94688263402E+03  0.12029360521E+04  0.92111888767E+02 0.  0.
         13    1    3    3    0    0 -0.33433286551E+03  0.34182611827E+03 -0.59466369567E+03  0.76305207623E+03  0.00000000000E+00 0.  1.
        -13    1    3    3    0    0 -0.13104103423E+03  0.22862191290E+03 -0.35221893835E+03  0.43988397589E+03  0.00000000000E+00 0. -1.
         22    1    1    2    0    0  0.46537389974E+03 -0.57044803117E+03  0.21952217527E+03  0.76822770600E+03  0.00000000000E+00 0.  1.
<mgrwt>
<rscale>  0 0.18320571E+04</rscale>
<asrwt>0</asrwt>
<pdfrwt beam="1">  1        1 0.20757878E+00 0.18320571E+04</pdfrwt>
<pdfrwt beam="2">  1       -1 0.95677178E-01 0.18320571E+04</pdfrwt>
<totfact> 0.82738586E+00</totfact>
</mgrwt>
</event>
<event>
 6    1  0.9364335E-007  0.2310542E+04  0.7818608E-02  0.8473776E-01
          2   -1    0    0  501    0  0.00000000000E+00  0.00000000000E+00  0.12554769872E+04  0.12554769872E+04  0.00000000000E+00 0. -1.
         -2   -1    0    0    0  501 -0.00000000000E+00 -0.00000000000E+00 -0.10630625507E+04  0.10630625507E+04  0.00000000000E+00 0.  1.
         23    2    1    2    0    0  0.44098100515E+02 -0.98977987262E+03 -0.49634112722E+03  0.11118941612E+04  0.91352462402E+02 0.  0.
         11    1    3    3    0    0  0.17070392581E+00 -0.72224198731E+03 -0.33240141292E+03  0.79506239798E+03  0.00000000000E+00 0. -1.
        -11    1    3    3    0    0  0.43927396589E+02 -0.26753788530E+03 -0.16393971430E+03  0.31683176319E+03  0.00000000000E+00 0.  1.
         22    1    1    2    0    0 -0.44098100515E+02  0.98977987262E+03  0.68875556368E+03  0.12066453767E+04  0.00000000000E+00 0. -1.
<mgrwt>
<rscale>  0 0.23105416E+04</rscale>
<asrwt>0</asrwt>
<pdfrwt beam="1">  1        2 0.19315031E+00 0.23105416E+04</pdfrwt>
<pdfrwt beam="2">  1       -2 0.16354808E+00 0.23105416E+04</pdfrwt>
<totfact> 0.37728384E+00</totfact>
</mgrwt>
</event>
<event>
 6    1  0.9364335E-007  0.2023849E+04  0.7818608E-02  0.8595551E-01
         -1   -1    0    0    0  501 -0.00000000000E+00  0.00000000000E+00  0.10339870726E+04  0.10339870726E+04  0.00000000000E+00 0.  1.
          1   -1    0    0  501    0  0.00000000000E+00 -0.00000000000E+00 -0.99033240905E+03  0.99033240905E+03  0.00000000000E+00 0. -1.
         23    2    1    2    0    0 -0.73070456963E+03 -0.36027108626E+03 -0.57514966458E+03  0.10012636571E+04  0.89483801048E+02 0.  0.
         11    1    3    3    0    0 -0.12786828850E+03 -0.10031146209E+03 -0.99424054582E+02  0.19051989728E+03  0.00000000000E+00 0. -1.
        -11    1    3    3    0    0 -0.60283628113E+03 -0.25995962417E+03 -0.47572561000E+03  0.81074375980E+03  0.00000000000E+00 0.  1.
         22    1    1    2    0    0  0.73070456963E+03  0.36027108626E+03  0.61880432814E+03  0.10230558246E+04  0.00000000000E+00 0. -1.
<mgrwt>
<rscale>  0 0.20238487E+04</rscale>
<asrwt>0</asrwt>
<pdfrwt beam="1">  1        1 0.15235883E+00 0.20238487E+04</pdfrwt>
<pdfrwt beam="2">  1       -1 0.15907493E+00 0.20238487E+04</pdfrwt>
<totfact> 0.42338430E+00</totfact>
</mgrwt>
</event>
<event>
 6    1  0.9364335E-007  0.1052662E+04  0.7818608E-02  0.9252600E-01
          1   -1    0    0  501    0  0.00000000000E+00  0.00000000000E+00  0.54540657566E+03  0.54540657566E+03  0.00000000000E+00 0. -1.
         -1   -1    0    0    0  501 -0.00000000000E+00 -0.00000000000E+00 -0.50792289761E+03  0.50792289761E+03  0.00000000000E+00 0.  1.
         23    2    1    2    0    0  0.40884844712E+02  0.51374241751E+03  0.10413568839E+03  0.53367061156E+03  0.91417930270E+02 0.  0.
         11    1    3    3    0    0  0.46459328165E+02  0.33264601323E+03  0.27666653609E+02  0.33701228911E+03  0.00000000000E+00 0.  1.
        -11    1    3    3    0    0 -0.55744834533E+01  0.18109640428E+03  0.76469034782E+02  0.19665832245E+03  0.00000000000E+00 0. -1.
         22    1    1    2    0    0 -0.40884844712E+02 -0.51374241751E+03 -0.66652010335E+02  0.51965886171E+03  0.00000000000E+00 0.  1.
<mgrwt>
<rscale>  0 0.10526623E+04</rscale>
<asrwt>0</asrwt>
<pdfrwt beam="1">  1        1 0.83908704E-01 0.10526623E+04</pdfrwt>
<pdfrwt beam="2">  1       -1 0.78141984E-01 0.10526623E+04</pdfrwt>
<totfact> 0.64370157E+01</totfact>
</mgrwt>
</event>
<event>
 6    1  0.9364335E-007  0.2527006E+04  0.7818608E-02  0.8393427E-01
         -2   -1    0    0    0  501 -0.00000000000E+00  0.00000000000E+00  0.66900374196E+03  0.66900374196E+03  0.00000000000E+00 0.  1.
          2   -1    0    0  501    0  0.00000000000E+00 -0.00000000000E+00 -0.23862934741E+04  0.23862934741E+04  0.00000000000E+00 0. -1.
         23    2    1    2    0    0  0.11122659744E+04 -0.34528156550E+03 -0.14469748374E+04  0.18597115439E+04  0.91847097149E+02 0.  0.
         11    1    3    3    0    0  0.56969949812E+03 -0.19780312887E+03 -0.81444858665E+03  0.10134150661E+04  0.00000000000E+00 0. -1.
        -11    1    3    3    0    0  0.54256647624E+03 -0.14747843663E+03 -0.63252625073E+03  0.84629647776E+03  0.00000000000E+00 0.  1.
         22    1    1    2    0    0 -0.11122659744E+04  0.34528156550E+03 -0.27031489475E+03  0.11955856722E+04  0.00000000000E+00 0.  1.
<mgrwt>
<rscale>  0 0.25270056E+04</rscale>
<asrwt>0</asrwt>
<pdfrwt beam="1">  1        2 0.36712207E+00 0.25270056E+04</pdfrwt>
<pdfrwt beam="2">  1       -2 0.10292365E+00 0.25270056E+04</pdfrwt>
<totfact> 0.27774435E+00</totfact>
</mgrwt>
</event>
<event>
 6    1  0.9364335E-007  0.2135774E+04  0.7818608E-02  0.8545646E-01
         -2   -1    0    0    0  501 -0.00000000000E+00  0.00000000000E+00  0.26273187415E+04  0.26273187415E+04  0.00000000000E+00 0.  1.
          2   -1    0    0  501    0  0.00000000000E+00 -0.00000000000E+00 -0.43404795771E+03  0.43404795771E+03  0.00000000000E+00 0. -1.
         23    2    1    2    0    0 -0.12532103369E+02 -0.86406266102E+03  0.20432843467E+03  0.89280657694E+03  0.92693790602E+02 0.  0.
         11    1    3    3    0    0 -0.35134531908E+02 -0.63027947517E+03  0.11573239860E+03  0.64177927689E+03  0.00000000000E+00 0.  1.
        -11    1    3    3    0    0  0.22602428539E+02 -0.23378318585E+03  0.88596036073E+02  0.25102730005E+03  0.00000000000E+00 0. -1.
         22    1    1    2    0    0  0.12532103369E+02  0.86406266102E+03  0.19889423492E+04  0.21685601223E+04  0.00000000000E+00 0.  1.
<mgrwt>
<rscale>  0 0.21357737E+04</rscale>
<asrwt>0</asrwt>
<pdfrwt beam="1">  1        2 0.66776611E-01 0.21357737E+04</pdfrwt>
<pdfrwt beam="2">  1       -2 0.40420287E+00 0.21357737E+04</pdfrwt>
<totfact> 0.46484889E-01</totfact>
</mgrwt>
</event>
<event>
 6    1  0.9364335E-007  0.1152364E+04  0.7818608E-02  0.9155605E-01
          3   -1    0    0  501    0  0.00000000000E+00  0.00000000000E+00  0.13065225041E+04  0.13065225041E+04  0.00000000000E+00 0. -1.
         -3   -1    0    0    0  501 -0.00000000000E+00 -0.00000000000E+00 -0.25409880478E+03  0.25409880478E+03  0.00000000000E+00 0.  1.
         23    2    1    2    0    0  0.38814159096E+03 -0.21019304325E+03  0.34698091373E+02  0.45129699961E+03  0.87349952748E+02 0.  0.
         13    1    3    3    0    0  0.21655257498E+03 -0.70566877605E+02  0.27099065506E+01  0.22777630592E+03  0.00000000000E+00 0. -1.
        -13    1    3    3    0    0  0.17158901598E+03 -0.13962616564E+03  0.31988184823E+02  0.22352069369E+03  0.00000000000E+00 0.  1.
         22    1    1    2    0    0 -0.38814159096E+03  0.21019304325E+03  0.10177256079E+04  0.11093243093E+04  0.00000000000E+00 0. -1.
<mgrwt>
<rscale>  0 0.11523642E+04</rscale>
<asrwt>0</asrwt>
<pdfrwt beam="1">  1        3 0.20100346E+00 0.11523642E+04</pdfrwt>
<pdfrwt beam="2">  1       -3 0.39092125E-01 0.11523642E+04</pdfrwt>
<totfact> 0.24542232E+00</totfact>
</mgrwt>
</event>
<event>
 6    1  0.9364335E-007  0.1251482E+04  0.7818608E-02  0.9068951E-01
          2   -1    0    0  501    0  0.00000000000E+00  0.00000000000E+00  0.66708559976E+03  0.66708559976E+03  0.00000000000E+00 0. -1.
         -2   -1    0    0    0  501 -0.00000000000E+00 -0.00000000000E+00 -0.58695904598E+03  0.58695904598E+03  0.00000000000E+00 0.  1.
         23    2    1    2    0    0 -0.55742276354E+02  0.55968183458E+03 -0.22740910692E+03  0.61300709619E+03  0.87817086845E+02 0.  0.
         13    1    3    3    0    0  0.92522128781E+01  0.25664752253E+03 -0.74432597908E+02  0.26738318177E+03  0.00000000000E+00 0. -1.
        -13    1    3    3    0    0 -0.64994489232E+02  0.30303431205E+03 -0.15297650901E+03  0.34562391442E+03  0.00000000000E+00 0.  1.
         22    1    1    2    0    0  0.55742276354E+02 -0.55968183458E+03  0.30753566069E+03  0.64103754955E+03  0.00000000000E+00 0. -1.
<mgrwt>
<rscale>  0 0.12514822E+04</rscale>
<asrwt>0</asrwt>
<pdfrwt beam="1">  1        2 0.10262855E+00 0.12514822E+04</pdfrwt>
<pdfrwt beam="2">  1       -2 0.90301391E-01 0.12514822E+04</pdfrwt>
<totfact> 0.44913689E+01</totfact>
</mgrwt>
</event>
<event>
 6    1  0.9364335E-007  0.7672740E+03  0.7818608E-02  0.9608633E-01
          1   -1    0    0  501    0  0.00000000000E+00  0.00000000000E+00  0.71053476031E+03  0.71053476031E+03  0.00000000000E+00 0. -1.
         -1   -1    0    0    0  501 -0.00000000000E+00 -0.00000000000E+00 -0.20713602935E+03  0.20713602935E+03  0.00000000000E+00 0.  1.
         23    2    1    2    0    0 -0.25661743929E+03 -0.17290363061E+03  0.51478965838E+03  0.60802917610E+03  0.94566965640E+02 0.  0.
         13    1    3    3    0    0 -0.32056109678E+02 -0.65884089503E+02  0.14328093687E+03  0.16092773001E+03  0.00000000000E+00 0. -1.
        -13    1    3    3    0    0 -0.22456132961E+03 -0.10701954111E+03  0.37150872151E+03  0.44710144609E+03  0.00000000000E+00 0.  1.
         22    1    1    2    0    0  0.25661743929E+03  0.17290363061E+03 -0.11390927421E+02  0.30964161357E+03  0.00000000000E+00 0.  1.
<mgrwt>
<rscale>  0 0.76727400E+03</rscale>
<asrwt>0</asrwt>
<pdfrwt beam="1">  1        1 0.10931304E+00 0.76727400E+03</pdfrwt>
<pdfrwt beam="2">  1       -1 0.31867082E-01 0.76727400E+03</pdfrwt>
<totfact> 0.24685361E+02</totfact>
</mgrwt>
</event>
<event>
 6    1  0.9364335E-007  0.1045480E+04  0.7818608E-02  0.9260023E-01
         -3   -1    0    0    0  501 -0.00000000000E+00  0.00000000000E+00  0.31697298141E+03  0.31697298141E+03  0.00000000000E+00 0.  1.
          3   -1    0    0  501    0  0.00000000000E+00 -0.00000000000E+00 -0.86208348590E+03  0.86208348590E+03  0.00000000000E+00 0. -1.
         23    2    1    2    0    0  0.19903411422E+03  0.31211031504E+03  0.13530524535E+03  0.40446430365E+03  0.90864933446E+02 0.  0.
         11    1    3    3    0    0  0.13899598606E+03  0.14476641102E+03  0.95591818402E+02  0.22229483495E+03  0.00000000000E+00 0. -1.
        -11    1    3    3    0    0  0.60038128159E+02  0.16734390402E+03  0.39713426944E+02  0.18216946870E+03  0.00000000000E+00 0.  1.
         22    1    1    2    0    0 -0.19903411422E+03 -0.31211031504E+03 -0.68041574984E+03  0.77459216366E+03  0.00000000000E+00 0. -1.
<mgrwt>
<rscale>  0 0.10454801E+04</rscale>
<asrwt>0</asrwt>
<pdfrwt beam="1">  1        3 0.13262823E+00 0.10454801E+04</pdfrwt>
<pdfrwt beam="2">  1       -3 0.48765074E-01 0.10454801E+04</pdfrwt>
<totfact> 0.48244361E+00</totfact>
</mgrwt>
</event>
<event>
 6    1  0.9364335E-007  0.2306842E+04  0.7818608E-02  0.8475228E-01
         -2   -1    0    0    0  501 -0.00000000000E+00  0.00000000000E+00  0.10960771616E+04  0.10960771616E+04  0.00000000000E+00 0.  1.
          2   -1    0    0  501    0  0.00000000000E+00 -0.00000000000E+00 -0.12137644106E+04  0.12137644106E+04  0.00000000000E+00 0. -1.
         23    2    1    2    0    0 -0.40250161834E+03 -0.84546281146E+03 -0.73005574703E+03  0.11909983768E+04  0.93170926130E+02 0.  0.
         11    1    3    3    0    0 -0.33095161694E+03 -0.60057413942E+03 -0.54167646989E+03  0.87386021063E+03  0.00000000000E+00 0. -1.
        -11    1    3    3    0    0 -0.71550001405E+02 -0.24488867204E+03 -0.18837927715E+03  0.31713816619E+03  0.00000000000E+00 0.  1.
         22    1    1    2    0    0  0.40250161834E+03  0.84546281146E+03  0.61236849804E+03  0.11188431953E+04  0.00000000000E+00 0.  1.
<mgrwt>
<rscale>  0 0.23068415E+04</rscale>
<asrwt>0</asrwt>
<pdfrwt beam="1">  1        2 0.18673298E+00 0.23068415E+04</pdfrwt>
<pdfrwt beam="2">  1       -2 0.16862726E+00 0.23068415E+04</pdfrwt>
<totfact> 0.36713277E+00</totfact>
</mgrwt>
</event>
<event>
 6    1  0.9364335E-007  0.4484078E+04  0.7818608E-02  0.7913430E-01
          2   -1    0    0  501    0  0.00000000000E+00  0.00000000000E+00  0.28549774726E+04  0.28549774726E+04  0.00000000000E+00 0. -1.
         -2   -1    0    0    0  501 -0.00000000000E+00 -0.00000000000E+00 -0.17606931048E+04  0.17606931048E+04  0.00000000000E+00 0.  1.
         23    2    1    2    0    0 -0.12287701840E+04  0.37926972563E+03 -0.13418597173E+04  0.18609437864E+04  0.93822094387E+02 0.  0.
         11    1    3    3    0    0 -0.64344670130E+03  0.15750633027E+03 -0.65293152607E+03  0.93013519406E+03  0.00000000000E+00 0. -1.
        -11    1    3    3    0    0 -0.58532348267E+03  0.22176339536E+03 -0.68892819121E+03  0.93080859232E+03  0.00000000000E+00 0.  1.
         22    1    1    2    0    0  0.12287701840E+04 -0.37926972563E+03  0.24361440851E+04  0.27547267910E+04  0.00000000000E+00 0. -1.
<mgrwt>
<rscale>  0 0.44840781E+04</rscale>
<asrwt>0</asrwt>
<pdfrwt beam="1">  1        2 0.43922730E+00 0.44840781E+04</pdfrwt>
<pdfrwt beam="2">  1       -2 0.27087586E+00 0.44840781E+04</pdfrwt>
<totfact> 0.77740289E-02</totfact>
</mgrwt>
</event>
<event>
 6    1  0.9364335E-007  0.6115686E+03  0.7818608E-02  0.9881691E-01
          4   -1    0    0  501    0  0.00000000000E+00  0.00000000000E+00  0.32702922282E+03  0.32702922282E+03  0.00000000000E+00 0. -1.
         -4   -1    0    0    0  501 -0.00000000000E+00 -0.00000000000E+00 -0.28591952111E+03  0.28591952111E+03  0.00000000000E+00 0.  1.
         23    2    1    2    0    0 -0.20668771675E+03 -0.21218218818E+03  0.61681270643E+02  0.31602403515E+03  0.91244278773E+02 0.  0.
         11    1    3    3    0    0 -0.35154944441E+02 -0.94745256251E+02  0.82982324785E+01  0.10139721082E+03  0.00000000000E+00 0. -1.
        -11    1    3    3    0    0 -0.17153277230E+03 -0.11743693193E+03  0.53383038165E+02  0.21462682432E+03  0.00000000000E+00 0.  1.
         22    1    1    2    0    0  0.20668771675E+03  0.21218218818E+03 -0.20571568934E+02  0.29692470878E+03  0.00000000000E+00 0.  1.
<mgrwt>
<rscale>  0 0.61156860E+03</rscale>
<asrwt>0</asrwt>
<pdfrwt beam="1">  1        4 0.50312188E-01 0.61156860E+03</pdfrwt>
<pdfrwt beam="2">  1       -4 0.43987618E-01 0.61156860E+03</pdfrwt>
<totfact> 0.37774908E+01</totfact>
</mgrwt>
</event>
<event>
 6    1  0.1564859E-006  0.3412563E+04  0.7818608E-02  0.8134830E-01
         -2   -1    0    0    0  501 -0.00000000000E+00  0.00000000000E+00  0.13888206305E+04  0.13888206305E+04  0.00000000000E+00 0.  1.
          2   -1    0    0  501    0  0.00000000000E+00 -0.00000000000E+00 -0.20963085614E+04  0.20963085614E+04  0.00000000000E+00 0. -1.
         23    2    1    2    0    0 -0.11172296510E+03  0.14715697701E+04 -0.12258438359E+04  0.19209385214E+04  0.96499138487E+02 0.  0.
         13    1    3    3    0    0 -0.96491573840E+02  0.78839142607E+03 -0.61818327788E+03  0.10064900544E+04  0.00000000000E+00 0. -1.
        -13    1    3    3    0    0 -0.15231391260E+02  0.68317834405E+03 -0.60766055801E+03  0.91444846702E+03  0.00000000000E+00 0.  1.
         22    1    1    2    0    0  0.11172296510E+03 -0.14715697701E+04  0.51835590505E+03  0.15641906705E+04  0.00000000000E+00 0.  1.
<mgrwt>
<rscale>  0 0.34125630E+04</rscale>
<asrwt>0</asrwt>
<pdfrwt beam="1">  1        2 0.32250901E+00 0.34125630E+04</pdfrwt>
<pdfrwt beam="2">  1       -2 0.21366471E+00 0.34125630E+04</pdfrwt>
<totfact> 0.52998180E-01</totfact>
</mgrwt>
</event>
<event>
 6    1  0.9364335E-007  0.8390196E+03  0.7818608E-02  0.9505194E-01
         -1   -1    0    0    0  501 -0.00000000000E+00  0.00000000000E+00  0.12353237198E+04  0.12353237198E+04  0.00000000000E+00 0.  1.
          1   -1    0    0  501    0  0.00000000000E+00 -0.00000000000E+00 -0.14246345866E+03  0.14246345866E+03  0.00000000000E+00 0. -1.
         23    2    1    2    0    0  0.33908230829E+03 -0.18784457153E+03  0.31073979163E+03  0.50487548551E+03  0.89875708154E+02 0.  0.
         11    1    3    3    0    0  0.22781041362E+03 -0.78640680571E+02  0.20607787945E+03  0.31709625288E+03  0.00000000000E+00 0.  1.
        -11    1    3    3    0    0  0.11127189467E+03 -0.10920389096E+03  0.10466191218E+03  0.18777923263E+03  0.00000000000E+00 0. -1.
         22    1    1    2    0    0 -0.33908230829E+03  0.18784457153E+03  0.78212046949E+03  0.87291169292E+03  0.00000000000E+00 0. -1.
<mgrwt>
<rscale>  0 0.83901964E+03</rscale>
<asrwt>0</asrwt>
<pdfrwt beam="1">  1        1 0.21917456E-01 0.83901964E+03</pdfrwt>
<pdfrwt beam="2">  1       -1 0.19004980E+00 0.83901964E+03</pdfrwt>
<totfact> 0.41648161E+01</totfact>
</mgrwt>
</event>
<event>
 6    1  0.9364335E-007  0.1236651E+04  0.7818608E-02  0.9081367E-01
         -1   -1    0    0    0  501 -0.00000000000E+00  0.00000000000E+00  0.23655643196E+03  0.23655643196E+03  0.00000000000E+00 0.  1.
          1   -1    0    0  501    0  0.00000000000E+00 -0.00000000000E+00 -0.16162164602E+04  0.16162164602E+04  0.00000000000E+00 0. -1.
         23    2    1    2    0    0 -0.32129217791E+03 -0.49929060185E+03 -0.44478652214E+03  0.74529456684E+03  0.71478475062E+02 0.  0.
         11    1    3    3    0    0 -0.13231135335E+03 -0.23718678906E+03 -0.16440278882E+03  0.31747778521E+03  0.00000000000E+00 0.  1.
        -11    1    3    3    0    0 -0.18898082456E+03 -0.26210381278E+03 -0.28038373332E+03  0.42781678162E+03  0.00000000000E+00 0. -1.
         22    1    1    2    0    0  0.32129217791E+03  0.49929060185E+03 -0.93487350612E+03  0.11074783254E+04  0.00000000000E+00 0.  1.
<mgrwt>
<rscale>  0 0.12366510E+04</rscale>
<asrwt>0</asrwt>
<pdfrwt beam="1">  1        1 0.24864869E+00 0.12366510E+04</pdfrwt>
<pdfrwt beam="2">  1       -1 0.36393296E-01 0.12366510E+04</pdfrwt>
<totfact> 0.38834179E+01</totfact>
</mgrwt>
</event>
<event>
 6    1  0.9364335E-007  0.4200679E+04  0.7818608E-02  0.7965243E-01
         -2   -1    0    0    0  501 -0.00000000000E+00  0.00000000000E+00  0.17069563857E+04  0.17069563857E+04  0.00000000000E+00 0.  1.
          2   -1    0    0  501    0  0.00000000000E+00 -0.00000000000E+00 -0.25843814637E+04  0.25843814637E+04  0.00000000000E+00 0. -1.
         23    2    1    2    0    0 -0.19868745148E+04 -0.21577613089E+03 -0.10954705001E+04  0.22809216034E+04  0.91203443752E+02 0.  0.
         11    1    3    3    0    0 -0.23659065361E+03 -0.52649365213E+02 -0.11820985131E+03  0.26966768805E+03  0.00000000000E+00 0.  1.
        -11    1    3    3    0    0 -0.17502838612E+04 -0.16312676567E+03 -0.97726064875E+03  0.20112539153E+04  0.00000000000E+00 0. -1.
         22    1    1    2    0    0  0.19868745148E+04  0.21577613089E+03  0.21804542207E+03  0.20104162460E+04  0.00000000000E+00 0.  1.
<mgrwt>
<rscale>  0 0.42006792E+04</rscale>
<asrwt>0</asrwt>
<pdfrwt beam="1">  1        2 0.39759715E+00 0.42006792E+04</pdfrwt>
<pdfrwt beam="2">  1       -2 0.26260867E+00 0.42006792E+04</pdfrwt>
<totfact> 0.12974635E-01</totfact>
</mgrwt>
</event>
<event>
 6    1  0.9364335E-007  0.1014072E+04  0.7818608E-02  0.9293244E-01
          1   -1    0    0  501    0  0.00000000000E+00  0.00000000000E+00  0.26801598446E+04  0.26801598446E+04  0.00000000000E+00 0. -1.
         -1   -1    0    0    0  501 -0.00000000000E+00 -0.00000000000E+00 -0.95921731882E+02  0.95921731882E+02  0.00000000000E+00 0.  1.
         23    2    1    2    0    0  0.54055070373E+02  0.32963462758E+03  0.23320438861E+04  0.23575330533E+04  0.89176635602E+02 0.  0.
         11    1    3    3    0    0  0.43570860223E+02  0.20492431962E+03  0.17284878957E+04  0.17411383639E+04  0.00000000000E+00 0. -1.
        -11    1    3    3    0    0  0.10484210150E+02  0.12471030797E+03  0.60355599041E+03  0.61639468941E+03  0.00000000000E+00 0.  1.
         22    1    1    2    0    0 -0.54055070373E+02 -0.32963462758E+03  0.25219422665E+03  0.41854852322E+03  0.00000000000E+00 0.  1.
<mgrwt>
<rscale>  0 0.10140721E+04</rscale>
<asrwt>0</asrwt>
<pdfrwt beam="1">  1        1 0.41233223E+00 0.10140721E+04</pdfrwt>
<pdfrwt beam="2">  1       -1 0.14757192E-01 0.10140721E+04</pdfrwt>
<totfact> 0.34840987E+01</totfact>
</mgrwt>
</event>
<event>
 6    1  0.9364335E-007  0.4540997E+04  0.7818608E-02  0.7903498E-01
         -2   -1    0    0    0  501 -0.00000000000E+00  0.00000000000E+00  0.34846076988E+04  0.34846076988E+04  0.00000000000E+00 0.  1.
          2   -1    0    0  501    0  0.00000000000E+00 -0.00000000000E+00 -0.14794099436E+04  0.14794099436E+04  0.00000000000E+00 0. -1.
         23    2    1    2    0    0 -0.13257608343E+04  0.18014904450E+04  0.58251710020E+03  0.23131630897E+04  0.91584357412E+02 0.  0.
         11    1    3    3    0    0 -0.39665873845E+03  0.52060856945E+03  0.21219350412E+03  0.68803889466E+03  0.00000000000E+00 0.  1.
        -11    1    3    3    0    0 -0.92910209582E+03  0.12808818756E+04  0.37032359609E+03  0.16251241951E+04  0.00000000000E+00 0. -1.
         22    1    1    2    0    0  0.13257608343E+04 -0.18014904450E+04  0.14226806550E+04  0.26508545526E+04  0.00000000000E+00 0. -1.
<mgrwt>
<rscale>  0 0.45409969E+04</rscale>
<asrwt>0</asrwt>
<pdfrwt beam="1">  1        2 0.22760153E+00 0.45409969E+04</pdfrwt>
<pdfrwt beam="2">  1       -2 0.53609349E+00 0.45409969E+04</pdfrwt>
<totfact> 0.10025264E-02</totfact>
</mgrwt>
</event>
<event>
 6    1  0.9364335E-007  0.2989885E+04  0.7818608E-02  0.8246625E-01
         -4   -1    0    0    0  501 -0.00000000000E+00  0.00000000000E+00  0.14397757479E+04  0.14397757479E+04  0.00000000000E+00 0.  1.
          4   -1    0    0  501    0  0.00000000000E+00 -0.00000000000E+00 -0.15522230483E+04  0.15522230483E+04  0.00000000000E+00 0. -1.
         23    2    1    2    0    0 -0.28511111537E+03 -0.14132151693E+04  0.33390184861E+03  0.14827960181E+04  0.93424429358E+02 0.  0.
         13    1    3    3    0    0 -0.23983716731E+03 -0.97220325752E+03  0.23605359323E+03  0.10287965492E+04  0.00000000000E+00 0. -1.
        -13    1    3    3    0    0 -0.45273948054E+02 -0.44101191175E+03  0.97848255386E+02  0.45399946890E+03  0.00000000000E+00 0.  1.
         22    1    1    2    0    0  0.28511111537E+03  0.14132151693E+04 -0.44634914898E+03  0.15092027781E+04  0.00000000000E+00 0.  1.
<mgrwt>
<rscale>  0 0.29898850E+04</rscale>
<asrwt>0</asrwt>
<pdfrwt beam="1">  1        4 0.23880355E+00 0.29898850E+04</pdfrwt>
<pdfrwt beam="2">  1       -4 0.22150396E+00 0.29898850E+04</pdfrwt>
<totfact> 0.12034520E-02</totfact>
</mgrwt>
</event>
<event>
 6    1  0.9364335E-007  0.1096179E+04  0.7818608E-02  0.9208925E-01
         -2   -1    0    0    0  501 -0.00000000000E+00  0.00000000000E+00  0.72109205421E+03  0.72109205421E+03  0.00000000000E+00 0.  1.
          2   -1    0    0  501    0  0.00000000000E+00 -0.00000000000E+00 -0.41659290995E+03  0.41659290995E+03  0.00000000000E+00 0. -1.
         23    2    1    2    0    0 -0.11106023108E+03 -0.36667756258E+03  0.55458317158E+03  0.68016028663E+03  0.90932455563E+02 0.  0.
         13    1    3    3    0    0 -0.11577915502E+03 -0.27043744338E+03  0.45307468262E+03  0.54020171376E+03  0.00000000000E+00 0. -1.
        -13    1    3    3    0    0  0.47189239462E+01 -0.96240119204E+02  0.10150848897E+03  0.13995857287E+03  0.00000000000E+00 0.  1.
         22    1    1    2    0    0  0.11106023108E+03  0.36667756258E+03 -0.25008402732E+03  0.45752467753E+03  0.00000000000E+00 0. -1.
<mgrwt>
<rscale>  0 0.10961785E+04</rscale>
<asrwt>0</asrwt>
<pdfrwt beam="1">  1        2 0.64091217E-01 0.10961785E+04</pdfrwt>
<pdfrwt beam="2">  1       -2 0.11093724E+00 0.10961785E+04</pdfrwt>
<totfact> 0.48536895E+01</totfact>
</mgrwt>
</event>
<event>
 6    1  0.1220096E-006  0.3032877E+04  0.7818608E-02  0.8234405E-01
         -2   -1    0    0    0  501 -0.00000000000E+00  0.00000000000E+00  0.11779789017E+04  0.11779789017E+04  0.00000000000E+00 0.  1.
          2   -1    0    0  501    0  0.00000000000E+00 -0.00000000000E+00 -0.19521448697E+04  0.19521448697E+04  0.00000000000E+00 0. -1.
         23    2    1    2    0    0  0.58098801965E+03  0.47881105017E+03 -0.17444104228E+04  0.19020433983E+04  0.89410655394E+02 0.  0.
         11    1    3    3    0    0  0.38395551078E+03  0.35160699233E+03 -0.11216850999E+04  0.12366190904E+04  0.00000000000E+00 0. -1.
        -11    1    3    3    0    0  0.19703250887E+03  0.12720405784E+03 -0.62272532284E+03  0.66542430793E+03  0.00000000000E+00 0.  1.
         22    1    1    2    0    0 -0.58098801965E+03 -0.47881105017E+03  0.97024445482E+03  0.12280803731E+04  0.00000000000E+00 0.  1.
<mgrwt>
<rscale>  0 0.30328768E+04</rscale>
<asrwt>0</asrwt>
<pdfrwt beam="1">  1        2 0.30032998E+00 0.30328768E+04</pdfrwt>
<pdfrwt beam="2">  1       -2 0.18122752E+00 0.30328768E+04</pdfrwt>
<totfact> 0.10784899E+00</totfact>
</mgrwt>
</event>
<event>
 6    1  0.9364335E-007  0.2546801E+04  0.7818608E-02  0.8386500E-01
         -2   -1    0    0    0  501 -0.00000000000E+00  0.00000000000E+00  0.74506668167E+03  0.74506668167E+03  0.00000000000E+00 0.  1.
          2   -1    0    0  501    0  0.00000000000E+00 -0.00000000000E+00 -0.21763811075E+04  0.21763811075E+04  0.00000000000E+00 0. -1.
         23    2    1    2    0    0  0.11242930521E+04 -0.56643917296E+03 -0.51693900660E+03  0.13655009357E+04  0.11170794597E+03 0.  0.
         11    1    3    3    0    0  0.86812923888E+03 -0.38622733091E+03 -0.40523914698E+03  0.10329756497E+04  0.00000000000E+00 0.  1.
        -11    1    3    3    0    0  0.25616381320E+03 -0.18021184205E+03 -0.11169985962E+03  0.33252528603E+03  0.00000000000E+00 0. -1.
         22    1    1    2    0    0 -0.11242930521E+04  0.56643917296E+03 -0.91437541927E+03  0.15559468535E+04  0.00000000000E+00 0.  1.
<mgrwt>
<rscale>  0 0.25468012E+04</rscale>
<asrwt>0</asrwt>
<pdfrwt beam="1">  1        2 0.33482786E+00 0.25468012E+04</pdfrwt>
<pdfrwt beam="2">  1       -2 0.11462565E+00 0.25468012E+04</pdfrwt>
<totfact> 0.28112564E+00</totfact>
</mgrwt>
</event>
<event>
 6    1  0.9364335E-007  0.4143785E+04  0.7818608E-02  0.7976152E-01
          2   -1    0    0  501    0  0.00000000000E+00  0.00000000000E+00  0.31676771253E+04  0.31676771253E+04  0.00000000000E+00 0. -1.
         -2   -1    0    0    0  501 -0.00000000000E+00 -0.00000000000E+00 -0.13551692776E+04  0.13551692776E+04  0.00000000000E+00 0.  1.
         23    2    1    2    0    0  0.26366735181E+03 -0.15792823697E+04 -0.52687126532E+03  0.16880010968E+04  0.90006092921E+02 0.  0.
         11    1    3    3    0    0  0.45329324331E+02 -0.34842078798E+03 -0.15290222909E+03  0.38318518343E+03  0.00000000000E+00 0.  1.
        -11    1    3    3    0    0  0.21833802748E+03 -0.12308615817E+04 -0.37396903623E+03  0.13048159133E+04  0.00000000000E+00 0. -1.
         22    1    1    2    0    0 -0.26366735181E+03  0.15792823697E+04  0.23393791129E+04  0.28348453061E+04  0.00000000000E+00 0. -1.
<mgrwt>
<rscale>  0 0.41437851E+04</rscale>
<asrwt>0</asrwt>
<pdfrwt beam="1">  1        2 0.48733494E+00 0.41437851E+04</pdfrwt>
<pdfrwt beam="2">  1       -2 0.20848758E+00 0.41437851E+04</pdfrwt>
<totfact> 0.12418399E-01</totfact>
</mgrwt>
</event>
<event>
 6    1  0.9364335E-007  0.1724982E+04  0.7818608E-02  0.8747243E-01
         -2   -1    0    0    0  501 -0.00000000000E+00  0.00000000000E+00  0.13314447414E+04  0.13314447414E+04  0.00000000000E+00 0.  1.
          2   -1    0    0  501    0  0.00000000000E+00 -0.00000000000E+00 -0.55870943281E+03  0.55870943281E+03  0.00000000000E+00 0. -1.
         23    2    1    2    0    0 -0.63887556337E+03  0.35982984107E+03  0.88022201732E+03  0.11490786770E+04  0.89171218451E+02 0.  0.
         11    1    3    3    0    0 -0.45496402481E+03  0.22203236993E+03  0.64876035328E+03  0.82290985725E+03  0.00000000000E+00 0.  1.
        -11    1    3    3    0    0 -0.18391153856E+03  0.13779747114E+03  0.23146166404E+03  0.32616881977E+03  0.00000000000E+00 0. -1.
         22    1    1    2    0    0  0.63887556337E+03 -0.35982984107E+03 -0.10748670874E+03  0.74107549720E+03  0.00000000000E+00 0. -1.
<mgrwt>
<rscale>  0 0.17249820E+04</rscale>
<asrwt>0</asrwt>
<pdfrwt beam="1">  1        2 0.85955298E-01 0.17249820E+04</pdfrwt>
<pdfrwt beam="2">  1       -2 0.20483765E+00 0.17249820E+04</pdfrwt>
<totfact> 0.63400019E+00</totfact>
</mgrwt>
</event>
<event>
 6    1  0.9364335E-007  0.2040255E+04  0.7818608E-02  0.8588028E-01
         -1   -1    0    0    0  501 -0.00000000000E+00  0.00000000000E+00  0.34994693830E+03  0.34994693830E+03  0.00000000000E+00 0.  1.
          1   -1    0    0  501    0  0.00000000000E+00 -0.00000000000E+00 -0.29737650480E+04  0.29737650480E+04  0.00000000000E+00 0. -1.
         23    2    1    2    0    0  0.11372428317E+03 -0.45958105647E+03 -0.27828930271E+04  0.28242594967E+04  0.88318425943E+02 0.  0.
         11    1    3    3    0    0  0.11137163508E+02 -0.16295284999E+03 -0.11416234307E+04  0.11532483363E+04  0.00000000000E+00 0.  1.
        -11    1    3    3    0    0  0.10258711966E+03 -0.29662820648E+03 -0.16412695964E+04  0.16710111604E+04  0.00000000000E+00 0. -1.
         22    1    1    2    0    0 -0.11372428317E+03  0.45958105647E+03  0.15907491738E+03  0.49945248962E+03  0.00000000000E+00 0.  1.
<mgrwt>
<rscale>  0 0.20402549E+04</rscale>
<asrwt>0</asrwt>
<pdfrwt beam="1">  1        1 0.45750234E+00 0.20402549E+04</pdfrwt>
<pdfrwt beam="2">  1       -1 0.53837988E-01 0.20402549E+04</pdfrwt>
<totfact> 0.20141223E+00</totfact>
</mgrwt>
</event>
<event>
 6    1  0.9364335E-007  0.3306262E+04  0.7818608E-02  0.8161304E-01
          1   -1    0    0  501    0  0.00000000000E+00  0.00000000000E+00  0.22989760053E+04  0.22989760053E+04  0.00000000000E+00 0. -1.
         -1   -1    0    0    0  501 -0.00000000000E+00 -0.00000000000E+00 -0.11887214250E+04  0.11887214250E+04  0.00000000000E+00 0.  1.
         23    2    1    2    0    0 -0.41779661639E+03 -0.96128094357E+03  0.19024739024E+04  0.21738380317E+04  0.86889433070E+02 0.  0.
         11    1    3    3    0    0 -0.19922544717E+03 -0.56027458375E+03  0.11055602020E+04  0.12553333216E+04  0.00000000000E+00 0. -1.
        -11    1    3    3    0    0 -0.21857116922E+03 -0.40100635982E+03  0.79691370034E+03  0.91850471007E+03  0.00000000000E+00 0.  1.
         22    1    1    2    0    0  0.41779661639E+03  0.96128094357E+03 -0.79221932202E+03  0.13138593986E+04  0.00000000000E+00 0.  1.
<mgrwt>
<rscale>  0 0.33062620E+04</rscale>
<asrwt>0</asrwt>
<pdfrwt beam="1">  1        1 0.35368862E+00 0.33062620E+04</pdfrwt>
<pdfrwt beam="2">  1       -1 0.18288022E+00 0.33062620E+04</pdfrwt>
<totfact> 0.30672695E-01</totfact>
</mgrwt>
</event>
<event>
 6    1  0.9364335E-007  0.3005711E+04  0.7818608E-02  0.8242102E-01
         -2   -1    0    0    0  501 -0.00000000000E+00  0.00000000000E+00  0.85896276522E+03  0.85896276522E+03  0.00000000000E+00 0.  1.
          2   -1    0    0  501    0  0.00000000000E+00 -0.00000000000E+00 -0.26294209267E+04  0.26294209267E+04  0.00000000000E+00 0. -1.
         23    2    1    2    0    0 -0.52566914081E+03 -0.10220404290E+04  0.23535647858E+03  0.11766339100E+04  0.90443362787E+02 0.  0.
         13    1    3    3    0    0 -0.13892107842E+03 -0.27413820856E+03  0.22423818404E+02  0.30814550306E+03  0.00000000000E+00 0. -1.
        -13    1    3    3    0    0 -0.38674806239E+03 -0.74790222047E+03  0.21293266017E+03  0.86848840690E+03  0.00000000000E+00 0.  1.
         22    1    1    2    0    0  0.52566914081E+03  0.10220404290E+04 -0.20058146401E+04  0.23117497820E+04  0.00000000000E+00 0. -1.
<mgrwt>
<rscale>  0 0.30057110E+04</rscale>
<asrwt>0</asrwt>
<pdfrwt beam="1">  1        2 0.40452629E+00 0.30057110E+04</pdfrwt>
<pdfrwt beam="2">  1       -2 0.13214812E+00 0.30057110E+04</pdfrwt>
<totfact> 0.10420025E+00</totfact>
</mgrwt>
</event>
<event>
 6    1  0.9364335E-007  0.5364435E+04  0.7818608E-02  0.7774623E-01
          1   -1    0    0  501    0  0.00000000000E+00  0.00000000000E+00  0.19059809181E+04  0.19059809181E+04  0.00000000000E+00 0. -1.
         -1   -1    0    0    0  501 -0.00000000000E+00 -0.00000000000E+00 -0.37745873455E+04  0.37745873455E+04  0.00000000000E+00 0.  1.
         23    2    1    2    0    0  0.16993369396E+04 -0.20558251775E+04 -0.12257568092E+04  0.29369540732E+04  0.95164478545E+02 0.  0.
         11    1    3    3    0    0  0.14946417757E+03 -0.22543204071E+03 -0.12851432712E+03  0.29945797306E+03  0.00000000000E+00 0. -1.
        -11    1    3    3    0    0  0.15498727620E+04 -0.18303931368E+04 -0.10972424821E+04  0.26374961001E+04  0.00000000000E+00 0.  1.
         22    1    1    2    0    0 -0.16993369396E+04  0.20558251775E+04 -0.64284961816E+03  0.27436141905E+04  0.00000000000E+00 0. -1.
<mgrwt>
<rscale>  0 0.53644353E+04</rscale>
<asrwt>0</asrwt>
<pdfrwt beam="1">  1        1 0.29322783E+00 0.53644353E+04</pdfrwt>
<pdfrwt beam="2">  1       -1 0.58070575E+00 0.53644353E+04</pdfrwt>
<totfact> 0.13055296E-03</totfact>
</mgrwt>
</event>
<event>
 6    1  0.9364335E-007  0.2063593E+04  0.7818608E-02  0.8577453E-01
          1   -1    0    0  501    0  0.00000000000E+00  0.00000000000E+00  0.17200860262E+04  0.17200860262E+04  0.00000000000E+00 0. -1.
         -1   -1    0    0    0  501 -0.00000000000E+00 -0.00000000000E+00 -0.61892476360E+03  0.61892476360E+03  0.00000000000E+00 0.  1.
         23    2    1    2    0    0 -0.52468494357E+03  0.24328938766E+03  0.15174142324E+04  0.16264446167E+04  0.91061091871E+02 0.  0.
         11    1    3    3    0    0 -0.14752501724E+03  0.10948628694E+03  0.53414855724E+03  0.56485888409E+03  0.00000000000E+00 0. -1.
        -11    1    3    3    0    0 -0.37715992633E+03  0.13380310071E+03  0.98326567512E+03  0.10615857326E+04  0.00000000000E+00 0.  1.
         22    1    1    2    0    0  0.52468494357E+03 -0.24328938766E+03 -0.41625296979E+03  0.71256617308E+03  0.00000000000E+00 0.  1.
<mgrwt>
<rscale>  0 0.20635928E+04</rscale>
<asrwt>0</asrwt>
<pdfrwt beam="1">  1        1 0.26462862E+00 0.20635928E+04</pdfrwt>
<pdfrwt beam="2">  1       -1 0.95219195E-01 0.20635928E+04</pdfrwt>
<totfact> 0.45377716E+00</totfact>
</mgrwt>
</event>
<event>
 6    1  0.9364335E-007  0.1209733E+04  0.7818608E-02  0.9104380E-01
         -2   -1    0    0    0  501 -0.00000000000E+00  0.00000000000E+00  0.32504095353E+03  0.32504095353E+03  0.00000000000E+00 0.  1.
          2   -1    0    0  501    0  0.00000000000E+00 -0.00000000000E+00 -0.11255910873E+04  0.11255910873E+04  0.00000000000E+00 0. -1.
         23    2    1    2    0    0  0.16807800284E+02  0.29197422244E+03  0.22747064465E+03  0.38182047203E+03  0.92263372823E+02 0.  0.
         11    1    3    3    0    0  0.32522468872E+02  0.14947360655E+03  0.68067778097E+02  0.16743145598E+03  0.00000000000E+00 0. -1.
        -11    1    3    3    0    0 -0.15714668589E+02  0.14250061589E+03  0.15940286656E+03  0.21438901605E+03  0.00000000000E+00 0.  1.
         22    1    1    2    0    0 -0.16807800284E+02 -0.29197422244E+03 -0.10280207785E+04  0.10688115688E+04  0.00000000000E+00 0. -1.
<mgrwt>
<rscale>  0 0.12097325E+04</rscale>
<asrwt>0</asrwt>
<pdfrwt beam="1">  1        2 0.17316786E+00 0.12097325E+04</pdfrwt>
<pdfrwt beam="2">  1       -2 0.50006301E-01 0.12097325E+04</pdfrwt>
<totfact> 0.78366039E+01</totfact>
</mgrwt>
</event>
<event>
 6    1  0.9364335E-007  0.3147696E+04  0.7818608E-02  0.8202769E-01
          2   -1    0    0  501    0  0.00000000000E+00  0.00000000000E+00  0.25640459481E+04  0.25640459481E+04  0.00000000000E+00 0. -1.
         -2   -1    0    0    0  501 -0.00000000000E+00 -0.00000000000E+00 -0.96605010896E+03  0.96605010896E+03  0.00000000000E+00 0.  1.
         23    2    1    2    0    0 -0.80106233188E+03  0.13455615267E+04  0.63703919377E+03  0.16927952227E+04  0.86602828195E+02 0.  0.
         11    1    3    3    0    0 -0.18531860984E+03  0.37893549510E+03  0.15352259308E+03  0.44889228462E+03  0.00000000000E+00 0.  1.
        -11    1    3    3    0    0 -0.61574372204E+03  0.96662603161E+03  0.48351660069E+03  0.12439029381E+04  0.00000000000E+00 0. -1.
         22    1    1    2    0    0  0.80106233188E+03 -0.13455615267E+04  0.96095664539E+03  0.18373008344E+04  0.00000000000E+00 0. -1.
<mgrwt>
<rscale>  0 0.31476956E+04</rscale>
<asrwt>0</asrwt>
<pdfrwt beam="1">  1        2 0.39446861E+00 0.31476956E+04</pdfrwt>
<pdfrwt beam="2">  1       -2 0.14862309E+00 0.31476956E+04</pdfrwt>
<totfact> 0.82927494E-01</totfact>
</mgrwt>
</event>
<event>
 6    1  0.9364335E-007  0.3427084E+04  0.7818608E-02  0.8131291E-01
          1   -1    0    0  501    0  0.00000000000E+00  0.00000000000E+00  0.14043210613E+04  0.14043210613E+04  0.00000000000E+00 0. -1.
         -1   -1    0    0    0  501 -0.00000000000E+00 -0.00000000000E+00 -0.20908504613E+04  0.20908504613E+04  0.00000000000E+00 0.  1.
         23    2    1    2    0    0 -0.13519290360E+03 -0.10652079679E+04  0.10167871151E+04  0.14816590973E+04  0.92263249960E+02 0.  0.
         11    1    3    3    0    0 -0.50854816882E+02 -0.49024630326E+03  0.52819198114E+03  0.72243644648E+03  0.00000000000E+00 0.  1.
        -11    1    3    3    0    0 -0.84338086723E+02 -0.57496166466E+03  0.48859513392E+03  0.75922265087E+03  0.00000000000E+00 0. -1.
         22    1    1    2    0    0  0.13519290360E+03  0.10652079679E+04 -0.17033165151E+04  0.20135124252E+04  0.00000000000E+00 0.  1.
<mgrwt>
<rscale>  0 0.34270835E+04</rscale>
<asrwt>0</asrwt>
<pdfrwt beam="1">  1        1 0.21604940E+00 0.34270835E+04</pdfrwt>
<pdfrwt beam="2">  1       -1 0.32166930E+00 0.34270835E+04</pdfrwt>
<totfact> 0.14943562E-01</totfact>
</mgrwt>
</event>
<event>
 6    1  0.9364335E-007  0.1971344E+04  0.7818608E-02  0.8620137E-01
          2   -1    0    0  501    0  0.00000000000E+00  0.00000000000E+00  0.84787362901E+03  0.84787362901E+03  0.00000000000E+00 0. -1.
         -2   -1    0    0    0  501 -0.00000000000E+00 -0.00000000000E+00 -0.11458656627E+04  0.11458656627E+04  0.00000000000E+00 0.  1.
         23    2    1    2    0    0 -0.87119107542E+03  0.32854664596E+03  0.17110978003E+03  0.95115917482E+03  0.92241154383E+02 0.  0.
         11    1    3    3    0    0 -0.53084480110E+03  0.22017092963E+03  0.63912826717E+02  0.57823549747E+03  0.00000000000E+00 0. -1.
        -11    1    3    3    0    0 -0.34034627432E+03  0.10837571633E+03  0.10719695331E+03  0.37292367736E+03  0.00000000000E+00 0.  1.
         22    1    1    2    0    0  0.87119107542E+03 -0.32854664596E+03 -0.46910181371E+03  0.10425801169E+04  0.00000000000E+00 0.  1.
<mgrwt>
<rscale>  0 0.19713440E+04</rscale>
<asrwt>0</asrwt>
<pdfrwt beam="1">  1        2 0.13044210E+00 0.19713440E+04</pdfrwt>
<pdfrwt beam="2">  1       -2 0.17628702E+00 0.19713440E+04</pdfrwt>
<totfact> 0.57046570E+00</totfact>
</mgrwt>
</event>
<event>
 6    1  0.9364335E-007  0.1069366E+04  0.7818608E-02  0.9235576E-01
         -2   -1    0    0    0  501 -0.00000000000E+00  0.00000000000E+00  0.12314042140E+03  0.12314042140E+03  0.00000000000E+00 0.  1.
          2   -1    0    0  501    0  0.00000000000E+00 -0.00000000000E+00 -0.23216233670E+04  0.23216233670E+04  0.00000000000E+00 0. -1.
         23    2    1    2    0    0 -0.33631164546E+03  0.29283894758E+03 -0.45101511255E+03  0.64129379984E+03  0.94778340802E+02 0.  0.
         11    1    3    3    0    0 -0.21511408748E+03  0.23817976737E+03 -0.29073127635E+03  0.43304543325E+03  0.00000000000E+00 0.  1.
        -11    1    3    3    0    0 -0.12119755798E+03  0.54659180211E+02 -0.16028383620E+03  0.20824836659E+03  0.00000000000E+00 0. -1.
         22    1    1    2    0    0  0.33631164546E+03 -0.29283894758E+03 -0.17474678331E+04  0.18034699886E+04  0.00000000000E+00 0. -1.
<mgrwt>
<rscale>  0 0.10693656E+04</rscale>
<asrwt>0</asrwt>
<pdfrwt beam="1">  1        2 0.35717281E+00 0.10693656E+04</pdfrwt>
<pdfrwt beam="2">  1       -2 0.18944681E-01 0.10693656E+04</pdfrwt>
<totfact> 0.10373117E+02</totfact>
</mgrwt>
</event>
<event>
 6    1  0.9364335E-007  0.5148494E+04  0.7818608E-02  0.7806000E-01
         -2   -1    0    0    0  501 -0.00000000000E+00  0.00000000000E+00  0.22036307849E+04  0.22036307849E+04  0.00000000000E+00 0.  1.
          2   -1    0    0  501    0  0.00000000000E+00 -0.00000000000E+00 -0.30071952556E+04  0.30071952556E+04  0.00000000000E+00 0. -1.
         23    2    1    2    0    0 -0.16180514043E+03  0.15647938718E+04 -0.24631576525E+04  0.29241231098E+04  0.92679962062E+02 0.  0.
         13    1    3    3    0    0 -0.68606180816E+02  0.86630037401E+03 -0.14360849145E+04  0.16785478926E+04  0.00000000000E+00 0. -1.
        -13    1    3    3    0    0 -0.93198959611E+02  0.69849349783E+03 -0.10270727380E+04  0.12455752172E+04  0.00000000000E+00 0.  1.
         22    1    1    2    0    0  0.16180514043E+03 -0.15647938718E+04  0.16595931817E+04  0.22867029308E+04  0.00000000000E+00 0.  1.
<mgrwt>
<rscale>  0 0.51484942E+04</rscale>
<asrwt>0</asrwt>
<pdfrwt beam="1">  1        2 0.46264542E+00 0.51484942E+04</pdfrwt>
<pdfrwt beam="2">  1       -2 0.33902012E+00 0.51484942E+04</pdfrwt>
<totfact> 0.22600153E-02</totfact>
</mgrwt>
</event>
<event>
 6    1  0.9364335E-007  0.1842121E+04  0.7818608E-02  0.8684215E-01
          2   -1    0    0  501    0  0.00000000000E+00  0.00000000000E+00  0.80393991724E+03  0.80393991724E+03  0.00000000000E+00 0. -1.
         -2   -1    0    0    0  501 -0.00000000000E+00 -0.00000000000E+00 -0.10552437459E+04  0.10552437459E+04  0.00000000000E+00 0.  1.
         23    2    1    2    0    0  0.45079621249E+03  0.74052744361E+03  0.18118675996E+03  0.89034609722E+03  0.91046202066E+02 0.  0.
         11    1    3    3    0    0  0.55576874593E+02  0.14274242896E+03  0.96669181007E+01  0.15348498077E+03  0.00000000000E+00 0.  1.
        -11    1    3    3    0    0  0.39521933790E+03  0.59778501465E+03  0.17151984186E+03  0.73686111645E+03  0.00000000000E+00 0. -1.
         22    1    1    2    0    0 -0.45079621249E+03 -0.74052744361E+03 -0.43249058867E+03  0.96883756597E+03  0.00000000000E+00 0.  1.
<mgrwt>
<rscale>  0 0.18421211E+04</rscale>
<asrwt>0</asrwt>
<pdfrwt beam="1">  1        2 0.12368306E+00 0.18421211E+04</pdfrwt>
<pdfrwt beam="2">  1       -2 0.16234519E+00 0.18421211E+04</pdfrwt>
<totfact> 0.77907568E+00</totfact>
</mgrwt>
</event>
<event>
 6    1  0.9364335E-007  0.3084223E+04  0.7818608E-02  0.8220081E-01
          2   -1    0    0  501    0  0.00000000000E+00  0.00000000000E+00  0.21373391835E+04  0.21373391835E+04  0.00000000000E+00 0. -1.
         -2   -1    0    0    0  501 -0.00000000000E+00 -0.00000000000E+00 -0.11126487837E+04  0.11126487837E+04  0.00000000000E+00 0.  1.
         23    2    1    2    0    0 -0.14996232760E+04 -0.63409921715E+02  0.87910569731E+03  0.17419807743E+04  0.93698469434E+02 0.  0.
         11    1    3    3    0    0 -0.62376640061E+03  0.11260463500E+02  0.39605083990E+03  0.73896386133E+03  0.00000000000E+00 0. -1.
        -11    1    3    3    0    0 -0.87585687535E+03 -0.74670385216E+02  0.48305485742E+03  0.10030169130E+04  0.00000000000E+00 0.  1.
         22    1    1    2    0    0  0.14996232760E+04  0.63409921715E+02  0.14558470250E+03  0.15080071928E+04  0.00000000000E+00 0.  1.
<mgrwt>
<rscale>  0 0.30842230E+04</rscale>
<asrwt>0</asrwt>
<pdfrwt beam="1">  1        2 0.32882141E+00 0.30842230E+04</pdfrwt>
<pdfrwt beam="2">  1       -2 0.17117674E+00 0.30842230E+04</pdfrwt>
<totfact> 0.99528610E-01</totfact>
</mgrwt>
</event>
<event>
 6    1  0.9364335E-007  0.2469691E+04  0.7818608E-02  0.8413864E-01
         -1   -1    0    0    0  501 -0.00000000000E+00  0.00000000000E+00  0.17956310297E+04  0.17956310297E+04  0.00000000000E+00 0.  1.
          1   -1    0    0  501    0  0.00000000000E+00 -0.00000000000E+00 -0.84919637946E+03  0.84919637946E+03  0.00000000000E+00 0. -1.
         23    2    1    2    0    0  0.70349606455E+03 -0.79152783030E+03  0.11506683991E+04  0.15663403007E+04  0.89225298796E+02 0.  0.
         13    1    3    3    0    0  0.40862942690E+03 -0.39281079467E+03  0.61631551970E+03  0.83733096728E+03  0.00000000000E+00 0.  1.
        -13    1    3    3    0    0  0.29486663766E+03 -0.39871703564E+03  0.53435287941E+03  0.72900933344E+03  0.00000000000E+00 0. -1.
         22    1    1    2    0    0 -0.70349606455E+03  0.79152783030E+03 -0.20423374883E+03  0.10784871085E+04  0.00000000000E+00 0. -1.
<mgrwt>
<rscale>  0 0.24696910E+04</rscale>
<asrwt>0</asrwt>
<pdfrwt beam="1">  1        1 0.13064560E+00 0.24696910E+04</pdfrwt>
<pdfrwt beam="2">  1       -1 0.27625093E+00 0.24696910E+04</pdfrwt>
<totfact> 0.84095698E-01</totfact>
</mgrwt>
</event>
<event>
 6    1  0.9364335E-007  0.1597057E+04  0.7818608E-02  0.8822358E-01
         -2   -1    0    0    0  501 -0.00000000000E+00  0.00000000000E+00  0.37421955069E+03  0.37421955069E+03  0.00000000000E+00 0.  1.
          2   -1    0    0  501    0  0.00000000000E+00 -0.00000000000E+00 -0.17039395110E+04  0.17039395110E+04  0.00000000000E+00 0. -1.
         23    2    1    2    0    0  0.70753277417E+03  0.35964346139E+03 -0.71320714726E+03  0.10731545371E+04  0.11423738326E+03 0.  0.
         11    1    3    3    0    0  0.31215139131E+03  0.20740411817E+03 -0.28554239562E+03  0.47115753101E+03  0.00000000000E+00 0.  1.
        -11    1    3    3    0    0  0.39538138286E+03  0.15223934321E+03 -0.42766475164E+03  0.60199700608E+03  0.00000000000E+00 0. -1.
         22    1    1    2    0    0 -0.70753277417E+03 -0.35964346139E+03 -0.61651281307E+03  0.10050045246E+04  0.00000000000E+00 0. -1.
<mgrwt>
<rscale>  0 0.15970566E+04</rscale>
<asrwt>0</asrwt>
<pdfrwt beam="1">  1        2 0.26214454E+00 0.15970566E+04</pdfrwt>
<pdfrwt beam="2">  1       -2 0.57572239E-01 0.15970566E+04</pdfrwt>
<totfact> 0.26441361E+01</totfact>
</mgrwt>
</event>
<event>
 6    1  0.9364335E-007  0.1200481E+04  0.7818608E-02  0.9112435E-01
         -1   -1    0    0    0  501 -0.00000000000E+00  0.00000000000E+00  0.26910889095E+03  0.26910889095E+03  0.00000000000E+00 0.  1.
          1   -1    0    0  501    0  0.00000000000E+00 -0.00000000000E+00 -0.13388216349E+04  0.13388216349E+04  0.00000000000E+00 0. -1.
         23    2    1    2    0    0  0.34878703810E+03  0.45974792050E+03 -0.74106834347E+03  0.94383136885E+03  0.92816026559E+02 0.  0.
         13    1    3    3    0    0  0.54862168509E+02  0.11629887860E+03 -0.12175570234E+03  0.17708680851E+03  0.00000000000E+00 0.  1.
        -13    1    3    3    0    0  0.29392486959E+03  0.34344904190E+03 -0.61931264114E+03  0.76674456035E+03  0.00000000000E+00 0. -1.
         22    1    1    2    0    0 -0.34878703810E+03 -0.45974792050E+03 -0.32864440048E+03  0.66409915699E+03  0.00000000000E+00 0.  1.
<mgrwt>
<rscale>  0 0.12004812E+04</rscale>
<asrwt>0</asrwt>
<pdfrwt beam="1">  1        1 0.20597256E+00 0.12004812E+04</pdfrwt>
<pdfrwt beam="2">  1       -1 0.41401368E-01 0.12004812E+04</pdfrwt>
<totfact> 0.48002705E+01</totfact>
</mgrwt>
</event>
<event>
 6    1  0.9364335E-007  0.3478512E+04  0.7818608E-02  0.8118901E-01
          2   -1    0    0  501    0  0.00000000000E+00  0.00000000000E+00  0.32858101466E+04  0.32858101466E+04  0.00000000000E+00 0. -1.
         -2   -1    0    0    0  501 -0.00000000000E+00 -0.00000000000E+00 -0.92062895464E+03  0.92062895464E+03  0.00000000000E+00 0.  1.
         23    2    1    2    0    0  0.68296673606E+03 -0.27466316169E+03 -0.72046314893E+03  0.10342026010E+04  0.92867949404E+02 0.  0.
         13    1    3    3    0    0  0.54632466574E+03 -0.22165838106E+03 -0.52177612292E+03  0.78730769127E+03  0.00000000000E+00 0.  1.
        -13    1    3    3    0    0  0.13664207032E+03 -0.53004780628E+02 -0.19868702601E+03  0.24689490974E+03  0.00000000000E+00 0. -1.
         22    1    1    2    0    0 -0.68296673606E+03  0.27466316169E+03  0.30856443409E+04  0.31722365003E+04  0.00000000000E+00 0. -1.
<mgrwt>
<rscale>  0 0.34785123E+04</rscale>
<asrwt>0</asrwt>
<pdfrwt beam="1">  1        2 0.50550925E+00 0.34785123E+04</pdfrwt>
<pdfrwt beam="2">  1       -2 0.14163523E+00 0.34785123E+04</pdfrwt>
<totfact> 0.32613673E-01</totfact>
</mgrwt>
</event>
<event>
 6    1  0.9364335E-007  0.4591405E+04  0.7818608E-02  0.7894827E-01
         -1   -1    0    0    0  501 -0.00000000000E+00  0.00000000000E+00  0.11888441276E+04  0.11888441276E+04  0.00000000000E+00 0.  1.
          1   -1    0    0  501    0  0.00000000000E+00 -0.00000000000E+00 -0.44330872711E+04  0.44330872711E+04  0.00000000000E+00 0. -1.
         23    2    1    2    0    0 -0.11074745706E+04 -0.21009655262E+02  0.83831062367E+03  0.13917793221E+04  0.85695096205E+02 0.  0.
         13    1    3    3    0    0 -0.24183231476E+03  0.30448716047E+02  0.17741523804E+03  0.30147331467E+03  0.00000000000E+00 0. -1.
        -13    1    3    3    0    0 -0.86564225582E+03 -0.51458371309E+02  0.66089538564E+03  0.10903060074E+04  0.00000000000E+00 0.  1.
         22    1    1    2    0    0  0.11074745706E+04  0.21009655262E+02 -0.40825537672E+04  0.42301520767E+04  0.00000000000E+00 0. -1.
<mgrwt>
<rscale>  0 0.45914049E+04</rscale>
<asrwt>0</asrwt>
<pdfrwt beam="1">  1        1 0.68201341E+00 0.45914049E+04</pdfrwt>
<pdfrwt beam="2">  1       -1 0.18289910E+00 0.45914049E+04</pdfrwt>
<totfact> 0.55376586E-03</totfact>
</mgrwt>
</event>
<event>
 6    1  0.9364335E-007  0.2504753E+04  0.7818608E-02  0.8401294E-01
          2   -1    0    0  501    0  0.00000000000E+00  0.00000000000E+00  0.12226980276E+04  0.12226980276E+04  0.00000000000E+00 0. -1.
         -2   -1    0    0    0  501 -0.00000000000E+00 -0.00000000000E+00 -0.12827754302E+04  0.12827754302E+04  0.00000000000E+00 0.  1.
         23    2    1    2    0    0  0.17554081499E+03 -0.89797820028E+03 -0.88301358215E+03  0.12748624789E+04  0.91552869296E+02 0.  0.
         11    1    3    3    0    0  0.14384659701E+03 -0.74836756906E+03 -0.68510412889E+03  0.10247504717E+04  0.00000000000E+00 0. -1.
        -11    1    3    3    0    0  0.31694217989E+02 -0.14961063122E+03 -0.19790945326E+03  0.25011200714E+03  0.00000000000E+00 0.  1.
         22    1    1    2    0    0 -0.17554081499E+03  0.89797820028E+03  0.82293617950E+03  0.12306109789E+04  0.00000000000E+00 0. -1.
<mgrwt>
<rscale>  0 0.25047531E+04</rscale>
<asrwt>0</asrwt>
<pdfrwt beam="1">  1        2 0.18810739E+00 0.25047531E+04</pdfrwt>
<pdfrwt beam="2">  1       -2 0.19735007E+00 0.25047531E+04</pdfrwt>
<totfact> 0.22662538E+00</totfact>
</mgrwt>
</event>
<event>
 6    1  0.9364335E-007  0.4034637E+04  0.7818608E-02  0.7997595E-01
         -2   -1    0    0    0  501 -0.00000000000E+00  0.00000000000E+00  0.23531659729E+04  0.23531659729E+04  0.00000000000E+00 0.  1.
          2   -1    0    0  501    0  0.00000000000E+00 -0.00000000000E+00 -0.17294038707E+04  0.17294038707E+04  0.00000000000E+00 0. -1.
         23    2    1    2    0    0  0.76077186828E+03 -0.14249681191E+04  0.15327608916E+04  0.22290362520E+04  0.99692957549E+02 0.  0.
         11    1    3    3    0    0  0.65375216800E+03 -0.11445948599E+04  0.12608254959E+04  0.18240532398E+04  0.00000000000E+00 0.  1.
        -11    1    3    3    0    0  0.10701970028E+03 -0.28037325924E+03  0.27193539563E+03  0.40498301216E+03  0.00000000000E+00 0. -1.
         22    1    1    2    0    0 -0.76077186828E+03  0.14249681191E+04 -0.90899878939E+03  0.18535335916E+04  0.00000000000E+00 0. -1.
<mgrwt>
<rscale>  0 0.40346372E+04</rscale>
<asrwt>0</asrwt>
<pdfrwt beam="1">  1        2 0.26606213E+00 0.40346372E+04</pdfrwt>
<pdfrwt beam="2">  1       -2 0.36202553E+00 0.40346372E+04</pdfrwt>
<totfact> 0.96959888E-02</totfact>
</mgrwt>
</event>
<event>
 6    1  0.9364335E-007  0.3630659E+04  0.7818608E-02  0.8083505E-01
          2   -1    0    0  501    0  0.00000000000E+00  0.00000000000E+00  0.32082683690E+04  0.32082683690E+04  0.00000000000E+00 0. -1.
         -2   -1    0    0    0  501 -0.00000000000E+00 -0.00000000000E+00 -0.10271648638E+04  0.10271648638E+04  0.00000000000E+00 0.  1.
         23    2    1    2    0    0  0.13734962923E+04  0.11833846263E+04  0.10145659739E+04  0.20795804896E+04  0.91758697801E+02 0.  0.
         13    1    3    3    0    0  0.73706332744E+03  0.67281128979E+03  0.51736969750E+03  0.11241035469E+04  0.00000000000E+00 0.  1.
        -13    1    3    3    0    0  0.63643296485E+03  0.51057333649E+03  0.49719627645E+03  0.95547694268E+03  0.00000000000E+00 0. -1.
         22    1    1    2    0    0 -0.13734962923E+04 -0.11833846263E+04  0.11665375312E+04  0.21558527432E+04  0.00000000000E+00 0.  1.
<mgrwt>
<rscale>  0 0.36306586E+04</rscale>
<asrwt>0</asrwt>
<pdfrwt beam="1">  1        2 0.49357974E+00 0.36306586E+04</pdfrwt>
<pdfrwt beam="2">  1       -2 0.15802537E+00 0.36306586E+04</pdfrwt>
<totfact> 0.27099621E-01</totfact>
</mgrwt>
</event>
<event>
 6    1  0.9364335E-007  0.1789692E+04  0.7818608E-02  0.8711801E-01
          2   -1    0    0  501    0  0.00000000000E+00  0.00000000000E+00  0.20244557392E+04  0.20244557392E+04  0.00000000000E+00 0. -1.
         -2   -1    0    0    0  501 -0.00000000000E+00 -0.00000000000E+00 -0.39553801088E+03  0.39553801088E+03  0.00000000000E+00 0.  1.
         23    2    1    2    0    0 -0.51984238622E+03 -0.32773101715E+03 -0.58824295350E+02  0.62385431658E+03  0.89945452768E+02 0.  0.
         11    1    3    3    0    0 -0.22150780452E+03 -0.17481639821E+03  0.67409770748E+01  0.28226214999E+03  0.00000000000E+00 0.  1.
        -11    1    3    3    0    0 -0.29833458170E+03 -0.15291461895E+03 -0.65565272425E+02  0.34159216659E+03  0.00000000000E+00 0. -1.
         22    1    1    2    0    0  0.51984238622E+03  0.32773101715E+03  0.16877420236E+04  0.17961394335E+04  0.00000000000E+00 0. -1.
<mgrwt>
<rscale>  0 0.17896918E+04</rscale>
<asrwt>0</asrwt>
<pdfrwt beam="1">  1        2 0.31145472E+00 0.17896918E+04</pdfrwt>
<pdfrwt beam="2">  1       -2 0.60852003E-01 0.17896918E+04</pdfrwt>
<totfact> 0.15378637E+01</totfact>
</mgrwt>
</event>
<event>
 6    1  0.1322696E-006  0.4990520E+04  0.7818608E-02  0.7829971E-01
         -1   -1    0    0    0  501 -0.00000000000E+00  0.00000000000E+00  0.27355856861E+04  0.27355856861E+04  0.00000000000E+00 0.  1.
          1   -1    0    0  501    0  0.00000000000E+00 -0.00000000000E+00 -0.22760469857E+04  0.22760469857E+04  0.00000000000E+00 0. -1.
         23    2    1    2    0    0  0.54353983642E+03  0.70880480803E+03  0.25689799858E+04  0.27208724603E+04  0.75159617072E+02 0.  0.
         13    1    3    3    0    0  0.22793932723E+03  0.32618895203E+03  0.10443908622E+04  0.11176349325E+04  0.00000000000E+00 0.  1.
        -13    1    3    3    0    0  0.31560050920E+03  0.38261585600E+03  0.15245891236E+04  0.16032375278E+04  0.00000000000E+00 0. -1.
         22    1    1    2    0    0 -0.54353983642E+03 -0.70880480803E+03 -0.21094412855E+04  0.22907602115E+04  0.00000000000E+00 0. -1.
<mgrwt>
<rscale>  0 0.49905196E+04</rscale>
<asrwt>0</asrwt>
<pdfrwt beam="1">  1        1 0.35016108E+00 0.49905196E+04</pdfrwt>
<pdfrwt beam="2">  1       -1 0.42085933E+00 0.49905196E+04</pdfrwt>
<totfact> 0.71888942E-03</totfact>
</mgrwt>
</event>
<event>
 6    1  0.9364335E-007  0.2083556E+04  0.7818608E-02  0.8568522E-01
         -2   -1    0    0    0  501 -0.00000000000E+00  0.00000000000E+00  0.66068730348E+03  0.66068730348E+03  0.00000000000E+00 0.  1.
          2   -1    0    0  501    0  0.00000000000E+00 -0.00000000000E+00 -0.16426858925E+04  0.16426858925E+04  0.00000000000E+00 0. -1.
         23    2    1    2    0    0  0.28757778700E+03 -0.67404471433E+03  0.32347669623E+03  0.80627500918E+03  0.91678552232E+02 0.  0.
         11    1    3    3    0    0  0.19043411718E+03 -0.52549942529E+03  0.27111263568E+03  0.62122206995E+03  0.00000000000E+00 0. -1.
        -11    1    3    3    0    0  0.97143669821E+02 -0.14854528904E+03  0.52364060547E+02  0.18505293923E+03  0.00000000000E+00 0.  1.
         22    1    1    2    0    0 -0.28757778700E+03  0.67404471433E+03 -0.13054752853E+04  0.14970981868E+04  0.00000000000E+00 0. -1.
<mgrwt>
<rscale>  0 0.20835563E+04</rscale>
<asrwt>0</asrwt>
<pdfrwt beam="1">  1        2 0.25272090E+00 0.20835563E+04</pdfrwt>
<pdfrwt beam="2">  1       -2 0.10164420E+00 0.20835563E+04</pdfrwt>
<totfact> 0.77398386E+00</totfact>
</mgrwt>
</event>
<event>
 6    1  0.9364335E-007  0.1424895E+04  0.7818608E-02  0.8935993E-01
          2   -1    0    0  501    0  0.00000000000E+00  0.00000000000E+00  0.10470866117E+04  0.10470866117E+04  0.00000000000E+00 0. -1.
         -2   -1    0    0    0  501 -0.00000000000E+00 -0.00000000000E+00 -0.48475567959E+03  0.48475567959E+03  0.00000000000E+00 0.  1.
         23    2    1    2    0    0  0.11211921783E+03 -0.58925208459E+03  0.68989295045E+03  0.91860432226E+03  0.89960433569E+02 0.  0.
         11    1    3    3    0    0  0.74370087031E+02 -0.37872542095E+03  0.50696269304E+03  0.63716169569E+03  0.00000000000E+00 0. -1.
        -11    1    3    3    0    0  0.37749130798E+02 -0.21052666364E+03  0.18293025740E+03  0.28144262657E+03  0.00000000000E+00 0.  1.
         22    1    1    2    0    0 -0.11211921783E+03  0.58925208459E+03 -0.12756201830E+03  0.61323796907E+03  0.00000000000E+00 0.  1.
<mgrwt>
<rscale>  0 0.14248946E+04</rscale>
<asrwt>0</asrwt>
<pdfrwt beam="1">  1        2 0.16109025E+00 0.14248946E+04</pdfrwt>
<pdfrwt beam="2">  1       -2 0.74577797E-01 0.14248946E+04</pdfrwt>
<totfact> 0.36936945E+01</totfact>
</mgrwt>
</event>
<event>
 6    1  0.9364335E-007  0.2236221E+04  0.7818608E-02  0.8503502E-01
         -1   -1    0    0    0  501 -0.00000000000E+00  0.00000000000E+00  0.48082907963E+03  0.48082907963E+03  0.00000000000E+00 0.  1.
          1   -1    0    0  501    0  0.00000000000E+00 -0.00000000000E+00 -0.26000318684E+04  0.26000318684E+04  0.00000000000E+00 0. -1.
         23    2    1    2    0    0 -0.10010467767E+04 -0.48744789324E+03 -0.95398191891E+03  0.14692034865E+04  0.93687167008E+02 0.  0.
         13    1    3    3    0    0 -0.30998051250E+03 -0.19214525319E+03 -0.28097939394E+03  0.46038802794E+03  0.00000000000E+00 0. -1.
        -13    1    3    3    0    0 -0.69106626423E+03 -0.29530264005E+03 -0.67300252497E+03  0.10088154585E+04  0.00000000000E+00 0.  1.
         22    1    1    2    0    0  0.10010467767E+04  0.48744789324E+03 -0.11652208698E+04  0.16116574615E+04  0.00000000000E+00 0.  1.
<mgrwt>
<rscale>  0 0.22362209E+04</rscale>
<asrwt>0</asrwt>
<pdfrwt beam="1">  1        1 0.40000490E+00 0.22362209E+04</pdfrwt>
<pdfrwt beam="2">  1       -1 0.73973705E-01 0.22362209E+04</pdfrwt>
<totfact> 0.19297952E+00</totfact>
</mgrwt>
</event>
<event>
 6    1  0.9364335E-007  0.1417344E+04  0.7818608E-02  0.8941359E-01
         -1   -1    0    0    0  501 -0.00000000000E+00  0.00000000000E+00  0.24784329909E+03  0.24784329909E+03  0.00000000000E+00 0.  1.
          1   -1    0    0  501    0  0.00000000000E+00 -0.00000000000E+00 -0.20263439944E+04  0.20263439944E+04  0.00000000000E+00 0. -1.
         23    2    1    2    0    0  0.63868156769E+03 -0.28715211438E+03 -0.75242857988E+03  0.10319335079E+04  0.91474123481E+02 0.  0.
         11    1    3    3    0    0  0.36917563698E+03 -0.13399450104E+03 -0.36921548953E+03  0.53904105127E+03  0.00000000000E+00 0. -1.
        -11    1    3    3    0    0  0.26950593070E+03 -0.15315761334E+03 -0.38321309035E+03  0.49289245666E+03  0.00000000000E+00 0.  1.
         22    1    1    2    0    0 -0.63868156769E+03  0.28715211438E+03 -0.10260721155E+04  0.12422537856E+04  0.00000000000E+00 0. -1.
<mgrwt>
<rscale>  0 0.14173437E+04</rscale>
<asrwt>0</asrwt>
<pdfrwt beam="1">  1        1 0.31174523E+00 0.14173437E+04</pdfrwt>
<pdfrwt beam="2">  1       -1 0.38129738E-01 0.14173437E+04</pdfrwt>
<totfact> 0.18528334E+01</totfact>
</mgrwt>
</event>
<event>
 6    1  0.9364335E-007  0.3340826E+04  0.7818608E-02  0.8152584E-01
         -2   -1    0    0    0  501 -0.00000000000E+00  0.00000000000E+00  0.17147758146E+04  0.17147758146E+04  0.00000000000E+00 0.  1.
          2   -1    0    0  501    0  0.00000000000E+00 -0.00000000000E+00 -0.16271975340E+04  0.16271975340E+04  0.00000000000E+00 0. -1.
         23    2    1    2    0    0  0.27467496466E+03 -0.21671796654E+03  0.16764330791E+04  0.17150521508E+04  0.92536469571E+02 0.  0.
         13    1    3    3    0    0  0.56511556138E+02 -0.43152395260E+01  0.22532888192E+03  0.23234733116E+03  0.00000000000E+00 0.  1.
        -13    1    3    3    0    0  0.21816340852E+03 -0.21240272701E+03  0.14511041972E+04  0.14827048197E+04  0.00000000000E+00 0. -1.
         22    1    1    2    0    0 -0.27467496466E+03  0.21671796654E+03 -0.15888547985E+04  0.16269211978E+04  0.00000000000E+00 0. -1.
<mgrwt>
<rscale>  0 0.33408256E+04</rscale>
<asrwt>0</asrwt>
<pdfrwt beam="1">  1        2 0.25033808E+00 0.33408256E+04</pdfrwt>
<pdfrwt beam="2">  1       -2 0.26381166E+00 0.33408256E+04</pdfrwt>
<totfact> 0.47397789E-01</totfact>
</mgrwt>
</event>
<event>
 6    1  0.9364335E-007  0.1569524E+04  0.7818608E-02  0.8839492E-01
         -2   -1    0    0    0  501 -0.00000000000E+00  0.00000000000E+00  0.35849355508E+03  0.35849355508E+03  0.00000000000E+00 0.  1.
          2   -1    0    0  501    0  0.00000000000E+00 -0.00000000000E+00 -0.17178869248E+04  0.17178869248E+04  0.00000000000E+00 0. -1.
         23    2    1    2    0    0  0.51737961442E+03  0.33231335185E+02  0.92700891872E+02  0.53451027406E+03  0.91223849241E+02 0.  0.
         13    1    3    3    0    0  0.15555166284E+03  0.46719309934E+02  0.77612890704E+01  0.16260151088E+03  0.00000000000E+00 0.  1.
        -13    1    3    3    0    0  0.36182795158E+03 -0.13487974749E+02  0.84939602802E+02  0.37190876318E+03  0.00000000000E+00 0. -1.
         22    1    1    2    0    0 -0.51737961442E+03 -0.33231335185E+02 -0.14520942615E+04  0.15418702058E+04  0.00000000000E+00 0. -1.
<mgrwt>
<rscale>  0 0.15695240E+04</rscale>
<asrwt>0</asrwt>
<pdfrwt beam="1">  1        2 0.26429030E+00 0.15695240E+04</pdfrwt>
<pdfrwt beam="2">  1       -2 0.55152854E-01 0.15695240E+04</pdfrwt>
<totfact> 0.28472820E+01</totfact>
</mgrwt>
</event>
<event>
 6    1  0.9364335E-007  0.5397593E+04  0.7818608E-02  0.7769940E-01
         -2   -1    0    0    0  501 -0.00000000000E+00  0.00000000000E+00  0.28705184858E+04  0.28705184858E+04  0.00000000000E+00 0.  1.
          2   -1    0    0  501    0  0.00000000000E+00 -0.00000000000E+00 -0.25373477903E+04  0.25373477903E+04  0.00000000000E+00 0. -1.
         23    2    1    2    0    0  0.63097645368E+03 -0.72792322526E+03 -0.23583892605E+04  0.25491080660E+04  0.89154480320E+02 0.  0.
         11    1    3    3    0    0  0.42776920427E+03 -0.49727950235E+03 -0.14928720361E+04  0.16306257424E+04  0.00000000000E+00 0.  1.
        -11    1    3    3    0    0  0.20320724941E+03 -0.23064372291E+03 -0.86551722440E+03  0.91848232365E+03  0.00000000000E+00 0. -1.
         22    1    1    2    0    0 -0.63097645368E+03  0.72792322526E+03  0.26915599559E+04  0.28587582100E+04  0.00000000000E+00 0.  1.
<mgrwt>
<rscale>  0 0.53975934E+04</rscale>
<asrwt>0</asrwt>
<pdfrwt beam="1">  1        2 0.39036120E+00 0.53975934E+04</pdfrwt>
<pdfrwt beam="2">  1       -2 0.44161823E+00 0.53975934E+04</pdfrwt>
<totfact> 0.92412899E-03</totfact>
</mgrwt>
</event>
<event>
 6    1  0.9364335E-007  0.6643647E+03  0.7818608E-02  0.9780192E-01
          2   -1    0    0  501    0  0.00000000000E+00  0.00000000000E+00  0.27142812854E+03  0.27142812854E+03  0.00000000000E+00 0. -1.
         -2   -1    0    0    0  501 -0.00000000000E+00 -0.00000000000E+00 -0.40653531150E+03  0.40653531150E+03  0.00000000000E+00 0.  1.
         23    2    1    2    0    0  0.97015356726E+01  0.29905733018E+03  0.63184578969E+02  0.31900797013E+03  0.90798609353E+02 0.  0.
         13    1    3    3    0    0 -0.14765861018E+02  0.40749946777E+02  0.39196918126E+02  0.58437891856E+02  0.00000000000E+00 0. -1.
        -13    1    3    3    0    0  0.24467396690E+02  0.25830738340E+03  0.23987660843E+02  0.26057007828E+03  0.00000000000E+00 0.  1.
         22    1    1    2    0    0 -0.97015356726E+01 -0.29905733018E+03 -0.19829176193E+03  0.35895546991E+03  0.00000000000E+00 0.  1.
<mgrwt>
<rscale>  0 0.66436472E+03</rscale>
<asrwt>0</asrwt>
<pdfrwt beam="1">  1        2 0.41758174E-01 0.66436472E+03</pdfrwt>
<pdfrwt beam="2">  1       -2 0.62543894E-01 0.66436472E+03</pdfrwt>
<totfact> 0.29399760E+02</totfact>
</mgrwt>
</event>
<event>
 6    1  0.9364335E-007  0.1981848E+04  0.7818608E-02  0.8615155E-01
          1   -1    0    0  501    0  0.00000000000E+00  0.00000000000E+00  0.12257371927E+04  0.12257371927E+04  0.00000000000E+00 0. -1.
         -1   -1    0    0    0  501 -0.00000000000E+00 -0.00000000000E+00 -0.80109340733E+03  0.80109340733E+03  0.00000000000E+00 0.  1.
         23    2    1    2    0    0  0.83469648556E+03 -0.45231939313E+03 -0.70083772274E+02  0.95628568611E+03  0.90881911961E+02 0.  0.
         11    1    3    3    0    0  0.25827349527E+03 -0.95216952984E+02 -0.32367456198E+02  0.27716262143E+03  0.00000000000E+00 0.  1.
        -11    1    3    3    0    0  0.57642299029E+03 -0.35710244014E+03 -0.37716316075E+02  0.67912306468E+03  0.00000000000E+00 0. -1.
         22    1    1    2    0    0 -0.83469648556E+03  0.45231939313E+03  0.49472755761E+03  0.10705449139E+04  0.00000000000E+00 0. -1.
<mgrwt>
<rscale>  0 0.19818476E+04</rscale>
<asrwt>0</asrwt>
<pdfrwt beam="1">  1        1 0.18857495E+00 0.19818476E+04</pdfrwt>
<pdfrwt beam="2">  1       -1 0.12324514E+00 0.19818476E+04</pdfrwt>
<totfact> 0.55115964E+00</totfact>
</mgrwt>
</event>
<event>
 6    1  0.9364335E-007  0.3224586E+04  0.7818608E-02  0.8182354E-01
         -1   -1    0    0    0  501 -0.00000000000E+00  0.00000000000E+00  0.82834176163E+03  0.82834176163E+03  0.00000000000E+00 0.  1.
          1   -1    0    0  501    0  0.00000000000E+00 -0.00000000000E+00 -0.31381834316E+04  0.31381834316E+04  0.00000000000E+00 0. -1.
         23    2    1    2    0    0 -0.12091661422E+04 -0.92508405339E+03 -0.50815281461E+03  0.16077233794E+04  0.93230448408E+02 0.  0.
         11    1    3    3    0    0 -0.94508873729E+03 -0.76090721476E+03 -0.38056616333E+03  0.12716143737E+04  0.00000000000E+00 0.  1.
        -11    1    3    3    0    0 -0.26407740491E+03 -0.16417683863E+03 -0.12758665128E+03  0.33610900570E+03  0.00000000000E+00 0. -1.
         22    1    1    2    0    0  0.12091661422E+04  0.92508405339E+03 -0.18016888554E+04  0.23588018138E+04  0.00000000000E+00 0. -1.
<mgrwt>
<rscale>  0 0.32245858E+04</rscale>
<asrwt>0</asrwt>
<pdfrwt beam="1">  1        1 0.48279745E+00 0.32245858E+04</pdfrwt>
<pdfrwt beam="2">  1       -1 0.12743719E+00 0.32245858E+04</pdfrwt>
<totfact> 0.21027919E-01</totfact>
</mgrwt>
</event>
<event>
 6    1  0.9364335E-007  0.4659596E+04  0.7818608E-02  0.7883277E-01
         -2   -1    0    0    0  501 -0.00000000000E+00  0.00000000000E+00  0.24573540920E+04  0.24573540920E+04  0.00000000000E+00 0.  1.
          2   -1    0    0  501    0  0.00000000000E+00 -0.00000000000E+00 -0.22088630872E+04  0.22088630872E+04  0.00000000000E+00 0. -1.
         23    2    1    2    0    0 -0.13452051935E+04 -0.18948901388E+04  0.27815998140E+03  0.23421978378E+04  0.91280258243E+02 0.  0.
         11    1    3    3    0    0 -0.54843070445E+03 -0.76093837591E+03  0.15690881837E+03  0.95101200140E+03  0.00000000000E+00 0. -1.
        -11    1    3    3    0    0 -0.79677448909E+03 -0.11339517629E+04  0.12125116303E+03  0.13911858364E+04  0.00000000000E+00 0.  1.
         22    1    1    2    0    0  0.13452051935E+04  0.18948901388E+04 -0.29668976619E+02  0.23240193413E+04  0.00000000000E+00 0.  1.
<mgrwt>
<rscale>  0 0.46595960E+04</rscale>
<asrwt>0</asrwt>
<pdfrwt beam="1">  1        2 0.33982509E+00 0.46595960E+04</pdfrwt>
<pdfrwt beam="2">  1       -2 0.37805448E+00 0.46595960E+04</pdfrwt>
<totfact> 0.39356907E-02</totfact>
</mgrwt>
</event>
<event>
 6    1  0.9364335E-007  0.2152110E+04  0.7818608E-02  0.8538629E-01
          2   -1    0    0  501    0  0.00000000000E+00  0.00000000000E+00  0.13305144114E+04  0.13305144114E+04  0.00000000000E+00 0. -1.
         -2   -1    0    0    0  501 -0.00000000000E+00 -0.00000000000E+00 -0.87026107336E+03  0.87026107336E+03  0.00000000000E+00 0.  1.
         23    2    1    2    0    0  0.88889731570E+03  0.38339757012E+03 -0.24536267194E+03  0.10028497407E+04  0.91502060515E+02 0.  0.
         13    1    3    3    0    0  0.36964565670E+03  0.19443002913E+03 -0.13863850569E+03  0.44006997512E+03  0.00000000000E+00 0.  1.
        -13    1    3    3    0    0  0.51925165899E+03  0.18896754099E+03 -0.10672416625E+03  0.56277976561E+03  0.00000000000E+00 0. -1.
         22    1    1    2    0    0 -0.88889731570E+03 -0.38339757012E+03  0.70561600993E+03  0.11979257440E+04  0.00000000000E+00 0. -1.
<mgrwt>
<rscale>  0 0.21521105E+04</rscale>
<asrwt>0</asrwt>
<pdfrwt beam="1">  1        2 0.20469453E+00 0.21521105E+04</pdfrwt>
<pdfrwt beam="2">  1       -2 0.13388632E+00 0.21521105E+04</pdfrwt>
<totfact> 0.58687801E+00</totfact>
</mgrwt>
</event>
<event>
 6    1  0.9364335E-007  0.2768582E+04  0.7818608E-02  0.8313089E-01
          3   -1    0    0  501    0  0.00000000000E+00  0.00000000000E+00  0.11628623233E+04  0.11628623233E+04  0.00000000000E+00 0. -1.
         -3   -1    0    0    0  501 -0.00000000000E+00 -0.00000000000E+00 -0.16478839921E+04  0.16478839921E+04  0.00000000000E+00 0.  1.
         23    2    1    2    0    0  0.37652362639E+03  0.77646324661E+03  0.85427787208E+03  0.12175142310E+04  0.88797552821E+02 0.  0.
         13    1    3    3    0    0  0.11312535904E+03  0.27052434240E+03  0.23681440978E+03  0.37691090641E+03  0.00000000000E+00 0. -1.
        -13    1    3    3    0    0  0.26339826735E+03  0.50593890421E+03  0.61746346229E+03  0.84060332458E+03  0.00000000000E+00 0.  1.
         22    1    1    2    0    0 -0.37652362639E+03 -0.77646324661E+03 -0.13392995409E+04  0.15932320844E+04  0.00000000000E+00 0.  1.
<mgrwt>
<rscale>  0 0.27685825E+04</rscale>
<asrwt>0</asrwt>
<pdfrwt beam="1">  1        3 0.17890190E+00 0.27685825E+04</pdfrwt>
<pdfrwt beam="2">  1       -3 0.25352061E+00 0.27685825E+04</pdfrwt>
<totfact> 0.31944438E-02</totfact>
</mgrwt>
</event>
<event>
 6    1  0.9364335E-007  0.3583722E+04  0.7818608E-02  0.8094231E-01
         -1   -1    0    0    0  501 -0.00000000000E+00  0.00000000000E+00  0.19179744025E+04  0.19179744025E+04  0.00000000000E+00 0.  1.
          1   -1    0    0  501    0  0.00000000000E+00 -0.00000000000E+00 -0.16740400155E+04  0.16740400155E+04  0.00000000000E+00 0. -1.
         23    2    1    2    0    0 -0.88860093463E+03  0.10222375619E+04 -0.10519941938E+04  0.17174445632E+04  0.91338874687E+02 0.  0.
         11    1    3    3    0    0 -0.79813517907E+03  0.93695169318E+03 -0.92437453556E+03  0.15392746738E+04  0.00000000000E+00 0. -1.
        -11    1    3    3    0    0 -0.90465755561E+02  0.85285868677E+02 -0.12761965819E+03  0.17816988938E+03  0.00000000000E+00 0.  1.
         22    1    1    2    0    0  0.88860093463E+03 -0.10222375619E+04  0.12959285808E+04  0.18745698548E+04  0.00000000000E+00 0.  1.
<mgrwt>
<rscale>  0 0.35837220E+04</rscale>
<asrwt>0</asrwt>
<pdfrwt beam="1">  1        1 0.25754462E+00 0.35837220E+04</pdfrwt>
<pdfrwt beam="2">  1       -1 0.29507298E+00 0.35837220E+04</pdfrwt>
<totfact> 0.14295639E-01</totfact>
</mgrwt>
</event>
<event>
 6    1  0.9364335E-007  0.1795341E+04  0.7818608E-02  0.8708781E-01
         -2   -1    0    0    0  501 -0.00000000000E+00  0.00000000000E+00  0.31345108648E+03  0.31345108648E+03  0.00000000000E+00 0.  1.
          2   -1    0    0  501    0  0.00000000000E+00 -0.00000000000E+00 -0.25707739929E+04  0.25707739929E+04  0.00000000000E+00 0. -1.
         23    2    1    2    0    0 -0.36225634846E+03 -0.55754193696E+03 -0.20952504076E+04  0.21998639406E+04  0.85114116968E+02 0.  0.
         13    1    3    3    0    0 -0.15898174267E+03 -0.17073077598E+03 -0.71554449597E+03  0.75261418939E+03  0.00000000000E+00 0.  1.
        -13    1    3    3    0    0 -0.20327460578E+03 -0.38681116098E+03 -0.13797059116E+04  0.14472497512E+04  0.00000000000E+00 0. -1.
         22    1    1    2    0    0  0.36225634846E+03  0.55754193696E+03 -0.16207249881E+03  0.68436113883E+03  0.00000000000E+00 0.  1.
<mgrwt>
<rscale>  0 0.17953405E+04</rscale>
<asrwt>0</asrwt>
<pdfrwt beam="1">  1        2 0.39550369E+00 0.17953405E+04</pdfrwt>
<pdfrwt beam="2">  1       -2 0.48223244E-01 0.17953405E+04</pdfrwt>
<totfact> 0.12197290E+01</totfact>
</mgrwt>
</event>
<event>
 6    1  0.9364335E-007  0.1413640E+04  0.7818608E-02  0.8944004E-01
          1   -1    0    0  501    0  0.00000000000E+00  0.00000000000E+00  0.19832989491E+04  0.19832989491E+04  0.00000000000E+00 0. -1.
         -1   -1    0    0    0  501 -0.00000000000E+00 -0.00000000000E+00 -0.25190068159E+03  0.25190068159E+03  0.00000000000E+00 0.  1.
         23    2    1    2    0    0 -0.45658851861E+03  0.47379220018E+03  0.47430214209E+03  0.81631175886E+03  0.91925194524E+02 0.  0.
         11    1    3    3    0    0 -0.20743272271E+03  0.18988865345E+03  0.25450356482E+03  0.37928630303E+03  0.00000000000E+00 0. -1.
        -11    1    3    3    0    0 -0.24915579590E+03  0.28390354673E+03  0.21979857728E+03  0.43702545584E+03  0.00000000000E+00 0.  1.
         22    1    1    2    0    0  0.45658851861E+03 -0.47379220018E+03  0.12570961255E+04  0.14188878719E+04  0.00000000000E+00 0. -1.
<mgrwt>
<rscale>  0 0.14136398E+04</rscale>
<asrwt>0</asrwt>
<pdfrwt beam="1">  1        1 0.30512290E+00 0.14136398E+04</pdfrwt>
<pdfrwt beam="2">  1       -1 0.38753952E-01 0.14136398E+04</pdfrwt>
<totfact> 0.19243663E+01</totfact>
</mgrwt>
</event>
<event>
 6    1  0.9364335E-007  0.4283452E+04  0.7818608E-02  0.7949685E-01
         -2   -1    0    0    0  501 -0.00000000000E+00  0.00000000000E+00  0.14785799097E+04  0.14785799097E+04  0.00000000000E+00 0.  1.
          2   -1    0    0  501    0  0.00000000000E+00 -0.00000000000E+00 -0.31022948953E+04  0.31022948953E+04  0.00000000000E+00 0. -1.
         23    2    1    2    0    0  0.17521818798E+04  0.10974057019E+04 -0.21826408929E+03  0.20809282384E+04  0.90457206110E+02 0.  0.
         11    1    3    3    0    0  0.64336784809E+03  0.42877050862E+03 -0.43529531363E+02  0.77437791621E+03  0.00000000000E+00 0.  1.
        -11    1    3    3    0    0  0.11088140317E+04  0.66863519325E+03 -0.17473455793E+03  0.13065503221E+04  0.00000000000E+00 0. -1.
         22    1    1    2    0    0 -0.17521818798E+04 -0.10974057019E+04 -0.14054508963E+04  0.24999465667E+04  0.00000000000E+00 0. -1.
<mgrwt>
<rscale>  0 0.42834523E+04</rscale>
<asrwt>0</asrwt>
<pdfrwt beam="1">  1        2 0.47727613E+00 0.42834523E+04</pdfrwt>
<pdfrwt beam="2">  1       -2 0.22747384E+00 0.42834523E+04</pdfrwt>
<totfact> 0.10246522E-01</totfact>
</mgrwt>
</event>
<event>
 6    1  0.1093535E-006  0.3601355E+04  0.7818608E-02  0.8090181E-01
         -1   -1    0    0    0  501 -0.00000000000E+00  0.00000000000E+00  0.17771189855E+04  0.17771189855E+04  0.00000000000E+00 0.  1.
          1   -1    0    0  501    0  0.00000000000E+00 -0.00000000000E+00 -0.18245483730E+04  0.18245483730E+04  0.00000000000E+00 0. -1.
         23    2    1    2    0    0 -0.49458547810E+03  0.14978609336E+03  0.17001705361E+04  0.17792634071E+04  0.90264894206E+02 0.  0.
         13    1    3    3    0    0 -0.37760661300E+03  0.14425011828E+03  0.13953553233E+04  0.14527254830E+04  0.00000000000E+00 0.  1.
        -13    1    3    3    0    0 -0.11697886510E+03  0.55359750764E+01  0.30481521285E+03  0.32653792411E+03  0.00000000000E+00 0. -1.
         22    1    1    2    0    0  0.49458547810E+03 -0.14978609336E+03 -0.17475999236E+04  0.18224039514E+04  0.00000000000E+00 0. -1.
<mgrwt>
<rscale>  0 0.36013551E+04</rscale>
<asrwt>0</asrwt>
<pdfrwt beam="1">  1        1 0.28069975E+00 0.36013551E+04</pdfrwt>
<pdfrwt beam="2">  1       -1 0.27340292E+00 0.36013551E+04</pdfrwt>
<totfact> 0.15575014E-01</totfact>
</mgrwt>
</event>
<event>
 6    1  0.9364335E-007  0.3798330E+04  0.7818608E-02  0.8046513E-01
         -1   -1    0    0    0  501 -0.00000000000E+00  0.00000000000E+00  0.17883422357E+04  0.17883422357E+04  0.00000000000E+00 0.  1.
          1   -1    0    0  501    0  0.00000000000E+00 -0.00000000000E+00 -0.20168558298E+04  0.20168558298E+04  0.00000000000E+00 0. -1.
         23    2    1    2    0    0  0.69541693264E+03  0.17648907612E+04 -0.48470105848E+02  0.18997165602E+04  0.90164010498E+02 0.  0.
         11    1    3    3    0    0  0.48206765244E+03  0.11059485203E+04 -0.36111152808E+02  0.12069860672E+04  0.00000000000E+00 0. -1.
        -11    1    3    3    0    0  0.21334928020E+03  0.65894224092E+03 -0.12358953040E+02  0.69273049301E+03  0.00000000000E+00 0.  1.
         22    1    1    2    0    0 -0.69541693264E+03 -0.17648907612E+04 -0.18004348826E+03  0.19054815052E+04  0.00000000000E+00 0.  1.
<mgrwt>
<rscale>  0 0.37983304E+04</rscale>
<asrwt>0</asrwt>
<pdfrwt beam="1">  1        1 0.31028551E+00 0.37983304E+04</pdfrwt>
<pdfrwt beam="2">  1       -1 0.27512957E+00 0.37983304E+04</pdfrwt>
<totfact> 0.11054927E-01</totfact>
</mgrwt>
</event>
<event>
 6    1  0.9364335E-007  0.2693013E+04  0.7818608E-02  0.8337276E-01
          2   -1    0    0  501    0  0.00000000000E+00  0.00000000000E+00  0.38194113785E+04  0.38194113785E+04  0.00000000000E+00 0. -1.
         -2   -1    0    0    0  501 -0.00000000000E+00 -0.00000000000E+00 -0.47470124777E+03  0.47470124777E+03  0.00000000000E+00 0.  1.
         23    2    1    2    0    0 -0.46594425243E+03 -0.37857997244E+03  0.35933739804E+04  0.36442968432E+04  0.90200201970E+02 0.  0.
         13    1    3    3    0    0 -0.29082074699E+02 -0.91768217469E+01  0.30558467561E+03  0.30710254817E+03  0.00000000000E+00 0.  1.
        -13    1    3    3    0    0 -0.43686217773E+03 -0.36940315069E+03  0.32877893048E+04  0.33371942950E+04  0.00000000000E+00 0. -1.
         22    1    1    2    0    0  0.46594425243E+03  0.37857997244E+03 -0.24866384961E+03  0.64981578313E+03  0.00000000000E+00 0.  1.
<mgrwt>
<rscale>  0 0.26930127E+04</rscale>
<asrwt>0</asrwt>
<pdfrwt beam="1">  1        2 0.58760173E+00 0.26930127E+04</pdfrwt>
<pdfrwt beam="2">  1       -2 0.73030964E-01 0.26930127E+04</pdfrwt>
<totfact> 0.70633587E-01</totfact>
</mgrwt>
</event>
<event>
 6    1  0.9364335E-007  0.9314726E+03  0.7818608E-02  0.9387072E-01
         -2   -1    0    0    0  501 -0.00000000000E+00  0.00000000000E+00  0.47108618140E+03  0.47108618140E+03  0.00000000000E+00 0.  1.
          2   -1    0    0  501    0  0.00000000000E+00 -0.00000000000E+00 -0.46044717386E+03  0.46044717386E+03  0.00000000000E+00 0. -1.
         23    2    1    2    0    0 -0.14663800826E+02 -0.37235303349E+03  0.27716895646E+03  0.47338488339E+03  0.91699557203E+02 0.  0.
         13    1    3    3    0    0 -0.37588774933E+02 -0.12048897644E+03  0.12801456646E+03  0.17977274173E+03  0.00000000000E+00 0.  1.
        -13    1    3    3    0    0  0.22924974107E+02 -0.25186405705E+03  0.14915439001E+03  0.29361214166E+03  0.00000000000E+00 0. -1.
         22    1    1    2    0    0  0.14663800826E+02  0.37235303349E+03 -0.26652994893E+03  0.45814847187E+03  0.00000000000E+00 0. -1.
<mgrwt>
<rscale>  0 0.93147260E+03</rscale>
<asrwt>0</asrwt>
<pdfrwt beam="1">  1        2 0.70838027E-01 0.93147260E+03</pdfrwt>
<pdfrwt beam="2">  1       -2 0.72474797E-01 0.93147260E+03</pdfrwt>
<totfact> 0.11698342E+02</totfact>
</mgrwt>
</event>
<event>
 6    1  0.9364335E-007  0.3608360E+04  0.7818608E-02  0.8088579E-01
          2   -1    0    0  501    0  0.00000000000E+00  0.00000000000E+00  0.10781501615E+04  0.10781501615E+04  0.00000000000E+00 0. -1.
         -2   -1    0    0    0  501 -0.00000000000E+00 -0.00000000000E+00 -0.30191211095E+04  0.30191211095E+04  0.00000000000E+00 0.  1.
         23    2    1    2    0    0  0.16950344931E+04 -0.57158182443E+03 -0.71475202496E+03  0.19285249599E+04  0.92143088179E+02 0.  0.
         11    1    3    3    0    0  0.14861666020E+04 -0.52581248033E+03 -0.60907688624E+03  0.16900131913E+04  0.00000000000E+00 0. -1.
        -11    1    3    3    0    0  0.20886789110E+03 -0.45769344102E+02 -0.10567513872E+03  0.23851176854E+03  0.00000000000E+00 0.  1.
         22    1    1    2    0    0 -0.16950344931E+04  0.57158182443E+03 -0.12262189231E+04  0.21687463112E+04  0.00000000000E+00 0. -1.
<mgrwt>
<rscale>  0 0.36083602E+04</rscale>
<asrwt>0</asrwt>
<pdfrwt beam="1">  1        2 0.16586925E+00 0.36083602E+04</pdfrwt>
<pdfrwt beam="2">  1       -2 0.46448017E+00 0.36083602E+04</pdfrwt>
<totfact> 0.50966156E-02</totfact>
</mgrwt>
</event>
<event>
 6    1  0.9364335E-007  0.1780348E+04  0.7818608E-02  0.8716821E-01
         -1   -1    0    0    0  501 -0.00000000000E+00  0.00000000000E+00  0.10410074602E+04  0.10410074602E+04  0.00000000000E+00 0.  1.
          1   -1    0    0  501    0  0.00000000000E+00 -0.00000000000E+00 -0.76119474249E+03  0.76119474249E+03  0.00000000000E+00 0. -1.
         23    2    1    2    0    0 -0.83494312075E+02  0.21547818951E+03  0.10080372784E+04  0.10381909717E+04  0.91099884180E+02 0.  0.
         11    1    3    3    0    0  0.25378047305E+01  0.11374959866E+03  0.41010623471E+03  0.42559668161E+03  0.00000000000E+00 0. -1.
        -11    1    3    3    0    0 -0.86032116806E+02  0.10172859085E+03  0.59793104366E+03  0.61259429012E+03  0.00000000000E+00 0.  1.
         22    1    1    2    0    0  0.83494312075E+02 -0.21547818951E+03 -0.72822456065E+03  0.76401123096E+03  0.00000000000E+00 0. -1.
<mgrwt>
<rscale>  0 0.17803476E+04</rscale>
<asrwt>0</asrwt>
<pdfrwt beam="1">  1        1 0.11710688E+00 0.17803476E+04</pdfrwt>
<pdfrwt beam="2">  1       -1 0.16015500E+00 0.17803476E+04</pdfrwt>
<totfact> 0.65922308E+00</totfact>
</mgrwt>
</event>
<event>
 6    1  0.9364335E-007  0.1891366E+04  0.7818608E-02  0.8659166E-01
         -2   -1    0    0    0  501 -0.00000000000E+00  0.00000000000E+00  0.25624519382E+04  0.25624519382E+04  0.00000000000E+00 0.  1.
          2   -1    0    0  501    0  0.00000000000E+00 -0.00000000000E+00 -0.34900794537E+03  0.34900794537E+03  0.00000000000E+00 0. -1.
         23    2    1    2    0    0  0.34041147910E+03 -0.21244383955E+03 -0.20512714561E+03  0.45982803687E+03  0.91391014619E+02 0.  0.
         11    1    3    3    0    0  0.61887069229E+01 -0.24405798273E+02 -0.54932985638E+00  0.25184218193E+02  0.00000000000E+00 0. -1.
        -11    1    3    3    0    0  0.33422277218E+03 -0.18803804128E+03 -0.20457781575E+03  0.43464381867E+03  0.00000000000E+00 0.  1.
         22    1    1    2    0    0 -0.34041147910E+03  0.21244383955E+03  0.24185711384E+04  0.24516318467E+04  0.00000000000E+00 0.  1.
<mgrwt>
<rscale>  0 0.18913657E+04</rscale>
<asrwt>0</asrwt>
<pdfrwt beam="1">  1        2 0.53693532E-01 0.18913657E+04</pdfrwt>
<pdfrwt beam="2">  1       -2 0.39422336E+00 0.18913657E+04</pdfrwt>
<totfact> 0.70610207E-01</totfact>
</mgrwt>
</event>
<event>
 6    1  0.9364335E-007  0.8740559E+03  0.7818608E-02  0.9458607E-01
         -1   -1    0    0    0  501 -0.00000000000E+00  0.00000000000E+00  0.23328662885E+03  0.23328662885E+03  0.00000000000E+00 0.  1.
          1   -1    0    0  501    0  0.00000000000E+00 -0.00000000000E+00 -0.81870716921E+03  0.81870716921E+03  0.00000000000E+00 0. -1.
         23    2    1    2    0    0  0.15787769436E+03  0.15903616870E+03 -0.74166103983E+03  0.77881077698E+03  0.79166021829E+02 0.  0.
         11    1    3    3    0    0  0.55567032926E+02  0.21534297438E+02 -0.12038386929E+03  0.13432682941E+03  0.00000000000E+00 0. -1.
        -11    1    3    3    0    0  0.10231066143E+03  0.13750187126E+03 -0.62127717054E+03  0.64448394757E+03  0.00000000000E+00 0.  1.
         22    1    1    2    0    0 -0.15787769436E+03 -0.15903616870E+03  0.15624049947E+03  0.27318302108E+03  0.00000000000E+00 0. -1.
<mgrwt>
<rscale>  0 0.87405591E+03</rscale>
<asrwt>0</asrwt>
<pdfrwt beam="1">  1        1 0.12595495E+00 0.87405591E+03</pdfrwt>
<pdfrwt beam="2">  1       -1 0.35890251E-01 0.87405591E+03</pdfrwt>
<totfact> 0.15916103E+02</totfact>
</mgrwt>
</event>
<event>
 6    1  0.9364335E-007  0.1493030E+04  0.7818608E-02  0.8889101E-01
          1   -1    0    0  501    0  0.00000000000E+00  0.00000000000E+00  0.62183207909E+03  0.62183207909E+03  0.00000000000E+00 0. -1.
         -1   -1    0    0    0  501 -0.00000000000E+00 -0.00000000000E+00 -0.89619813602E+03  0.89619813602E+03  0.00000000000E+00 0.  1.
         23    2    1    2    0    0  0.27661811666E+02  0.19755117834E+03 -0.86609965536E+03  0.89357821904E+03  0.92529868860E+02 0.  0.
         11    1    3    3    0    0 -0.28385256954E+02  0.12078732315E+03 -0.52703140013E+03  0.54144011392E+03  0.00000000000E+00 0.  1.
        -11    1    3    3    0    0  0.56047068621E+02  0.76763855183E+02 -0.33906825524E+03  0.35213810511E+03  0.00000000000E+00 0. -1.
         22    1    1    2    0    0 -0.27661811666E+02 -0.19755117834E+03  0.59173359843E+03  0.62445199607E+03  0.00000000000E+00 0. -1.
<mgrwt>
<rscale>  0 0.14930301E+04</rscale>
<asrwt>0</asrwt>
<pdfrwt beam="1">  1        1 0.95666474E-01 0.14930301E+04</pdfrwt>
<pdfrwt beam="2">  1       -1 0.13787664E+00 0.14930301E+04</pdfrwt>
<totfact> 0.13729503E+01</totfact>
</mgrwt>
</event>
<event>
 6    1  0.9364335E-007  0.1084366E+04  0.7818608E-02  0.9220565E-01
         -2   -1    0    0    0  501 -0.00000000000E+00  0.00000000000E+00  0.15403080613E+03  0.15403080613E+03  0.00000000000E+00 0.  1.
          2   -1    0    0  501    0  0.00000000000E+00 -0.00000000000E+00 -0.19084654971E+04  0.19084654971E+04  0.00000000000E+00 0. -1.
         23    2    1    2    0    0  0.55523328514E+02 -0.50627690857E+03 -0.12143917737E+04  0.13201719127E+04  0.93313188272E+02 0.  0.
         13    1    3    3    0    0  0.43604431746E+02 -0.25738137987E+03 -0.50855173421E+03  0.57163921099E+03  0.00000000000E+00 0.  1.
        -13    1    3    3    0    0  0.11918896768E+02 -0.24889552870E+03 -0.70584003945E+03  0.74853270176E+03  0.00000000000E+00 0. -1.
         22    1    1    2    0    0 -0.55523328514E+02  0.50627690857E+03 -0.54004291726E+03  0.74232439044E+03  0.00000000000E+00 0.  1.
<mgrwt>
<rscale>  0 0.10843661E+04</rscale>
<asrwt>0</asrwt>
<pdfrwt beam="1">  1        2 0.29361007E+00 0.10843661E+04</pdfrwt>
<pdfrwt beam="2">  1       -2 0.23697047E-01 0.10843661E+04</pdfrwt>
<totfact> 0.11815521E+02</totfact>
</mgrwt>
</event>
<event>
 6    1  0.9364335E-007  0.2751559E+04  0.7818608E-02  0.8318467E-01
         -1   -1    0    0    0  501 -0.00000000000E+00  0.00000000000E+00  0.60814886576E+03  0.60814886576E+03  0.00000000000E+00 0.  1.
          1   -1    0    0  501    0  0.00000000000E+00 -0.00000000000E+00 -0.31123445682E+04  0.31123445682E+04  0.00000000000E+00 0. -1.
         23    2    1    2    0    0 -0.30789645496E+02 -0.11401038737E+04 -0.22901586594E+04  0.25600639011E+04  0.91190172238E+02 0.  0.
         13    1    3    3    0    0 -0.59747719135E+02 -0.54407952223E+03 -0.10803910979E+04  0.12111305631E+04  0.00000000000E+00 0. -1.
        -13    1    3    3    0    0  0.28958073638E+02 -0.59602435143E+03 -0.12097675614E+04  0.13489333380E+04  0.00000000000E+00 0.  1.
         22    1    1    2    0    0  0.30789645496E+02  0.11401038737E+04 -0.21403704309E+03  0.11604295329E+04  0.00000000000E+00 0.  1.
<mgrwt>
<rscale>  0 0.27515587E+04</rscale>
<asrwt>0</asrwt>
<pdfrwt beam="1">  1        1 0.47882224E+00 0.27515587E+04</pdfrwt>
<pdfrwt beam="2">  1       -1 0.93561364E-01 0.27515587E+04</pdfrwt>
<totfact> 0.47575185E-01</totfact>
</mgrwt>
</event>
<event>
 6    1  0.9364335E-007  0.1413065E+04  0.7818608E-02  0.8944415E-01
          2   -1    0    0  501    0  0.00000000000E+00  0.00000000000E+00  0.77645351610E+03  0.77645351610E+03  0.00000000000E+00 0. -1.
         -2   -1    0    0    0  501 -0.00000000000E+00 -0.00000000000E+00 -0.64290828578E+03  0.64290828578E+03  0.00000000000E+00 0.  1.
         23    2    1    2    0    0 -0.50625209640E+03  0.44415485423E+03  0.26915757164E+03  0.73237168058E+03  0.10177308339E+03 0.  0.
         13    1    3    3    0    0 -0.27968473579E+03  0.25008271962E+03  0.20382914923E+03  0.42697920343E+03  0.00000000000E+00 0. -1.
        -13    1    3    3    0    0 -0.22656736061E+03  0.19407213461E+03  0.65328422408E+02  0.30539247715E+03  0.00000000000E+00 0.  1.
         22    1    1    2    0    0  0.50625209640E+03 -0.44415485423E+03 -0.13561234133E+03  0.68699012130E+03  0.00000000000E+00 0. -1.
<mgrwt>
<rscale>  0 0.14130653E+04</rscale>
<asrwt>0</asrwt>
<pdfrwt beam="1">  1        2 0.11945439E+00 0.14130653E+04</pdfrwt>
<pdfrwt beam="2">  1       -2 0.98908967E-01 0.14130653E+04</pdfrwt>
<totfact> 0.29548626E+01</totfact>
</mgrwt>
</event>
<event>
 6    1  0.9364335E-007  0.4900848E+04  0.7818608E-02  0.7843987E-01
          1   -1    0    0  501    0  0.00000000000E+00  0.00000000000E+00  0.31962233191E+04  0.31962233191E+04  0.00000000000E+00 0. -1.
         -1   -1    0    0    0  501 -0.00000000000E+00 -0.00000000000E+00 -0.18786479805E+04  0.18786479805E+04  0.00000000000E+00 0.  1.
         23    2    1    2    0    0 -0.47822812548E+03 -0.21906927388E+04 -0.36217126818E+03  0.22731958226E+04  0.91730063830E+02 0.  0.
         13    1    3    3    0    0 -0.18428404805E+03 -0.68479040154E+03 -0.88433297395E+02  0.71464603300E+03  0.00000000000E+00 0.  1.
        -13    1    3    3    0    0 -0.29394407744E+03 -0.15059023372E+04 -0.27373797078E+03  0.15585497896E+04  0.00000000000E+00 0. -1.
         22    1    1    2    0    0  0.47822812548E+03  0.21906927388E+04  0.16797466068E+04  0.28016754770E+04  0.00000000000E+00 0. -1.
<mgrwt>
<rscale>  0 0.49008483E+04</rscale>
<asrwt>0</asrwt>
<pdfrwt beam="1">  1        1 0.49172666E+00 0.49008483E+04</pdfrwt>
<pdfrwt beam="2">  1       -1 0.28902277E+00 0.49008483E+04</pdfrwt>
<totfact> 0.12106768E-02</totfact>
</mgrwt>
</event>
<event>
 6    1  0.9364335E-007  0.3306995E+04  0.7818608E-02  0.8161118E-01
         -2   -1    0    0    0  501 -0.00000000000E+00  0.00000000000E+00  0.16370953424E+04  0.16370953424E+04  0.00000000000E+00 0.  1.
          2   -1    0    0  501    0  0.00000000000E+00 -0.00000000000E+00 -0.16700644374E+04  0.16700644374E+04  0.00000000000E+00 0. -1.
         23    2    1    2    0    0  0.15560744222E+04 -0.54819062861E+03 -0.10657147508E+03  0.16557065159E+04  0.90144410826E+02 0.  0.
         11    1    3    3    0    0  0.77215272880E+03 -0.24672351630E+03 -0.14033506875E+02  0.81073378455E+03  0.00000000000E+00 0.  1.
        -11    1    3    3    0    0  0.78392169337E+03 -0.30146711231E+03 -0.92537968205E+02  0.84497273133E+03  0.00000000000E+00 0. -1.
         22    1    1    2    0    0 -0.15560744222E+04  0.54819062861E+03  0.73602380124E+02  0.16514532639E+04  0.00000000000E+00 0.  1.
<mgrwt>
<rscale>  0 0.33069954E+04</rscale>
<asrwt>0</asrwt>
<pdfrwt beam="1">  1        2 0.25693299E+00 0.33069954E+04</pdfrwt>
<pdfrwt beam="2">  1       -2 0.25186082E+00 0.33069954E+04</pdfrwt>
<totfact> 0.53244774E-01</totfact>
</mgrwt>
</event>
<event>
 6    1  0.9364335E-007  0.2777985E+04  0.7818608E-02  0.8310136E-01
         -2   -1    0    0    0  501 -0.00000000000E+00  0.00000000000E+00  0.56651782177E+03  0.56651782177E+03  0.00000000000E+00 0.  1.
          2   -1    0    0  501    0  0.00000000000E+00 -0.00000000000E+00 -0.34055427683E+04  0.34055427683E+04  0.00000000000E+00 0. -1.
         23    2    1    2    0    0 -0.33767146281E+03 -0.13400213855E+04 -0.15992574304E+04  0.21155308099E+04  0.90371171553E+02 0.  0.
         13    1    3    3    0    0 -0.20608654192E+03 -0.95949727018E+03 -0.10999228324E+04  0.14740885019E+04  0.00000000000E+00 0.  1.
        -13    1    3    3    0    0 -0.13158492089E+03 -0.38052411535E+03 -0.49933459794E+03  0.64144230799E+03  0.00000000000E+00 0. -1.
         22    1    1    2    0    0  0.33767146281E+03  0.13400213855E+04 -0.12397675162E+04  0.18565297802E+04  0.00000000000E+00 0.  1.
<mgrwt>
<rscale>  0 0.27779854E+04</rscale>
<asrwt>0</asrwt>
<pdfrwt beam="1">  1        2 0.52392966E+00 0.27779854E+04</pdfrwt>
<pdfrwt beam="2">  1       -2 0.87156588E-01 0.27779854E+04</pdfrwt>
<totfact> 0.93726142E-01</totfact>
</mgrwt>
</event>
<event>
 6    1  0.9364335E-007  0.2018916E+04  0.7818608E-02  0.8597828E-01
          2   -1    0    0  501    0  0.00000000000E+00  0.00000000000E+00  0.42004988883E+03  0.42004988883E+03  0.00000000000E+00 0. -1.
         -2   -1    0    0    0  501 -0.00000000000E+00 -0.00000000000E+00 -0.24259148225E+04  0.24259148225E+04  0.00000000000E+00 0.  1.
         23    2    1    2    0    0  0.26887557082E+03 -0.94347909132E+03 -0.13281877679E+04  0.16536169394E+04  0.88990824947E+02 0.  0.
         13    1    3    3    0    0  0.11745498475E+03 -0.26839429843E+03 -0.37842178732E+03  0.47857519994E+03  0.00000000000E+00 0. -1.
        -13    1    3    3    0    0  0.15142058607E+03 -0.67508479289E+03 -0.94976598059E+03  0.11750417394E+04  0.00000000000E+00 0.  1.
         22    1    1    2    0    0 -0.26887557082E+03  0.94347909132E+03 -0.67767716575E+03  0.11923477720E+04  0.00000000000E+00 0.  1.
<mgrwt>
<rscale>  0 0.20189158E+04</rscale>
<asrwt>0</asrwt>
<pdfrwt beam="1">  1        2 0.64623060E-01 0.20189158E+04</pdfrwt>
<pdfrwt beam="2">  1       -2 0.37321766E+00 0.20189158E+04</pdfrwt>
<totfact> 0.77471834E-01</totfact>
</mgrwt>
</event>
<event>
 6    1  0.9364335E-007  0.9993617E+03  0.7818608E-02  0.9309245E-01
         -1   -1    0    0    0  501 -0.00000000000E+00  0.00000000000E+00  0.14675553835E+03  0.14675553835E+03  0.00000000000E+00 0.  1.
          1   -1    0    0  501    0  0.00000000000E+00 -0.00000000000E+00 -0.17013393179E+04  0.17013393179E+04  0.00000000000E+00 0. -1.
         23    2    1    2    0    0  0.93690342079E+02 -0.27069807565E+03 -0.35005528160E+02  0.30175291785E+03  0.88170902629E+02 0.  0.
         13    1    3    3    0    0  0.13209900097E+02 -0.11875526536E+03  0.20165246005E+02  0.12117735621E+03  0.00000000000E+00 0.  1.
        -13    1    3    3    0    0  0.80480441982E+02 -0.15194281029E+03 -0.55170774166E+02  0.18057556164E+03  0.00000000000E+00 0. -1.
         22    1    1    2    0    0 -0.93690342079E+02  0.27069807565E+03 -0.15195782514E+04  0.15463419384E+04  0.00000000000E+00 0. -1.
<mgrwt>
<rscale>  0 0.99936173E+03</rscale>
<asrwt>0</asrwt>
<pdfrwt beam="1">  1        1 0.26174449E+00 0.99936173E+03</pdfrwt>
<pdfrwt beam="2">  1       -1 0.22577777E-01 0.99936173E+03</pdfrwt>
<totfact> 0.79615028E+01</totfact>
</mgrwt>
</event>
<event>
 6    1  0.9364335E-007  0.2194125E+04  0.7818608E-02  0.8520877E-01
         -2   -1    0    0    0  501 -0.00000000000E+00  0.00000000000E+00  0.51336743562E+03  0.51336743562E+03  0.00000000000E+00 0.  1.
          2   -1    0    0  501    0  0.00000000000E+00 -0.00000000000E+00 -0.23444146528E+04  0.23444146528E+04  0.00000000000E+00 0. -1.
         23    2    1    2    0    0 -0.63593860780E+03 -0.50281035498E+03  0.41425447940E+02  0.81734339844E+03  0.95383422448E+02 0.  0.
         13    1    3    3    0    0 -0.29830904997E+03 -0.23949512271E+03 -0.28029781416E+02  0.38357772582E+03  0.00000000000E+00 0. -1.
        -13    1    3    3    0    0 -0.33762955782E+03 -0.26331523226E+03  0.69455229356E+02  0.43376567262E+03  0.00000000000E+00 0.  1.
         22    1    1    2    0    0  0.63593860780E+03  0.50281035498E+03 -0.18724726651E+04  0.20404386899E+04  0.00000000000E+00 0. -1.
<mgrwt>
<rscale>  0 0.21941250E+04</rscale>
<asrwt>0</asrwt>
<pdfrwt beam="1">  1        2 0.36067918E+00 0.21941250E+04</pdfrwt>
<pdfrwt beam="2">  1       -2 0.78979604E-01 0.21941250E+04</pdfrwt>
<totfact> 0.55649737E+00</totfact>
</mgrwt>
</event>
<event>
 6    1  0.9364335E-007  0.1500939E+04  0.7818608E-02  0.8883829E-01
          1   -1    0    0  501    0  0.00000000000E+00  0.00000000000E+00  0.99925200998E+03  0.99925200998E+03  0.00000000000E+00 0. -1.
         -1   -1    0    0    0  501 -0.00000000000E+00 -0.00000000000E+00 -0.56362604485E+03  0.56362604485E+03  0.00000000000E+00 0.  1.
         23    2    1    2    0    0 -0.53151322841E+03  0.14436498859E+03 -0.30766796142E+03  0.63776540052E+03  0.93474968353E+02 0.  0.
         11    1    3    3    0    0 -0.10023595554E+03  0.66519086346E+02 -0.61349744387E+02  0.13504009319E+03  0.00000000000E+00 0. -1.
        -11    1    3    3    0    0 -0.43127727287E+03  0.77845902243E+02 -0.24631821703E+03  0.50272530733E+03  0.00000000000E+00 0.  1.
         22    1    1    2    0    0  0.53151322841E+03 -0.14436498859E+03  0.74329392656E+03  0.92511265431E+03  0.00000000000E+00 0. -1.
<mgrwt>
<rscale>  0 0.15009390E+04</rscale>
<asrwt>0</asrwt>
<pdfrwt beam="1">  1        1 0.15373108E+00 0.15009390E+04</pdfrwt>
<pdfrwt beam="2">  1       -1 0.86711699E-01 0.15009390E+04</pdfrwt>
<totfact> 0.19216827E+01</totfact>
</mgrwt>
</event>
<event>
 6    1  0.9364335E-007  0.2597011E+04  0.7818608E-02  0.8369217E-01
         -1   -1    0    0    0  501 -0.00000000000E+00  0.00000000000E+00  0.11701320188E+04  0.11701320188E+04  0.00000000000E+00 0.  1.
          1   -1    0    0  501    0  0.00000000000E+00 -0.00000000000E+00 -0.14409631906E+04  0.14409631906E+04  0.00000000000E+00 0. -1.
         23    2    1    2    0    0 -0.80453730633E+03 -0.33785468608E+03  0.82921167177E+03  0.12069868362E+04  0.88312853062E+02 0.  0.
         13    1    3    3    0    0 -0.72901232961E+03 -0.31361862892E+03  0.71674675427E+03  0.10693650129E+04  0.00000000000E+00 0.  1.
        -13    1    3    3    0    0 -0.75524976723E+02 -0.24236057160E+02  0.11246491751E+03  0.13762182329E+03  0.00000000000E+00 0. -1.
         22    1    1    2    0    0  0.80453730633E+03  0.33785468608E+03 -0.11000428436E+04  0.14041083733E+04  0.00000000000E+00 0. -1.
<mgrwt>
<rscale>  0 0.25970115E+04</rscale>
<asrwt>0</asrwt>
<pdfrwt beam="1">  1        1 0.22168664E+00 0.25970115E+04</pdfrwt>
<pdfrwt beam="2">  1       -1 0.18002031E+00 0.25970115E+04</pdfrwt>
<totfact> 0.13180674E+00</totfact>
</mgrwt>
</event>
<event>
 6    1  0.9364335E-007  0.1835650E+04  0.7818608E-02  0.8687568E-01
         -1   -1    0    0    0  501 -0.00000000000E+00  0.00000000000E+00  0.13391128041E+04  0.13391128041E+04  0.00000000000E+00 0.  1.
          1   -1    0    0  501    0  0.00000000000E+00 -0.00000000000E+00 -0.62907517697E+03  0.62907517697E+03  0.00000000000E+00 0. -1.
         23    2    1    2    0    0 -0.25606964437E+03  0.59548533934E+03  0.10491015667E+04  0.12366561586E+04  0.92357485944E+02 0.  0.
         13    1    3    3    0    0 -0.30145098416E+02  0.15879348103E+03  0.29628884315E+03  0.33750729644E+03  0.00000000000E+00 0.  1.
        -13    1    3    3    0    0 -0.22592454595E+03  0.43669185831E+03  0.75281272354E+03  0.89914886215E+03  0.00000000000E+00 0. -1.
         22    1    1    2    0    0  0.25606964437E+03 -0.59548533934E+03 -0.33906393959E+03  0.73153182245E+03  0.00000000000E+00 0. -1.
<mgrwt>
<rscale>  0 0.18356499E+04</rscale>
<asrwt>0</asrwt>
<pdfrwt beam="1">  1        1 0.96780797E-01 0.18356499E+04</pdfrwt>
<pdfrwt beam="2">  1       -1 0.20601735E+00 0.18356499E+04</pdfrwt>
<totfact> 0.41141790E+00</totfact>
</mgrwt>
</event>
<event>
 6    1  0.9364335E-007  0.3959531E+04  0.7818608E-02  0.8012761E-01
         -1   -1    0    0    0  501 -0.00000000000E+00  0.00000000000E+00  0.86121582350E+03  0.86121582350E+03  0.00000000000E+00 0.  1.
          1   -1    0    0  501    0  0.00000000000E+00 -0.00000000000E+00 -0.45510910754E+04  0.45510910754E+04  0.00000000000E+00 0. -1.
         23    2    1    2    0    0  0.43140173156E+03 -0.18002568696E+04 -0.89068177170E+03  0.20563396181E+04  0.90478482889E+02 0.  0.
         11    1    3    3    0    0  0.24129186772E+03 -0.11380283635E+04 -0.59396051402E+03  0.13061850610E+04  0.00000000000E+00 0. -1.
        -11    1    3    3    0    0  0.19010986384E+03 -0.66222850611E+03 -0.29672125768E+03  0.75015455700E+03  0.00000000000E+00 0.  1.
         22    1    1    2    0    0 -0.43140173156E+03  0.18002568696E+04 -0.27991934802E+04  0.33559672808E+04  0.00000000000E+00 0. -1.
<mgrwt>
<rscale>  0 0.39595311E+04</rscale>
<asrwt>0</asrwt>
<pdfrwt beam="1">  1        1 0.70016785E+00 0.39595311E+04</pdfrwt>
<pdfrwt beam="2">  1       -1 0.13249474E+00 0.39595311E+04</pdfrwt>
<totfact> 0.10753266E-02</totfact>
</mgrwt>
</event>
<event>
 6    1  0.9364335E-007  0.1298710E+04  0.7818608E-02  0.9030589E-01
          2   -1    0    0  501    0  0.00000000000E+00  0.00000000000E+00  0.21157746565E+04  0.21157746565E+04  0.00000000000E+00 0. -1.
         -2   -1    0    0    0  501 -0.00000000000E+00 -0.00000000000E+00 -0.19929428288E+03  0.19929428288E+03  0.00000000000E+00 0.  1.
         23    2    1    2    0    0  0.29307264245E+03  0.48415410038E+03  0.15189390418E+04  0.16234506363E+04  0.90107652653E+02 0.  0.
         13    1    3    3    0    0  0.26745043067E+03  0.41163302571E+03  0.12270688669E+04  0.13216162396E+04  0.00000000000E+00 0.  1.
        -13    1    3    3    0    0  0.25622211779E+02  0.72521074677E+02  0.29187017497E+03  0.30183439672E+03  0.00000000000E+00 0. -1.
         22    1    1    2    0    0 -0.29307264245E+03 -0.48415410038E+03  0.39754133180E+03  0.69161830308E+03  0.00000000000E+00 0.  1.
<mgrwt>
<rscale>  0 0.12987098E+04</rscale>
<asrwt>0</asrwt>
<pdfrwt beam="1">  1        2 0.32550378E+00 0.12987098E+04</pdfrwt>
<pdfrwt beam="2">  1       -2 0.30660660E-01 0.12987098E+04</pdfrwt>
<totfact> 0.55650820E+01</totfact>
</mgrwt>
</event>
<event>
 6    1  0.9364335E-007  0.4294648E+03  0.7818608E-02  0.1034029E+00
          2   -1    0    0  501    0  0.00000000000E+00  0.00000000000E+00  0.22802754624E+03  0.22802754624E+03  0.00000000000E+00 0. -1.
         -2   -1    0    0    0  501 -0.00000000000E+00 -0.00000000000E+00 -0.20221239308E+03  0.20221239308E+03  0.00000000000E+00 0.  1.
         23    2    1    2    0    0 -0.61248896939E+02  0.40511569206E+02 -0.18218512163E+03  0.20965723617E+03  0.73294771440E+02 0.  0.
         11    1    3    3    0    0 -0.66272130936E+02  0.42496608970E+02 -0.99888712923E+02  0.12718377287E+03  0.00000000000E+00 0.  1.
        -11    1    3    3    0    0  0.50232339970E+01 -0.19850397642E+01 -0.82296408704E+02  0.82473463297E+02  0.00000000000E+00 0. -1.
         22    1    1    2    0    0  0.61248896939E+02 -0.40511569206E+02  0.20800027479E+03  0.22058270315E+03  0.00000000000E+00 0. -1.
<mgrwt>
<rscale>  0 0.42946476E+03</rscale>
<asrwt>0</asrwt>
<pdfrwt beam="1">  1        2 0.35081161E-01 0.42946476E+03</pdfrwt>
<pdfrwt beam="2">  1       -2 0.31109599E-01 0.42946476E+03</pdfrwt>
<totfact> 0.14216658E+03</totfact>
</mgrwt>
</event>
<event>
 6    1  0.9364335E-007  0.2209256E+04  0.7818608E-02  0.8514585E-01
         -1   -1    0    0    0  501 -0.00000000000E+00  0.00000000000E+00  0.87164957011E+03  0.87164957011E+03  0.00000000000E+00 0.  1.
          1   -1    0    0  501    0  0.00000000000E+00 -0.00000000000E+00 -0.13998777485E+04  0.13998777485E+04  0.00000000000E+00 0. -1.
         23    2    1    2    0    0 -0.10874891917E+04  0.14249110587E+03 -0.38195445516E+03  0.11650317427E+04  0.92050520595E+02 0.  0.
         11    1    3    3    0    0 -0.58395387708E+03  0.51634231478E+02 -0.24487918850E+03  0.63532199819E+03  0.00000000000E+00 0. -1.
        -11    1    3    3    0    0 -0.50353531462E+03  0.90856874387E+02 -0.13707526666E+03  0.52970974450E+03  0.00000000000E+00 0.  1.
         22    1    1    2    0    0  0.10874891917E+04 -0.14249110587E+03 -0.14627372319E+03  0.11064955759E+04  0.00000000000E+00 0.  1.
<mgrwt>
<rscale>  0 0.22092558E+04</rscale>
<asrwt>0</asrwt>
<pdfrwt beam="1">  1        1 0.21536581E+00 0.22092558E+04</pdfrwt>
<pdfrwt beam="2">  1       -1 0.13409993E+00 0.22092558E+04</pdfrwt>
<totfact> 0.32806017E+00</totfact>
</mgrwt>
</event>
<event>
 6    1  0.9364335E-007  0.2147480E+04  0.7818608E-02  0.8540612E-01
         -1   -1    0    0    0  501 -0.00000000000E+00  0.00000000000E+00  0.55651218124E+03  0.55651218124E+03  0.00000000000E+00 0.  1.
          1   -1    0    0  501    0  0.00000000000E+00 -0.00000000000E+00 -0.20716836529E+04  0.20716836529E+04  0.00000000000E+00 0. -1.
         23    2    1    2    0    0  0.95577624011E+03 -0.46713712615E+03 -0.91854690648E+03  0.14084884153E+04  0.91574455275E+02 0.  0.
         11    1    3    3    0    0  0.18795455228E+03 -0.13168565792E+03 -0.18256219482E+03  0.29325241892E+03  0.00000000000E+00 0.  1.
        -11    1    3    3    0    0  0.76782168783E+03 -0.33545146824E+03 -0.73598471166E+03  0.11152359964E+04  0.00000000000E+00 0. -1.
         22    1    1    2    0    0 -0.95577624011E+03  0.46713712615E+03 -0.59662456517E+03  0.12197074188E+04  0.00000000000E+00 0. -1.
<mgrwt>
<rscale>  0 0.21474796E+04</rscale>
<asrwt>0</asrwt>
<pdfrwt beam="1">  1        1 0.31872057E+00 0.21474796E+04</pdfrwt>
<pdfrwt beam="2">  1       -1 0.85617257E-01 0.21474796E+04</pdfrwt>
<totfact> 0.32878551E+00</totfact>
</mgrwt>
</event>
<event>
 6    1  0.9364335E-007  0.3092358E+04  0.7818608E-02  0.8217838E-01
         -1   -1    0    0    0  501 -0.00000000000E+00  0.00000000000E+00  0.17631783787E+04  0.17631783787E+04  0.00000000000E+00 0.  1.
          1   -1    0    0  501    0  0.00000000000E+00 -0.00000000000E+00 -0.13558863250E+04  0.13558863250E+04  0.00000000000E+00 0. -1.
         23    2    1    2    0    0  0.61606243093E+03  0.11553310298E+04 -0.62315789537E+03  0.14528865006E+04  0.90723282324E+02 0.  0.
         13    1    3    3    0    0  0.15464281545E+03  0.24948123011E+03 -0.17641556253E+03  0.34245837009E+03  0.00000000000E+00 0.  1.
        -13    1    3    3    0    0  0.46141961549E+03  0.90584979966E+03 -0.44674233284E+03  0.11104281305E+04  0.00000000000E+00 0. -1.
         22    1    1    2    0    0 -0.61606243093E+03 -0.11553310298E+04  0.10304499490E+04  0.16661782031E+04  0.00000000000E+00 0.  1.
<mgrwt>
<rscale>  0 0.30923580E+04</rscale>
<asrwt>0</asrwt>
<pdfrwt beam="1">  1        1 0.20859790E+00 0.30923580E+04</pdfrwt>
<pdfrwt beam="2">  1       -1 0.27125821E+00 0.30923580E+04</pdfrwt>
<totfact> 0.35337005E-01</totfact>
</mgrwt>
</event>
<event>
 6    1  0.9364335E-007  0.3521899E+04  0.7818608E-02  0.8108620E-01
         -1   -1    0    0    0  501 -0.00000000000E+00  0.00000000000E+00  0.78544161753E+03  0.78544161753E+03  0.00000000000E+00 0.  1.
          1   -1    0    0  501    0  0.00000000000E+00 -0.00000000000E+00 -0.39480256197E+04  0.39480256197E+04  0.00000000000E+00 0. -1.
         23    2    1    2    0    0 -0.11583822169E+04 -0.51866705537E+03  0.56009788257E+02  0.12736679855E+04  0.90709238530E+02 0.  0.
         11    1    3    3    0    0 -0.63222665821E+03 -0.32661079312E+03  0.52554727337E+02  0.71354548341E+03  0.00000000000E+00 0. -1.
        -11    1    3    3    0    0 -0.52615555873E+03 -0.19205626224E+03  0.34550609205E+01  0.56012250204E+03  0.00000000000E+00 0.  1.
         22    1    1    2    0    0  0.11583822169E+04  0.51866705537E+03 -0.32185937904E+04  0.34597992518E+04  0.00000000000E+00 0. -1.
<mgrwt>
<rscale>  0 0.35218993E+04</rscale>
<asrwt>0</asrwt>
<pdfrwt beam="1">  1        1 0.60738855E+00 0.35218993E+04</pdfrwt>
<pdfrwt beam="2">  1       -1 0.12083717E+00 0.35218993E+04</pdfrwt>
<totfact> 0.52675293E-02</totfact>
</mgrwt>
</event>
<event>
 6    1  0.9364335E-007  0.1981107E+04  0.7818608E-02  0.8615505E-01
         -2   -1    0    0    0  501 -0.00000000000E+00  0.00000000000E+00  0.74339028377E+03  0.74339028377E+03  0.00000000000E+00 0.  1.
          2   -1    0    0  501    0  0.00000000000E+00 -0.00000000000E+00 -0.13198944386E+04  0.13198944386E+04  0.00000000000E+00 0. -1.
         23    2    1    2    0    0 -0.37453115819E+03 -0.15074492757E+03 -0.12285193817E+04  0.12963939363E+04  0.91540948209E+02 0.  0.
         13    1    3    3    0    0 -0.23673125540E+02  0.12427365437E+02 -0.68095043176E+02  0.73155937487E+02  0.00000000000E+00 0. -1.
        -13    1    3    3    0    0 -0.35085803265E+03 -0.16317229300E+03 -0.11604243385E+04  0.12232379988E+04  0.00000000000E+00 0.  1.
         22    1    1    2    0    0  0.37453115819E+03  0.15074492757E+03  0.65201522690E+03  0.76689078606E+03  0.00000000000E+00 0.  1.
<mgrwt>
<rscale>  0 0.19811075E+04</rscale>
<asrwt>0</asrwt>
<pdfrwt beam="1">  1        2 0.20306068E+00 0.19811075E+04</pdfrwt>
<pdfrwt beam="2">  1       -2 0.11436774E+00 0.19811075E+04</pdfrwt>
<totfact> 0.89524868E+00</totfact>
</mgrwt>
</event>
<event>
 6    1  0.9364335E-007  0.1334018E+04  0.7818608E-02  0.9003015E-01
          2   -1    0    0  501    0  0.00000000000E+00  0.00000000000E+00  0.19380976463E+04  0.19380976463E+04  0.00000000000E+00 0. -1.
         -2   -1    0    0    0  501 -0.00000000000E+00 -0.00000000000E+00 -0.22955560562E+03  0.22955560562E+03  0.00000000000E+00 0.  1.
         23    2    1    2    0    0 -0.18675277711E+03  0.41813019682E+03  0.77162189908E+02  0.47321833764E+03  0.90951252174E+02 0.  0.
         13    1    3    3    0    0 -0.15300314917E+03  0.24283012636E+03  0.30015025643E+02  0.28857812753E+03  0.00000000000E+00 0.  1.
        -13    1    3    3    0    0 -0.33749627939E+02  0.17530007046E+03  0.47147164266E+02  0.18464021011E+03  0.00000000000E+00 0. -1.
         22    1    1    2    0    0  0.18675277711E+03 -0.41813019682E+03  0.16313798508E+04  0.16944349143E+04  0.00000000000E+00 0. -1.
<mgrwt>
<rscale>  0 0.13340183E+04</rscale>
<asrwt>0</asrwt>
<pdfrwt beam="1">  1        2 0.29816886E+00 0.13340183E+04</pdfrwt>
<pdfrwt beam="2">  1       -2 0.35316248E-01 0.13340183E+04</pdfrwt>
<totfact> 0.53281103E+01</totfact>
</mgrwt>
</event>
<event>
 6    1  0.9364335E-007  0.4252137E+04  0.7818608E-02  0.7955528E-01
         -1   -1    0    0    0  501 -0.00000000000E+00  0.00000000000E+00  0.25380133168E+04  0.25380133168E+04  0.00000000000E+00 0.  1.
          1   -1    0    0  501    0  0.00000000000E+00 -0.00000000000E+00 -0.17809864184E+04  0.17809864184E+04  0.00000000000E+00 0. -1.
         23    2    1    2    0    0  0.70781831611E+03  0.10093634328E+03  0.24112942684E+04  0.25168356346E+04  0.94480944448E+02 0.  0.
         11    1    3    3    0    0  0.30449056543E+03  0.43601394903E+02  0.87699508021E+03  0.92937395960E+03  0.00000000000E+00 0.  1.
        -11    1    3    3    0    0  0.40332775068E+03  0.57334948378E+02  0.15342991882E+04  0.15874616750E+04  0.00000000000E+00 0. -1.
         22    1    1    2    0    0 -0.70781831611E+03 -0.10093634328E+03 -0.16542673700E+04  0.18021641006E+04  0.00000000000E+00 0. -1.
<mgrwt>
<rscale>  0 0.42521370E+04</rscale>
<asrwt>0</asrwt>
<pdfrwt beam="1">  1        1 0.27399791E+00 0.42521370E+04</pdfrwt>
<pdfrwt beam="2">  1       -1 0.39046359E+00 0.42521370E+04</pdfrwt>
<totfact> 0.26728540E-02</totfact>
</mgrwt>
</event>
<event>
 6    1  0.9364335E-007  0.4733583E+04  0.7818608E-02  0.7870972E-01
         -2   -1    0    0    0  501 -0.00000000000E+00  0.00000000000E+00  0.52085038527E+04  0.52085038527E+04  0.00000000000E+00 0.  1.
          2   -1    0    0  501    0  0.00000000000E+00 -0.00000000000E+00 -0.10754914670E+04  0.10754914670E+04  0.00000000000E+00 0. -1.
         23    2    1    2    0    0 -0.15296931941E+04 -0.91110743084E+03  0.41356286375E+04  0.45035221063E+04  0.90604170400E+02 0.  0.
         11    1    3    3    0    0 -0.41255398312E+03 -0.28693579154E+03  0.12176999251E+04  0.13173177464E+04  0.00000000000E+00 0.  1.
        -11    1    3    3    0    0 -0.11171392110E+04 -0.62417163930E+03  0.29179287125E+04  0.31862043599E+04  0.00000000000E+00 0. -1.
         22    1    1    2    0    0  0.15296931941E+04  0.91110743084E+03 -0.26162518666E+01  0.17804732134E+04  0.00000000000E+00 0. -1.
<mgrwt>
<rscale>  0 0.47335828E+04</rscale>
<asrwt>0</asrwt>
<pdfrwt beam="1">  1        2 0.16546023E+00 0.47335828E+04</pdfrwt>
<pdfrwt beam="2">  1       -2 0.80130827E+00 0.47335828E+04</pdfrwt>
<totfact> 0.12893198E-03</totfact>
</mgrwt>
</event>
<event>
 6    1  0.9364335E-007  0.2561609E+04  0.7818608E-02  0.8381360E-01
         -2   -1    0    0    0  501 -0.00000000000E+00  0.00000000000E+00  0.70082505710E+03  0.70082505710E+03  0.00000000000E+00 0.  1.
          2   -1    0    0  501    0  0.00000000000E+00 -0.00000000000E+00 -0.23407549788E+04  0.23407549788E+04  0.00000000000E+00 0. -1.
         23    2    1    2    0    0  0.35517015953E+03 -0.10037159823E+04 -0.16626251226E+04  0.19766355832E+04  0.95782644884E+02 0.  0.
         11    1    3    3    0    0  0.32839678805E+03 -0.94262126265E+03 -0.15953827352E+04  0.18819206591E+04  0.00000000000E+00 0.  1.
        -11    1    3    3    0    0  0.26773371484E+02 -0.61094719603E+02 -0.67242387357E+02  0.94714924069E+02  0.00000000000E+00 0. -1.
         22    1    1    2    0    0 -0.35517015953E+03  0.10037159823E+04  0.22695200915E+02  0.10649444527E+04  0.00000000000E+00 0.  1.
<mgrwt>
<rscale>  0 0.25616087E+04</rscale>
<asrwt>0</asrwt>
<pdfrwt beam="1">  1        2 0.36011615E+00 0.25616087E+04</pdfrwt>
<pdfrwt beam="2">  1       -2 0.10781924E+00 0.25616087E+04</pdfrwt>
<totfact> 0.26297029E+00</totfact>
</mgrwt>
</event>
<event>
 6    1  0.9364335E-007  0.1576997E+04  0.7818608E-02  0.8834806E-01
          2   -1    0    0  501    0  0.00000000000E+00  0.00000000000E+00  0.66517079250E+03  0.66517079250E+03  0.00000000000E+00 0. -1.
         -2   -1    0    0    0  501 -0.00000000000E+00 -0.00000000000E+00 -0.93469210057E+03  0.93469210057E+03  0.00000000000E+00 0.  1.
         23    2    1    2    0    0 -0.53434472952E+03 -0.39079140571E+03 -0.56489146864E+03  0.87495893771E+03  0.90601095973E+02 0.  0.
         13    1    3    3    0    0 -0.37212924263E+03 -0.23766059479E+03 -0.33175756483E+03  0.55229142068E+03  0.00000000000E+00 0.  1.
        -13    1    3    3    0    0 -0.16221548690E+03 -0.15313081092E+03 -0.23313390381E+03  0.32266751703E+03  0.00000000000E+00 0. -1.
         22    1    1    2    0    0  0.53434472952E+03  0.39079140571E+03  0.29537016057E+03  0.72490395536E+03  0.00000000000E+00 0. -1.
<mgrwt>
<rscale>  0 0.15769970E+04</rscale>
<asrwt>0</asrwt>
<pdfrwt beam="1">  1        2 0.10233397E+00 0.15769970E+04</pdfrwt>
<pdfrwt beam="2">  1       -2 0.14379879E+00 0.15769970E+04</pdfrwt>
<totfact> 0.14048416E+01</totfact>
</mgrwt>
</event>
<event>
 6    1  0.9364335E-007  0.6324447E+04  0.7818608E-02  0.7651426E-01
         -2   -1    0    0    0  501 -0.00000000000E+00  0.00000000000E+00  0.22619683371E+04  0.22619683371E+04  0.00000000000E+00 0.  1.
          2   -1    0    0  501    0  0.00000000000E+00 -0.00000000000E+00 -0.44207768430E+04  0.44207768430E+04  0.00000000000E+00 0. -1.
         23    2    1    2    0    0 -0.45795152916E+03  0.23720504281E+04  0.10753522115E+04  0.26458976003E+04  0.89715641696E+02 0.  0.
         11    1    3    3    0    0 -0.70253190035E+02  0.50380918143E+03  0.19898911757E+03  0.54621961784E+03  0.00000000000E+00 0. -1.
        -11    1    3    3    0    0 -0.38769833912E+03  0.18682412466E+04  0.87636309393E+03  0.20996779825E+04  0.00000000000E+00 0.  1.
         22    1    1    2    0    0  0.45795152916E+03 -0.23720504281E+04 -0.32341607174E+04  0.40368475798E+04  0.00000000000E+00 0. -1.
<mgrwt>
<rscale>  0 0.63244469E+04</rscale>
<asrwt>0</asrwt>
<pdfrwt beam="1">  1        2 0.68011952E+00 0.63244469E+04</pdfrwt>
<pdfrwt beam="2">  1       -2 0.34799513E+00 0.63244469E+04</pdfrwt>
<totfact> 0.15261121E-03</totfact>
</mgrwt>
</event>
<event>
 6    1  0.9364335E-007  0.2931621E+04  0.7818608E-02  0.8263531E-01
          1   -1    0    0  501    0  0.00000000000E+00  0.00000000000E+00  0.21402686045E+04  0.21402686045E+04  0.00000000000E+00 0. -1.
         -1   -1    0    0    0  501 -0.00000000000E+00 -0.00000000000E+00 -0.10038928749E+04  0.10038928749E+04  0.00000000000E+00 0.  1.
         23    2    1    2    0    0 -0.96619115242E+03  0.10823189128E+04  0.35557723146E+03  0.14965614470E+04  0.91221846411E+02 0.  0.
         13    1    3    3    0    0 -0.25345532474E+03  0.25322175585E+03  0.12262527631E+03  0.37867904307E+03  0.00000000000E+00 0.  1.
        -13    1    3    3    0    0 -0.71273582768E+03  0.82909715692E+03  0.23295195515E+03  0.11178824040E+04  0.00000000000E+00 0. -1.
         22    1    1    2    0    0  0.96619115242E+03 -0.10823189128E+04  0.78079849817E+03  0.16476000324E+04  0.00000000000E+00 0. -1.
<mgrwt>
<rscale>  0 0.29316210E+04</rscale>
<asrwt>0</asrwt>
<pdfrwt beam="1">  1        1 0.32927209E+00 0.29316210E+04</pdfrwt>
<pdfrwt beam="2">  1       -1 0.15444506E+00 0.29316210E+04</pdfrwt>
<totfact> 0.65999839E-01</totfact>
</mgrwt>
</event>
<event>
 6    1  0.9364335E-007  0.2758795E+04  0.7818608E-02  0.8316176E-01
         -1   -1    0    0    0  501 -0.00000000000E+00  0.00000000000E+00  0.19713565045E+04  0.19713565045E+04  0.00000000000E+00 0.  1.
          1   -1    0    0  501    0  0.00000000000E+00 -0.00000000000E+00 -0.96519209077E+03  0.96519209077E+03  0.00000000000E+00 0. -1.
         23    2    1    2    0    0  0.72191546261E+02  0.30553633811E+03  0.19317361306E+04  0.19591811739E+04  0.90677013096E+02 0.  0.
         13    1    3    3    0    0  0.75107423031E+02  0.13601421817E+03  0.81991729656E+03  0.83450905671E+03  0.00000000000E+00 0. -1.
        -13    1    3    3    0    0 -0.29158767700E+01  0.16952211994E+03  0.11118188341E+04  0.11246721172E+04  0.00000000000E+00 0.  1.
         22    1    1    2    0    0 -0.72191546261E+02 -0.30553633811E+03 -0.92557171687E+03  0.97736742136E+03  0.00000000000E+00 0. -1.
<mgrwt>
<rscale>  0 0.27587952E+04</rscale>
<asrwt>0</asrwt>
<pdfrwt beam="1">  1        1 0.14849109E+00 0.27587952E+04</pdfrwt>
<pdfrwt beam="2">  1       -1 0.30328561E+00 0.27587952E+04</pdfrwt>
<totfact> 0.44028625E-01</totfact>
</mgrwt>
</event>
<event>
 6    1  0.9364335E-007  0.1333289E+04  0.7818608E-02  0.9003575E-01
         -2   -1    0    0    0  501 -0.00000000000E+00  0.00000000000E+00  0.34069932354E+03  0.34069932354E+03  0.00000000000E+00 0.  1.
          2   -1    0    0  501    0  0.00000000000E+00 -0.00000000000E+00 -0.13044205538E+04  0.13044205538E+04  0.00000000000E+00 0. -1.
         23    2    1    2    0    0 -0.49050111949E+03  0.40924679065E+03 -0.70584629675E+03  0.95622673232E+03  0.89868153863E+02 0.  0.
         11    1    3    3    0    0 -0.77640926630E+02  0.48514348095E+02 -0.14828297169E+03  0.17426874405E+03  0.00000000000E+00 0.  1.
        -11    1    3    3    0    0 -0.41286019287E+03  0.36073244256E+03 -0.55756332506E+03  0.78195798827E+03  0.00000000000E+00 0. -1.
         22    1    1    2    0    0  0.49050111949E+03 -0.40924679065E+03 -0.25787493346E+03  0.68889314498E+03  0.00000000000E+00 0.  1.
<mgrwt>
<rscale>  0 0.13332895E+04</rscale>
<asrwt>0</asrwt>
<pdfrwt beam="1">  1        2 0.20068008E+00 0.13332895E+04</pdfrwt>
<pdfrwt beam="2">  1       -2 0.52415282E-01 0.13332895E+04</pdfrwt>
<totfact> 0.55191577E+01</totfact>
</mgrwt>
</event>
<event>
 6    1  0.9364335E-007  0.8637120E+03  0.7818608E-02  0.9472116E-01
          1   -1    0    0  501    0  0.00000000000E+00  0.00000000000E+00  0.28918761616E+04  0.28918761616E+04  0.00000000000E+00 0. -1.
         -1   -1    0    0    0  501 -0.00000000000E+00 -0.00000000000E+00 -0.64490874489E+02  0.64490874489E+02  0.00000000000E+00 0.  1.
         23    2    1    2    0    0  0.25647502766E+03 -0.32659111829E+03  0.11042035327E+04  0.11838556660E+04  0.99033317292E+02 0.  0.
         11    1    3    3    0    0  0.20974511144E+03 -0.31060479528E+03  0.10134778523E+04  0.10805580538E+04  0.00000000000E+00 0. -1.
        -11    1    3    3    0    0  0.46729916226E+02 -0.15986323007E+02  0.90725680447E+02  0.10329761220E+03  0.00000000000E+00 0.  1.
         22    1    1    2    0    0 -0.25647502766E+03  0.32659111829E+03  0.17231817544E+04  0.17725113701E+04  0.00000000000E+00 0. -1.
<mgrwt>
<rscale>  0 0.86371204E+03</rscale>
<asrwt>0</asrwt>
<pdfrwt beam="1">  1        1 0.44490392E+00 0.86371204E+03</pdfrwt>
<pdfrwt beam="2">  1       -1 0.99216752E-02 0.86371204E+03</pdfrwt>
<totfact> 0.47578446E+01</totfact>
</mgrwt>
</event>
<event>
 6    1  0.9364335E-007  0.2104407E+04  0.7818608E-02  0.8559304E-01
         -2   -1    0    0    0  501 -0.00000000000E+00  0.00000000000E+00  0.48768347152E+03  0.48768347152E+03  0.00000000000E+00 0.  1.
          2   -1    0    0  501    0  0.00000000000E+00 -0.00000000000E+00 -0.22701866820E+04  0.22701866820E+04  0.00000000000E+00 0. -1.
         23    2    1    2    0    0 -0.10432507838E+04  0.64723044467E+01 -0.73400063567E+03  0.12787583464E+04  0.89732305942E+02 0.  0.
         11    1    3    3    0    0 -0.55157940040E+03  0.46715671611E+02 -0.37407762694E+03  0.66809898960E+03  0.00000000000E+00 0. -1.
        -11    1    3    3    0    0 -0.49167138338E+03 -0.40243367165E+02 -0.35992300873E+03  0.61065935680E+03  0.00000000000E+00 0.  1.
         22    1    1    2    0    0  0.10432507838E+04 -0.64723044467E+01 -0.10485025748E+04  0.14791118072E+04  0.00000000000E+00 0.  1.
<mgrwt>
<rscale>  0 0.21044073E+04</rscale>
<asrwt>0</asrwt>
<pdfrwt beam="1">  1        2 0.34925949E+00 0.21044073E+04</pdfrwt>
<pdfrwt beam="2">  1       -2 0.75028227E-01 0.21044073E+04</pdfrwt>
<totfact> 0.69277922E+00</totfact>
</mgrwt>
</event>
<event>
 6    1  0.9364335E-007  0.3871972E+04  0.7818608E-02  0.8030884E-01
         -1   -1    0    0    0  501 -0.00000000000E+00  0.00000000000E+00  0.99981673309E+03  0.99981673309E+03  0.00000000000E+00 0.  1.
          1   -1    0    0  501    0  0.00000000000E+00 -0.00000000000E+00 -0.37487284483E+04  0.37487284483E+04  0.00000000000E+00 0. -1.
         23    2    1    2    0    0  0.56263076425E+03  0.17863898101E+04 -0.19712642783E+04  0.27206207581E+04  0.90291328405E+02 0.  0.
         11    1    3    3    0    0  0.45542112967E+03  0.13252270670E+04 -0.14516521413E+04  0.20176543618E+04  0.00000000000E+00 0. -1.
        -11    1    3    3    0    0  0.10720963458E+03  0.46116274310E+03 -0.51961213697E+03  0.70296639625E+03  0.00000000000E+00 0.  1.
         22    1    1    2    0    0 -0.56263076425E+03 -0.17863898101E+04 -0.77764743685E+03  0.20279244233E+04  0.00000000000E+00 0.  1.
<mgrwt>
<rscale>  0 0.38719718E+04</rscale>
<asrwt>0</asrwt>
<pdfrwt beam="1">  1        1 0.57672745E+00 0.38719718E+04</pdfrwt>
<pdfrwt beam="2">  1       -1 0.15381796E+00 0.38719718E+04</pdfrwt>
<totfact> 0.40443793E-02</totfact>
</mgrwt>
</event>
<event>
 6    1  0.9364335E-007  0.9775835E+03  0.7818608E-02  0.9333478E-01
          4   -1    0    0  501    0  0.00000000000E+00  0.00000000000E+00  0.71184181754E+03  0.71184181754E+03  0.00000000000E+00 0. -1.
         -4   -1    0    0    0  501 -0.00000000000E+00 -0.00000000000E+00 -0.33563266167E+03  0.33563266167E+03  0.00000000000E+00 0.  1.
         23    2    1    2    0    0 -0.29150559382E+03 -0.51157016923E+02  0.60097869307E+03  0.67583769893E+03  0.89379271403E+02 0.  0.
         11    1    3    3    0    0 -0.81556448473E+02  0.75398100043E+01  0.24586826733E+03  0.25915151534E+03  0.00000000000E+00 0.  1.
        -11    1    3    3    0    0 -0.20994914535E+03 -0.58696826927E+02  0.35511042574E+03  0.41668618359E+03  0.00000000000E+00 0. -1.
         22    1    1    2    0    0  0.29150559382E+03  0.51157016923E+02 -0.22476953719E+03  0.37163678028E+03  0.00000000000E+00 0.  1.
<mgrwt>
<rscale>  0 0.97758348E+03</rscale>
<asrwt>0</asrwt>
<pdfrwt beam="1">  1        4 0.10951413E+00 0.97758348E+03</pdfrwt>
<pdfrwt beam="2">  1       -4 0.51635794E-01 0.97758348E+03</pdfrwt>
<totfact> 0.47475192E+00</totfact>
</mgrwt>
</event>
<event>
 6    1  0.9364335E-007  0.2399787E+04  0.7818608E-02  0.8439583E-01
         -1   -1    0    0    0  501 -0.00000000000E+00  0.00000000000E+00  0.55195251186E+03  0.55195251186E+03  0.00000000000E+00 0.  1.
          1   -1    0    0  501    0  0.00000000000E+00 -0.00000000000E+00 -0.26084579621E+04  0.26084579621E+04  0.00000000000E+00 0. -1.
         23    2    1    2    0    0  0.28537019943E+03 -0.89046046180E+03 -0.42964426705E+02  0.94034213307E+03  0.89673856382E+02 0.  0.
         13    1    3    3    0    0  0.70733847005E+02 -0.32393154018E+03 -0.44337712641E+02  0.33451569858E+03  0.00000000000E+00 0. -1.
        -13    1    3    3    0    0  0.21463635242E+03 -0.56652892163E+03  0.13732859365E+01  0.60582643449E+03  0.00000000000E+00 0.  1.
         22    1    1    2    0    0 -0.28537019943E+03  0.89046046180E+03 -0.20135410236E+04  0.22200683409E+04  0.00000000000E+00 0. -1.
<mgrwt>
<rscale>  0 0.23997874E+04</rscale>
<asrwt>0</asrwt>
<pdfrwt beam="1">  1        1 0.40130123E+00 0.23997874E+04</pdfrwt>
<pdfrwt beam="2">  1       -1 0.84915770E-01 0.23997874E+04</pdfrwt>
<totfact> 0.13992390E+00</totfact>
</mgrwt>
</event>
<event>
 6    1  0.9364335E-007  0.3104181E+04  0.7818608E-02  0.8214592E-01
          3   -1    0    0  501    0  0.00000000000E+00  0.00000000000E+00  0.10631274390E+04  0.10631274390E+04  0.00000000000E+00 0. -1.
         -3   -1    0    0    0  501 -0.00000000000E+00 -0.00000000000E+00 -0.22659411691E+04  0.22659411691E+04  0.00000000000E+00 0.  1.
         23    2    1    2    0    0  0.11292162951E+04  0.41907625972E+03 -0.16494668554E+04  0.20444467311E+04  0.90924015953E+02 0.  0.
         13    1    3    3    0    0  0.63982081029E+03  0.28515636885E+03 -0.95038400665E+03  0.11806415985E+04  0.00000000000E+00 0. -1.
        -13    1    3    3    0    0  0.48939548479E+03  0.13391989087E+03 -0.69908284876E+03  0.86380513261E+03  0.00000000000E+00 0.  1.
         22    1    1    2    0    0 -0.11292162951E+04 -0.41907625972E+03  0.44665312532E+03  0.12846218770E+04  0.00000000000E+00 0. -1.
<mgrwt>
<rscale>  0 0.31041806E+04</rscale>
<asrwt>0</asrwt>
<pdfrwt beam="1">  1        3 0.16355807E+00 0.31041806E+04</pdfrwt>
<pdfrwt beam="2">  1       -3 0.34860633E+00 0.31041806E+04</pdfrwt>
<totfact> 0.11545385E-02</totfact>
</mgrwt>
</event>
<event>
 6    1  0.9364335E-007  0.1263383E+04  0.7818608E-02  0.9059118E-01
         -1   -1    0    0    0  501 -0.00000000000E+00  0.00000000000E+00  0.35971466865E+03  0.35971466865E+03  0.00000000000E+00 0.  1.
          1   -1    0    0  501    0  0.00000000000E+00 -0.00000000000E+00 -0.11093069192E+04  0.11093069192E+04  0.00000000000E+00 0. -1.
         23    2    1    2    0    0 -0.29437675543E+03  0.18082234881E+03 -0.98702664904E+03  0.10498205746E+04  0.92451267718E+02 0.  0.
         13    1    3    3    0    0 -0.16883411010E+03  0.15509517254E+03 -0.61516154053E+03  0.65649309991E+03  0.00000000000E+00 0. -1.
        -13    1    3    3    0    0 -0.12554264533E+03  0.25727176270E+02 -0.37186510851E+03  0.39332747466E+03  0.00000000000E+00 0.  1.
         22    1    1    2    0    0  0.29437675543E+03 -0.18082234881E+03  0.23743439848E+03  0.41920101329E+03  0.00000000000E+00 0.  1.
<mgrwt>
<rscale>  0 0.12633827E+04</rscale>
<asrwt>0</asrwt>
<pdfrwt beam="1">  1        1 0.17066260E+00 0.12633827E+04</pdfrwt>
<pdfrwt beam="2">  1       -1 0.55340718E-01 0.12633827E+04</pdfrwt>
<totfact> 0.40569680E+01</totfact>
</mgrwt>
</event>
<event>
 6    1  0.9364335E-007  0.2410469E+04  0.7818608E-02  0.8435595E-01
          2   -1    0    0  501    0  0.00000000000E+00  0.00000000000E+00  0.29204115196E+04  0.29204115196E+04  0.00000000000E+00 0. -1.
         -2   -1    0    0    0  501 -0.00000000000E+00 -0.00000000000E+00 -0.49739216424E+03  0.49739216424E+03  0.00000000000E+00 0.  1.
         23    2    1    2    0    0  0.79561813727E+03  0.71486151483E+03  0.19953276326E+04  0.22658681755E+04  0.93760447235E+02 0.  0.
         13    1    3    3    0    0  0.38467569589E+03  0.29858329966E+03  0.97197094882E+03  0.10871315023E+04  0.00000000000E+00 0. -1.
        -13    1    3    3    0    0  0.41094244138E+03  0.41627821517E+03  0.10233566838E+04  0.11787366732E+04  0.00000000000E+00 0.  1.
         22    1    1    2    0    0 -0.79561813727E+03 -0.71486151483E+03  0.42769172276E+03  0.11519355084E+04  0.00000000000E+00 0. -1.
<mgrwt>
<rscale>  0 0.24104687E+04</rscale>
<asrwt>0</asrwt>
<pdfrwt beam="1">  1        2 0.44929407E+00 0.24104687E+04</pdfrwt>
<pdfrwt beam="2">  1       -2 0.76521873E-01 0.24104687E+04</pdfrwt>
<totfact> 0.26783572E+00</totfact>
</mgrwt>
</event>
<event>
 6    1  0.9364335E-007  0.2541810E+04  0.7818608E-02  0.8388240E-01
          1   -1    0    0  501    0  0.00000000000E+00  0.00000000000E+00  0.10501190554E+04  0.10501190554E+04  0.00000000000E+00 0. -1.
         -1   -1    0    0    0  501 -0.00000000000E+00 -0.00000000000E+00 -0.15381113221E+04  0.15381113221E+04  0.00000000000E+00 0.  1.
         23    2    1    2    0    0  0.69583825208E+03  0.10524450018E+04 -0.38668341193E+03  0.13224915264E+04  0.87340834408E+02 0.  0.
         13    1    3    3    0    0  0.47646105218E+03  0.66173467156E+03 -0.27691959006E+03  0.86115757510E+03  0.00000000000E+00 0.  1.
        -13    1    3    3    0    0  0.21937719991E+03  0.39071033028E+03 -0.10976382187E+03  0.46133395130E+03  0.00000000000E+00 0. -1.
         22    1    1    2    0    0 -0.69583825208E+03 -0.10524450018E+04 -0.10130885480E+03  0.12657388510E+04  0.00000000000E+00 0. -1.
<mgrwt>
<rscale>  0 0.25418104E+04</rscale>
<asrwt>0</asrwt>
<pdfrwt beam="1">  1        1 0.16155678E+00 0.25418104E+04</pdfrwt>
<pdfrwt beam="2">  1       -1 0.23663251E+00 0.25418104E+04</pdfrwt>
<totfact> 0.10449536E+00</totfact>
</mgrwt>
</event>
<event>
 6    1  0.9364335E-007  0.1370195E+04  0.7818608E-02  0.8975680E-01
          2   -1    0    0  501    0  0.00000000000E+00  0.00000000000E+00  0.34291436978E+03  0.34291436978E+03  0.00000000000E+00 0. -1.
         -2   -1    0    0    0  501 -0.00000000000E+00 -0.00000000000E+00 -0.13687330950E+04  0.13687330950E+04  0.00000000000E+00 0.  1.
         23    2    1    2    0    0  0.57806677894E+03 -0.24355535378E+03 -0.84970576623E+03  0.10601137469E+04  0.91437715665E+02 0.  0.
         13    1    3    3    0    0  0.36125299692E+03 -0.12593745851E+03 -0.45253078942E+03  0.59257749419E+03  0.00000000000E+00 0. -1.
        -13    1    3    3    0    0  0.21681378202E+03 -0.11761789527E+03 -0.39717497681E+03  0.46753625267E+03  0.00000000000E+00 0.  1.
         22    1    1    2    0    0 -0.57806677894E+03  0.24355535378E+03 -0.17611295900E+03  0.65153371793E+03  0.00000000000E+00 0. -1.
<mgrwt>
<rscale>  0 0.13701945E+04</rscale>
<asrwt>0</asrwt>
<pdfrwt beam="1">  1        2 0.52756058E-01 0.13701945E+04</pdfrwt>
<pdfrwt beam="2">  1       -2 0.21057432E+00 0.13701945E+04</pdfrwt>
<totfact> 0.10464135E+01</totfact>
</mgrwt>
</event>
<event>
 6    1  0.9364335E-007  0.4062136E+04  0.7818608E-02  0.7992128E-01
         -2   -1    0    0    0  501 -0.00000000000E+00  0.00000000000E+00  0.17743219241E+04  0.17743219241E+04  0.00000000000E+00 0.  1.
          2   -1    0    0  501    0  0.00000000000E+00 -0.00000000000E+00 -0.23249659685E+04  0.23249659685E+04  0.00000000000E+00 0. -1.
         23    2    1    2    0    0  0.12909421204E+04 -0.53962809983E+03 -0.17596562105E+04  0.22501149796E+04  0.94326019640E+02 0.  0.
         11    1    3    3    0    0  0.10431704511E+04 -0.42335658359E+03 -0.14704165842E+04  0.18519072110E+04  0.00000000000E+00 0. -1.
        -11    1    3    3    0    0  0.24777166926E+03 -0.11627151624E+03 -0.28923962632E+03  0.39820776865E+03  0.00000000000E+00 0.  1.
         22    1    1    2    0    0 -0.12909421204E+04  0.53962809983E+03  0.12090121661E+04  0.18491729130E+04  0.00000000000E+00 0.  1.
<mgrwt>
<rscale>  0 0.40621364E+04</rscale>
<asrwt>0</asrwt>
<pdfrwt beam="1">  1        2 0.35768707E+00 0.40621364E+04</pdfrwt>
<pdfrwt beam="2">  1       -2 0.27297260E+00 0.40621364E+04</pdfrwt>
<totfact> 0.16010600E-01</totfact>
</mgrwt>
</event>
<event>
 6    1  0.9364335E-007  0.3339749E+04  0.7818608E-02  0.8152854E-01
          2   -1    0    0  501    0  0.00000000000E+00  0.00000000000E+00  0.20052956495E+04  0.20052956495E+04  0.00000000000E+00 0. -1.
         -2   -1    0    0    0  501 -0.00000000000E+00 -0.00000000000E+00 -0.13905581464E+04  0.13905581464E+04  0.00000000000E+00 0.  1.
         23    2    1    2    0    0 -0.19941526837E+03 -0.14450883390E+04  0.11313827120E+04  0.18482850483E+04  0.89911189294E+02 0.  0.
         13    1    3    3    0    0 -0.37877779258E+01 -0.19238670397E+03  0.12399439997E+03  0.22891396276E+03  0.00000000000E+00 0. -1.
        -13    1    3    3    0    0 -0.19562749045E+03 -0.12527016351E+04  0.10073883120E+04  0.16193710855E+04  0.00000000000E+00 0.  1.
         22    1    1    2    0    0  0.19941526837E+03  0.14450883390E+04 -0.51664520884E+03  0.15475687476E+04  0.00000000000E+00 0.  1.
<mgrwt>
<rscale>  0 0.33397486E+04</rscale>
<asrwt>0</asrwt>
<pdfrwt beam="1">  1        2 0.30850702E+00 0.33397486E+04</pdfrwt>
<pdfrwt beam="2">  1       -2 0.21393202E+00 0.33397486E+04</pdfrwt>
<totfact> 0.59690142E-01</totfact>
</mgrwt>
</event>
<event>
 6    1  0.9364335E-007  0.1741140E+04  0.7818608E-02  0.8738242E-01
         -1   -1    0    0    0  501 -0.00000000000E+00  0.00000000000E+00  0.57824647611E+03  0.57824647611E+03  0.00000000000E+00 0.  1.
          1   -1    0    0  501    0  0.00000000000E+00 -0.00000000000E+00 -0.13106738817E+04  0.13106738817E+04  0.00000000000E+00 0. -1.
         23    2    1    2    0    0 -0.38705664801E+03  0.71031657903E+03 -0.70927846026E+03  0.10796624478E+04  0.90733543002E+02 0.  0.
         11    1    3    3    0    0 -0.46562736729E+02  0.10370990954E+03 -0.62132232397E+02  0.12955403541E+03  0.00000000000E+00 0.  1.
        -11    1    3    3    0    0 -0.34049391128E+03  0.60660666949E+03 -0.64714622786E+03  0.95010841240E+03  0.00000000000E+00 0. -1.
         22    1    1    2    0    0  0.38705664801E+03 -0.71031657903E+03 -0.23148945333E+02  0.80925790999E+03  0.00000000000E+00 0. -1.
<mgrwt>
<rscale>  0 0.17411405E+04</rscale>
<asrwt>0</asrwt>
<pdfrwt beam="1">  1        1 0.20164213E+00 0.17411405E+04</pdfrwt>
<pdfrwt beam="2">  1       -1 0.88960997E-01 0.17411405E+04</pdfrwt>
<totfact> 0.10446183E+01</totfact>
</mgrwt>
</event>
<event>
 6    1  0.9364335E-007  0.4074088E+04  0.7818608E-02  0.7989765E-01
         -2   -1    0    0    0  501 -0.00000000000E+00  0.00000000000E+00  0.16274101512E+04  0.16274101512E+04  0.00000000000E+00 0.  1.
          2   -1    0    0  501    0  0.00000000000E+00 -0.00000000000E+00 -0.25497859269E+04  0.25497859269E+04  0.00000000000E+00 0. -1.
         23    2    1    2    0    0 -0.15253273632E+04 -0.12594302178E+04  0.33152527151E+02  0.19804206285E+04  0.90436371409E+02 0.  0.
         13    1    3    3    0    0 -0.13104256404E+04 -0.10410600821E+04  0.36495341893E+02  0.16740231072E+04  0.00000000000E+00 0.  1.
        -13    1    3    3    0    0 -0.21490172284E+03 -0.21837013570E+03 -0.33428147423E+01  0.30639752129E+03  0.00000000000E+00 0. -1.
         22    1    1    2    0    0  0.15253273632E+04  0.12594302178E+04 -0.95552830284E+03  0.21967754496E+04  0.00000000000E+00 0. -1.
<mgrwt>
<rscale>  0 0.40740876E+04</rscale>
<asrwt>0</asrwt>
<pdfrwt beam="1">  1        2 0.39227476E+00 0.40740876E+04</pdfrwt>
<pdfrwt beam="2">  1       -2 0.25037079E+00 0.40740876E+04</pdfrwt>
<totfact> 0.16323954E-01</totfact>
</mgrwt>
</event>
<event>
 6    1  0.9364335E-007  0.2724432E+04  0.7818608E-02  0.8327121E-01
         -1   -1    0    0    0  501 -0.00000000000E+00  0.00000000000E+00  0.64066467169E+03  0.64066467169E+03  0.00000000000E+00 0.  1.
          1   -1    0    0  501    0  0.00000000000E+00 -0.00000000000E+00 -0.28964167724E+04  0.28964167724E+04  0.00000000000E+00 0. -1.
         23    2    1    2    0    0 -0.12612184407E+04 -0.41318673951E+03 -0.73936998367E+03  0.15219362975E+04  0.90702172231E+02 0.  0.
         13    1    3    3    0    0 -0.92126253777E+03 -0.25956255383E+03 -0.52420746049E+03  0.10912794530E+04  0.00000000000E+00 0.  1.
        -13    1    3    3    0    0 -0.33995590294E+03 -0.15362418567E+03 -0.21516252318E+03  0.43065684454E+03  0.00000000000E+00 0. -1.
         22    1    1    2    0    0  0.12612184407E+04  0.41318673951E+03 -0.15163821170E+04  0.20151451466E+04  0.00000000000E+00 0. -1.
<mgrwt>
<rscale>  0 0.27244316E+04</rscale>
<asrwt>0</asrwt>
<pdfrwt beam="1">  1        1 0.44560258E+00 0.27244316E+04</pdfrwt>
<pdfrwt beam="2">  1       -1 0.98563795E-01 0.27244316E+04</pdfrwt>
<totfact> 0.60973879E-01</totfact>
</mgrwt>
</event>
<event>
 6    1  0.9364335E-007  0.3470657E+04  0.7818608E-02  0.8120779E-01
          1   -1    0    0  501    0  0.00000000000E+00  0.00000000000E+00  0.22708664850E+04  0.22708664850E+04  0.00000000000E+00 0. -1.
         -1   -1    0    0    0  501 -0.00000000000E+00 -0.00000000000E+00 -0.13260864480E+04  0.13260864480E+04  0.00000000000E+00 0.  1.
         23    2    1    2    0    0  0.91793181887E+02  0.73222626785E+03 -0.11528194487E+04  0.13733286622E+04  0.11161378804E+03 0.  0.
         11    1    3    3    0    0  0.41949596357E+02  0.59078616403E+03 -0.97409730627E+03  0.11400235183E+04  0.00000000000E+00 0. -1.
        -11    1    3    3    0    0  0.49843585529E+02  0.14144010382E+03 -0.17872214240E+03  0.23330514390E+03  0.00000000000E+00 0.  1.
         22    1    1    2    0    0 -0.91793181887E+02 -0.73222626785E+03  0.20975994857E+04  0.22236242708E+04  0.00000000000E+00 0. -1.
<mgrwt>
<rscale>  0 0.34706572E+04</rscale>
<asrwt>0</asrwt>
<pdfrwt beam="1">  1        1 0.34936407E+00 0.34706572E+04</pdfrwt>
<pdfrwt beam="2">  1       -1 0.20401330E+00 0.34706572E+04</pdfrwt>
<totfact> 0.22508473E-01</totfact>
</mgrwt>
</event>
<event>
 6    1  0.9364335E-007  0.1907982E+04  0.7818608E-02  0.8650893E-01
         -2   -1    0    0    0  501 -0.00000000000E+00  0.00000000000E+00  0.21848218806E+03  0.21848218806E+03  0.00000000000E+00 0.  1.
          2   -1    0    0  501    0  0.00000000000E+00 -0.00000000000E+00 -0.41655531305E+04  0.41655531305E+04  0.00000000000E+00 0. -1.
         23    2    1    2    0    0 -0.21003880729E+03  0.89818329031E+03 -0.25169778568E+04  0.26822668980E+04  0.92350728240E+02 0.  0.
         13    1    3    3    0    0 -0.17329514213E+03  0.70456221378E+03 -0.18654507412E+04  0.20015857681E+04  0.00000000000E+00 0.  1.
        -13    1    3    3    0    0 -0.36743665168E+02  0.19362107653E+03 -0.65152711567E+03  0.68068112995E+03  0.00000000000E+00 0. -1.
         22    1    1    2    0    0  0.21003880729E+03 -0.89818329031E+03 -0.14300930856E+04  0.17017684205E+04  0.00000000000E+00 0.  1.
<mgrwt>
<rscale>  0 0.19079824E+04</rscale>
<asrwt>0</asrwt>
<pdfrwt beam="1">  1        2 0.64085433E+00 0.19079824E+04</pdfrwt>
<pdfrwt beam="2">  1       -2 0.33612644E-01 0.19079824E+04</pdfrwt>
<totfact> 0.19568125E+00</totfact>
</mgrwt>
</event>
<event>
 6    1  0.9364335E-007  0.6466269E+03  0.7818608E-02  0.9813129E-01
          1   -1    0    0  501    0  0.00000000000E+00  0.00000000000E+00  0.19858148249E+04  0.19858148249E+04  0.00000000000E+00 0. -1.
         -1   -1    0    0    0  501 -0.00000000000E+00 -0.00000000000E+00 -0.52639148474E+02  0.52639148474E+02  0.00000000000E+00 0.  1.
         23    2    1    2    0    0 -0.15720913722E+03  0.53949952515E+02  0.18361635023E+04  0.18460048317E+04  0.92801515048E+02 0.  0.
         11    1    3    3    0    0 -0.16886217487E+03  0.51698778240E+02  0.16395595764E+04  0.16490429959E+04  0.00000000000E+00 0.  1.
        -11    1    3    3    0    0  0.11653037649E+02  0.22511742748E+01  0.19660392591E+03  0.19696183578E+03  0.00000000000E+00 0. -1.
         22    1    1    2    0    0  0.15720913722E+03 -0.53949952515E+02  0.97012174080E+02  0.19244914165E+03  0.00000000000E+00 0.  1.
<mgrwt>
<rscale>  0 0.64662694E+03</rscale>
<asrwt>0</asrwt>
<pdfrwt beam="1">  1        1 0.30550991E+00 0.64662694E+03</pdfrwt>
<pdfrwt beam="2">  1       -1 0.80983321E-02 0.64662694E+03</pdfrwt>
<totfact> 0.27809272E+02</totfact>
</mgrwt>
</event>
<event>
 6    1  0.9364335E-007  0.2381993E+04  0.7818608E-02  0.8446276E-01
          2   -1    0    0  501    0  0.00000000000E+00  0.00000000000E+00  0.30216799499E+04  0.30216799499E+04  0.00000000000E+00 0. -1.
         -2   -1    0    0    0  501 -0.00000000000E+00 -0.00000000000E+00 -0.46943171662E+03  0.46943171662E+03  0.00000000000E+00 0.  1.
         23    2    1    2    0    0 -0.54896379652E+02 -0.67319118214E+03  0.27126000789E+04  0.27969123475E+04  0.91211355002E+02 0.  0.
         11    1    3    3    0    0 -0.64328662513E+02 -0.30395552987E+03  0.11470438590E+04  0.11883756794E+04  0.00000000000E+00 0. -1.
        -11    1    3    3    0    0  0.94322828612E+01 -0.36923565227E+03  0.15655562199E+04  0.16085366681E+04  0.00000000000E+00 0.  1.
         22    1    1    2    0    0  0.54896379652E+02  0.67319118214E+03 -0.16035184557E+03  0.69419931907E+03  0.00000000000E+00 0.  1.
<mgrwt>
<rscale>  0 0.23819928E+04</rscale>
<asrwt>0</asrwt>
<pdfrwt beam="1">  1        2 0.46487383E+00 0.23819928E+04</pdfrwt>
<pdfrwt beam="2">  1       -2 0.72220266E-01 0.23819928E+04</pdfrwt>
<totfact> 0.26392167E+00</totfact>
</mgrwt>
</event>
<event>
 6    1  0.9364335E-007  0.2566492E+04  0.7818608E-02  0.8379673E-01
          2   -1    0    0  501    0  0.00000000000E+00  0.00000000000E+00  0.10930061827E+04  0.10930061827E+04  0.00000000000E+00 0. -1.
         -2   -1    0    0    0  501 -0.00000000000E+00 -0.00000000000E+00 -0.15065972243E+04  0.15065972243E+04  0.00000000000E+00 0.  1.
         23    2    1    2    0    0  0.64601413087E+03  0.86553264537E+03  0.49180883504E+03  0.11902666998E+04  0.91530699993E+02 0.  0.
         13    1    3    3    0    0  0.16089199864E+03  0.16557776154E+03  0.13006511471E+03  0.26498898922E+03  0.00000000000E+00 0.  1.
        -13    1    3    3    0    0  0.48512213224E+03  0.69995488382E+03  0.36174372033E+03  0.92527771062E+03  0.00000000000E+00 0. -1.
         22    1    1    2    0    0 -0.64601413087E+03 -0.86553264537E+03 -0.90539987669E+03  0.14093367072E+04  0.00000000000E+00 0.  1.
<mgrwt>
<rscale>  0 0.25664918E+04</rscale>
<asrwt>0</asrwt>
<pdfrwt beam="1">  1        2 0.16815480E+00 0.25664918E+04</pdfrwt>
<pdfrwt beam="2">  1       -2 0.23178419E+00 0.25664918E+04</pdfrwt>
<totfact> 0.16262646E+00</totfact>
</mgrwt>
</event>
<event>
 6    1  0.9364335E-007  0.1042548E+04  0.7818608E-02  0.9263071E-01
         -1   -1    0    0    0  501 -0.00000000000E+00  0.00000000000E+00  0.11317090543E+04  0.11317090543E+04  0.00000000000E+00 0.  1.
          1   -1    0    0  501    0  0.00000000000E+00 -0.00000000000E+00 -0.24010298305E+03  0.24010298305E+03  0.00000000000E+00 0. -1.
         23    2    1    2    0    0  0.38483808489E+03  0.33574867954E+03  0.34111262195E+03  0.62089888318E+03  0.91269243916E+02 0.  0.
         13    1    3    3    0    0  0.21822694836E+03  0.13199684948E+03  0.15342234535E+03  0.29763162687E+03  0.00000000000E+00 0. -1.
        -13    1    3    3    0    0  0.16661113653E+03  0.20375183006E+03  0.18769027661E+03  0.32326725631E+03  0.00000000000E+00 0.  1.
         22    1    1    2    0    0 -0.38483808489E+03 -0.33574867954E+03  0.55049344930E+03  0.75091315418E+03  0.00000000000E+00 0.  1.
<mgrwt>
<rscale>  0 0.10425483E+04</rscale>
<asrwt>0</asrwt>
<pdfrwt beam="1">  1        1 0.36938921E-01 0.10425483E+04</pdfrwt>
<pdfrwt beam="2">  1       -1 0.17410908E+00 0.10425483E+04</pdfrwt>
<totfact> 0.26928622E+01</totfact>
</mgrwt>
</event>
<event>
 6    1  0.9364335E-007  0.1334893E+04  0.7818608E-02  0.9002343E-01
         -1   -1    0    0    0  501 -0.00000000000E+00  0.00000000000E+00  0.22999370438E+04  0.22999370438E+04  0.00000000000E+00 0.  1.
          1   -1    0    0  501    0  0.00000000000E+00 -0.00000000000E+00 -0.19369444910E+03  0.19369444910E+03  0.00000000000E+00 0. -1.
         23    2    1    2    0    0 -0.23941827233E+03  0.50969313370E+03  0.17164494099E+04  0.18087614858E+04  0.91166530264E+02 0.  0.
         11    1    3    3    0    0 -0.15424456922E+03  0.22240235889E+03  0.83530538563E+03  0.87805995447E+03  0.00000000000E+00 0. -1.
        -11    1    3    3    0    0 -0.85173703110E+02  0.28729077481E+03  0.88114402422E+03  0.93070153133E+03  0.00000000000E+00 0.  1.
         22    1    1    2    0    0  0.23941827233E+03 -0.50969313370E+03  0.38979318484E+03  0.68487000709E+03  0.00000000000E+00 0. -1.
<mgrwt>
<rscale>  0 0.13348933E+04</rscale>
<asrwt>0</asrwt>
<pdfrwt beam="1">  1        1 0.29799148E-01 0.13348933E+04</pdfrwt>
<pdfrwt beam="2">  1       -1 0.35383645E+00 0.13348933E+04</pdfrwt>
<totfact> 0.22458776E+00</totfact>
</mgrwt>
</event>
<event>
 6    1  0.9364335E-007  0.3452871E+04  0.7818608E-02  0.8125051E-01
          1   -1    0    0  501    0  0.00000000000E+00  0.00000000000E+00  0.37967536943E+04  0.37967536943E+04  0.00000000000E+00 0. -1.
         -1   -1    0    0    0  501 -0.00000000000E+00 -0.00000000000E+00 -0.78503385252E+03  0.78503385252E+03  0.00000000000E+00 0.  1.
         23    2    1    2    0    0 -0.39783303910E+03  0.14131337580E+04  0.30439703359E+03  0.15020448737E+04  0.90901615463E+02 0.  0.
         11    1    3    3    0    0 -0.27705532565E+03  0.10323586148E+04  0.26045880244E+03  0.11001648744E+04  0.00000000000E+00 0. -1.
        -11    1    3    3    0    0 -0.12077771345E+03  0.38077514317E+03  0.43938231147E+02  0.40187999935E+03  0.00000000000E+00 0.  1.
         22    1    1    2    0    0  0.39783303910E+03 -0.14131337580E+04  0.27073228081E+04  0.30797426731E+04  0.00000000000E+00 0. -1.
<mgrwt>
<rscale>  0 0.34528714E+04</rscale>
<asrwt>0</asrwt>
<pdfrwt beam="1">  1        1 0.58411594E+00 0.34528714E+04</pdfrwt>
<pdfrwt beam="2">  1       -1 0.12077444E+00 0.34528714E+04</pdfrwt>
<totfact> 0.71441021E-02</totfact>
</mgrwt>
</event>
<event>
 6    1  0.9364335E-007  0.2401990E+04  0.7818608E-02  0.8438759E-01
          2   -1    0    0  501    0  0.00000000000E+00  0.00000000000E+00  0.99836494207E+03  0.99836494207E+03  0.00000000000E+00 0. -1.
         -2   -1    0    0    0  501 -0.00000000000E+00 -0.00000000000E+00 -0.14447514758E+04  0.14447514758E+04  0.00000000000E+00 0.  1.
         23    2    1    2    0    0 -0.11544279025E+04 -0.75080707204E+02 -0.54459068603E+03  0.12820888771E+04  0.93978607946E+02 0.  0.
         13    1    3    3    0    0 -0.90778046128E+03 -0.77351201483E+02 -0.39031983529E+03  0.99116000124E+03  0.00000000000E+00 0.  1.
        -13    1    3    3    0    0 -0.24664744126E+03  0.22704942783E+01 -0.15427085075E+03  0.29092887587E+03  0.00000000000E+00 0. -1.
         22    1    1    2    0    0  0.11544279025E+04  0.75080707204E+02  0.98204152350E+02  0.11610275407E+04  0.00000000000E+00 0. -1.
<mgrwt>
<rscale>  0 0.24019902E+04</rscale>
<asrwt>0</asrwt>
<pdfrwt beam="1">  1        2 0.15359461E+00 0.24019902E+04</pdfrwt>
<pdfrwt beam="2">  1       -2 0.22226946E+00 0.24019902E+04</pdfrwt>
<totfact> 0.21702938E+00</totfact>
</mgrwt>
</event>
<event>
 6    1  0.9364335E-007  0.1133785E+04  0.7818608E-02  0.9172874E-01
         -1   -1    0    0    0  501 -0.00000000000E+00  0.00000000000E+00  0.67352465506E+03  0.67352465506E+03  0.00000000000E+00 0.  1.
          1   -1    0    0  501    0  0.00000000000E+00 -0.00000000000E+00 -0.47714213447E+03  0.47714213447E+03  0.00000000000E+00 0. -1.
         23    2    1    2    0    0 -0.38857553551E+03 -0.90542372461E+02 -0.30484637998E+03  0.51002704773E+03  0.89484110459E+02 0.  0.
         13    1    3    3    0    0 -0.23986796598E+03 -0.73431212587E+02 -0.13968171805E+03  0.28712326002E+03  0.00000000000E+00 0.  1.
        -13    1    3    3    0    0 -0.14870756953E+03 -0.17111159873E+02 -0.16516466193E+03  0.22290378771E+03  0.00000000000E+00 0. -1.
         22    1    1    2    0    0  0.38857553551E+03  0.90542372461E+02  0.50122890057E+03  0.64063974180E+03  0.00000000000E+00 0.  1.
<mgrwt>
<rscale>  0 0.11337848E+04</rscale>
<asrwt>0</asrwt>
<pdfrwt beam="1">  1        1 0.73406482E-01 0.11337848E+04</pdfrwt>
<pdfrwt beam="2">  1       -1 0.10361918E+00 0.11337848E+04</pdfrwt>
<totfact> 0.41290293E+01</totfact>
</mgrwt>
</event>
<event>
 6    1  0.9364335E-007  0.4769651E+04  0.7818608E-02  0.7865057E-01
         -2   -1    0    0    0  501 -0.00000000000E+00  0.00000000000E+00  0.14356812966E+04  0.14356812966E+04  0.00000000000E+00 0.  1.
          2   -1    0    0  501    0  0.00000000000E+00 -0.00000000000E+00 -0.39614598753E+04  0.39614598753E+04  0.00000000000E+00 0. -1.
         23    2    1    2    0    0 -0.15209945562E+04  0.17977257434E+04 -0.16837854413E+04  0.28963023663E+04  0.90507989400E+02 0.  0.
         11    1    3    3    0    0 -0.39572251351E+03  0.50469400484E+03 -0.49870696823E+03  0.81241675658E+03  0.00000000000E+00 0. -1.
        -11    1    3    3    0    0 -0.11252720426E+04  0.12930317386E+04 -0.11850784731E+04  0.20838856097E+04  0.00000000000E+00 0.  1.
         22    1    1    2    0    0  0.15209945562E+04 -0.17977257434E+04 -0.84199313736E+03  0.25008388056E+04  0.00000000000E+00 0.  1.
<mgrwt>
<rscale>  0 0.47696515E+04</rscale>
<asrwt>0</asrwt>
<pdfrwt beam="1">  1        2 0.60945535E+00 0.47696515E+04</pdfrwt>
<pdfrwt beam="2">  1       -2 0.22087405E+00 0.47696515E+04</pdfrwt>
<totfact> 0.26474820E-02</totfact>
</mgrwt>
</event>
<event>
 6    1  0.9364335E-007  0.2408569E+04  0.7818608E-02  0.8436302E-01
          2   -1    0    0  501    0  0.00000000000E+00  0.00000000000E+00  0.14477460082E+04  0.14477460082E+04  0.00000000000E+00 0. -1.
         -2   -1    0    0    0  501 -0.00000000000E+00 -0.00000000000E+00 -0.10017650949E+04  0.10017650949E+04  0.00000000000E+00 0.  1.
         23    2    1    2    0    0 -0.96838732051E+03 -0.14451399118E+03 -0.48686697865E+03  0.10971563103E+04  0.89745296449E+02 0.  0.
         11    1    3    3    0    0 -0.27054602601E+03 -0.45094665942E+02 -0.92546373954E+02  0.28947109081E+03  0.00000000000E+00 0.  1.
        -11    1    3    3    0    0 -0.69784129451E+03 -0.99419325239E+02 -0.39432060470E+03  0.80768521952E+03  0.00000000000E+00 0. -1.
         22    1    1    2    0    0  0.96838732051E+03  0.14451399118E+03  0.93284789192E+03  0.13523547928E+04  0.00000000000E+00 0. -1.
<mgrwt>
<rscale>  0 0.24085692E+04</rscale>
<asrwt>0</asrwt>
<pdfrwt beam="1">  1        2 0.22273016E+00 0.24085692E+04</pdfrwt>
<pdfrwt beam="2">  1       -2 0.15411771E+00 0.24085692E+04</pdfrwt>
<totfact> 0.34047416E+00</totfact>
</mgrwt>
</event>
<event>
 6    1  0.9364335E-007  0.1845873E+04  0.7818608E-02  0.8682278E-01
          2   -1    0    0  501    0  0.00000000000E+00  0.00000000000E+00  0.30849712680E+04  0.30849712680E+04  0.00000000000E+00 0. -1.
         -2   -1    0    0    0  501 -0.00000000000E+00 -0.00000000000E+00 -0.27611665678E+03  0.27611665678E+03  0.00000000000E+00 0.  1.
         23    2    1    2    0    0 -0.70963606153E+03 -0.55856263623E+03  0.17346963811E+04  0.19577378395E+04  0.89388787752E+02 0.  0.
         11    1    3    3    0    0 -0.69446047726E+03 -0.52952597940E+03  0.16487238450E+04  0.18657340203E+04  0.00000000000E+00 0. -1.
        -11    1    3    3    0    0 -0.15175584270E+02 -0.29036656828E+02  0.85972536052E+02  0.92003819230E+02  0.00000000000E+00 0.  1.
         22    1    1    2    0    0  0.70963606153E+03  0.55856263623E+03  0.10741582302E+04  0.14033500853E+04  0.00000000000E+00 0. -1.
<mgrwt>
<rscale>  0 0.18458732E+04</rscale>
<asrwt>0</asrwt>
<pdfrwt beam="1">  1        2 0.47461094E+00 0.18458732E+04</pdfrwt>
<pdfrwt beam="2">  1       -2 0.42479488E-01 0.18458732E+04</pdfrwt>
<totfact> 0.76325365E+00</totfact>
</mgrwt>
</event>
<event>
 6    1  0.9364335E-007  0.3611382E+04  0.7818608E-02  0.8087889E-01
         -2   -1    0    0    0  501 -0.00000000000E+00  0.00000000000E+00  0.24372173244E+04  0.24372173244E+04  0.00000000000E+00 0.  1.
          2   -1    0    0  501    0  0.00000000000E+00 -0.00000000000E+00 -0.13378043640E+04  0.13378043640E+04  0.00000000000E+00 0. -1.
         23    2    1    2    0    0 -0.10904859652E+04 -0.69557156129E+03 -0.76530136175E+03  0.15056299327E+04  0.90861889012E+02 0.  0.
         11    1    3    3    0    0 -0.97338611997E+02 -0.94213106941E+02 -0.86707756345E+02  0.16083889429E+03  0.00000000000E+00 0.  1.
        -11    1    3    3    0    0 -0.99314735322E+03 -0.60135845435E+03 -0.67859360541E+03  0.13447910385E+04  0.00000000000E+00 0. -1.
         22    1    1    2    0    0  0.10904859652E+04  0.69557156129E+03  0.18647143222E+04  0.22693917557E+04  0.00000000000E+00 0.  1.
<mgrwt>
<rscale>  0 0.36113820E+04</rscale>
<asrwt>0</asrwt>
<pdfrwt beam="1">  1        2 0.20581606E+00 0.36113820E+04</pdfrwt>
<pdfrwt beam="2">  1       -2 0.37495651E+00 0.36113820E+04</pdfrwt>
<totfact> 0.13799084E-01</totfact>
</mgrwt>
</event>
<event>
 6    1  0.9364335E-007  0.1811880E+04  0.7818608E-02  0.8700007E-01
          1   -1    0    0  501    0  0.00000000000E+00  0.00000000000E+00  0.51558686808E+03  0.51558686808E+03  0.00000000000E+00 0. -1.
         -1   -1    0    0    0  501 -0.00000000000E+00 -0.00000000000E+00 -0.15918312842E+04  0.15918312842E+04  0.00000000000E+00 0.  1.
         23    2    1    2    0    0 -0.24682212932E+03 -0.34683949246E+03 -0.14666078558E+04  0.15298349011E+04  0.90760259674E+02 0.  0.
         13    1    3    3    0    0 -0.17882778340E+03 -0.28839440581E+03 -0.10419532701E+04  0.10958181083E+04  0.00000000000E+00 0. -1.
        -13    1    3    3    0    0 -0.67994345912E+02 -0.58445086648E+02 -0.42465458574E+03  0.43401679279E+03  0.00000000000E+00 0.  1.
         22    1    1    2    0    0  0.24682212932E+03  0.34683949246E+03  0.39036343969E+03  0.57758325122E+03  0.00000000000E+00 0. -1.
<mgrwt>
<rscale>  0 0.18118800E+04</rscale>
<asrwt>0</asrwt>
<pdfrwt beam="1">  1        1 0.79321056E-01 0.18118800E+04</pdfrwt>
<pdfrwt beam="2">  1       -1 0.24489712E+00 0.18118800E+04</pdfrwt>
<totfact> 0.30145987E+00</totfact>
</mgrwt>
</event>
<event>
 6    1  0.1132142E-006  0.4546890E+04  0.7818608E-02  0.7902479E-01
          2   -1    0    0  501    0  0.00000000000E+00  0.00000000000E+00  0.19296001578E+04  0.19296001578E+04  0.00000000000E+00 0. -1.
         -2   -1    0    0    0  501 -0.00000000000E+00 -0.00000000000E+00 -0.26785606816E+04  0.26785606816E+04  0.00000000000E+00 0.  1.
         23    2    1    2    0    0  0.22865485878E+03 -0.22113748092E+04  0.10087381451E+03  0.22281020180E+04  0.10863463831E+03 0.  0.
         11    1    3    3    0    0  0.16439401089E+03 -0.14730293928E+04  0.17370869909E+02  0.14822761990E+04  0.00000000000E+00 0. -1.
        -11    1    3    3    0    0  0.64260847885E+02 -0.73834541639E+03  0.83502944603E+02  0.74582581896E+03  0.00000000000E+00 0.  1.
         22    1    1    2    0    0 -0.22865485878E+03  0.22113748092E+04 -0.84983433831E+03  0.23800588215E+04  0.00000000000E+00 0.  1.
<mgrwt>
<rscale>  0 0.45468895E+04</rscale>
<asrwt>0</asrwt>
<pdfrwt beam="1">  1        2 0.29686156E+00 0.45468895E+04</pdfrwt>
<pdfrwt beam="2">  1       -2 0.41208626E+00 0.45468895E+04</pdfrwt>
<totfact> 0.34137532E-02</totfact>
</mgrwt>
</event>
<event>
 6    1  0.9364335E-007  0.1065662E+04  0.7818608E-02  0.9239321E-01
          2   -1    0    0  501    0  0.00000000000E+00  0.00000000000E+00  0.86077489654E+03  0.86077489654E+03  0.00000000000E+00 0. -1.
         -2   -1    0    0    0  501 -0.00000000000E+00 -0.00000000000E+00 -0.32982965788E+03  0.32982965788E+03  0.00000000000E+00 0.  1.
         23    2    1    2    0    0 -0.47873410296E+03  0.38006678481E+02  0.22198243104E+02  0.49099440982E+03  0.99759207732E+02 0.  0.
         11    1    3    3    0    0 -0.32788330630E+03  0.55801252483E+02 -0.20444712611E+02  0.33322549212E+03  0.00000000000E+00 0. -1.
        -11    1    3    3    0    0 -0.15085079666E+03 -0.17794574002E+02  0.42642955715E+02  0.15776891769E+03  0.00000000000E+00 0.  1.
         22    1    1    2    0    0  0.47873410296E+03 -0.38006678481E+02  0.50874699555E+03  0.69961014460E+03  0.00000000000E+00 0. -1.
<mgrwt>
<rscale>  0 0.10656624E+04</rscale>
<asrwt>0</asrwt>
<pdfrwt beam="1">  1        2 0.13242691E+00 0.10656624E+04</pdfrwt>
<pdfrwt beam="2">  1       -2 0.50743025E-01 0.10656624E+04</pdfrwt>
<totfact> 0.11394391E+02</totfact>
</mgrwt>
</event>
<event>
 6    1  0.9364335E-007  0.3852775E+04  0.7818608E-02  0.8034923E-01
          2   -1    0    0  501    0  0.00000000000E+00  0.00000000000E+00  0.36006432861E+04  0.36006432861E+04  0.00000000000E+00 0. -1.
         -2   -1    0    0    0  501 -0.00000000000E+00 -0.00000000000E+00 -0.10306404522E+04  0.10306404522E+04  0.00000000000E+00 0.  1.
         23    2    1    2    0    0 -0.62918722064E+03 -0.14728971644E+04  0.14985556454E+01  0.16043187827E+04  0.92379086177E+02 0.  0.
         13    1    3    3    0    0 -0.48651707809E+03 -0.11257433942E+04  0.39957314768E+02  0.12270263420E+04  0.00000000000E+00 0. -1.
        -13    1    3    3    0    0 -0.14267014255E+03 -0.34715377015E+03 -0.38458759123E+02  0.37729244077E+03  0.00000000000E+00 0.  1.
         22    1    1    2    0    0  0.62918722064E+03  0.14728971644E+04  0.25685042782E+04  0.30269649556E+04  0.00000000000E+00 0. -1.
<mgrwt>
<rscale>  0 0.38527749E+04</rscale>
<asrwt>0</asrwt>
<pdfrwt beam="1">  1        2 0.55394511E+00 0.38527749E+04</pdfrwt>
<pdfrwt beam="2">  1       -2 0.15856007E+00 0.38527749E+04</pdfrwt>
<totfact> 0.14184847E-01</totfact>
</mgrwt>
</event>
<event>
 6    1  0.9364335E-007  0.9149215E+03  0.7818608E-02  0.9407119E-01
          1   -1    0    0  501    0  0.00000000000E+00  0.00000000000E+00  0.94931049405E+03  0.94931049405E+03  0.00000000000E+00 0. -1.
         -1   -1    0    0    0  501 -0.00000000000E+00 -0.00000000000E+00 -0.22044455801E+03  0.22044455801E+03  0.00000000000E+00 0.  1.
         23    2    1    2    0    0  0.93410728148E+02  0.23435721047E+03  0.84900921899E+03  0.89032120539E+03  0.90588788498E+02 0.  0.
         13    1    3    3    0    0  0.70498410283E+02  0.23111463833E+03  0.80654260420E+03  0.84195900987E+03  0.00000000000E+00 0.  1.
        -13    1    3    3    0    0  0.22912317866E+02  0.32425721371E+01  0.42466614787E+02  0.48362195520E+02  0.00000000000E+00 0. -1.
         22    1    1    2    0    0 -0.93410728148E+02 -0.23435721047E+03 -0.12014328294E+03  0.27943384667E+03  0.00000000000E+00 0.  1.
<mgrwt>
<rscale>  0 0.91492149E+03</rscale>
<asrwt>0</asrwt>
<pdfrwt beam="1">  1        1 0.14604777E+00 0.91492149E+03</pdfrwt>
<pdfrwt beam="2">  1       -1 0.33914548E-01 0.91492149E+03</pdfrwt>
<totfact> 0.13702799E+02</totfact>
</mgrwt>
</event>
<event>
 6    1  0.9364335E-007  0.1108209E+04  0.7818608E-02  0.9197227E-01
         -1   -1    0    0    0  501 -0.00000000000E+00  0.00000000000E+00  0.89482727002E+03  0.89482727002E+03  0.00000000000E+00 0.  1.
          1   -1    0    0  501    0  0.00000000000E+00 -0.00000000000E+00 -0.34311876396E+03  0.34311876396E+03  0.00000000000E+00 0. -1.
         23    2    1    2    0    0  0.24934963170E+03  0.34137119628E+03 -0.11575692462E+03  0.44787032012E+03  0.92079452452E+02 0.  0.
         11    1    3    3    0    0  0.20265636529E+03  0.32282978935E+03 -0.11295710799E+03  0.39755249154E+03  0.00000000000E+00 0. -1.
        -11    1    3    3    0    0  0.46693266417E+02  0.18541406929E+02 -0.27998166307E+01  0.50317828578E+02  0.00000000000E+00 0.  1.
         22    1    1    2    0    0 -0.24934963170E+03 -0.34137119628E+03  0.66746543068E+03  0.79007571386E+03  0.00000000000E+00 0.  1.
<mgrwt>
<rscale>  0 0.11082094E+04</rscale>
<asrwt>0</asrwt>
<pdfrwt beam="1">  1        1 0.52787502E-01 0.11082094E+04</pdfrwt>
<pdfrwt beam="2">  1       -1 0.13766573E+00 0.11082094E+04</pdfrwt>
<totfact> 0.32073410E+01</totfact>
</mgrwt>
</event>
<event>
 6    1  0.9364335E-007  0.4091279E+04  0.7818608E-02  0.7986382E-01
          1   -1    0    0  501    0  0.00000000000E+00  0.00000000000E+00  0.24988857097E+04  0.24988857097E+04  0.00000000000E+00 0. -1.
         -1   -1    0    0    0  501 -0.00000000000E+00 -0.00000000000E+00 -0.16746026342E+04  0.16746026342E+04  0.00000000000E+00 0.  1.
         23    2    1    2    0    0 -0.17518912599E+04 -0.44634399105E+03  0.13866343726E+04  0.22801883343E+04  0.90321712357E+02 0.  0.
         11    1    3    3    0    0 -0.14099334808E+04 -0.37913446955E+03  0.11564202022E+04  0.18625152484E+04  0.00000000000E+00 0.  1.
        -11    1    3    3    0    0 -0.34195777913E+03 -0.67209521503E+02  0.23021417037E+03  0.41767308595E+03  0.00000000000E+00 0. -1.
         22    1    1    2    0    0  0.17518912599E+04  0.44634399105E+03 -0.56235129713E+03  0.18933000096E+04  0.00000000000E+00 0.  1.
<mgrwt>
<rscale>  0 0.40912788E+04</rscale>
<asrwt>0</asrwt>
<pdfrwt beam="1">  1        1 0.38444396E+00 0.40912788E+04</pdfrwt>
<pdfrwt beam="2">  1       -1 0.25763117E+00 0.40912788E+04</pdfrwt>
<totfact> 0.65545922E-02</totfact>
</mgrwt>
</event>
<event>
 6    1  0.9364335E-007  0.3771544E+03  0.7818608E-02  0.1051991E+00
         -3   -1    0    0    0  501 -0.00000000000E+00  0.00000000000E+00  0.33895532241E+03  0.33895532241E+03  0.00000000000E+00 0.  1.
          3   -1    0    0  501    0  0.00000000000E+00 -0.00000000000E+00 -0.10491460813E+03  0.10491460813E+03  0.00000000000E+00 0. -1.
         23    2    1    2    0    0  0.15414988609E+03  0.76036951288E+02  0.17595909638E+03  0.26243873234E+03  0.91480485835E+02 0.  0.
         13    1    3    3    0    0  0.74453165798E+02  0.62756708097E+02  0.42098539100E+02  0.10608470815E+03  0.00000000000E+00 0.  1.
        -13    1    3    3    0    0  0.79696720294E+02  0.13280243192E+02  0.13386055728E+03  0.15635402419E+03  0.00000000000E+00 0. -1.
         22    1    1    2    0    0 -0.15414988609E+03 -0.76036951288E+02  0.58081617893E+02  0.18143119820E+03  0.00000000000E+00 0.  1.
<mgrwt>
<rscale>  0 0.37715442E+03</rscale>
<asrwt>0</asrwt>
<pdfrwt beam="1">  1        3 0.16140709E-01 0.37715442E+03</pdfrwt>
<pdfrwt beam="2">  1       -3 0.52146973E-01 0.37715442E+03</pdfrwt>
<totfact> 0.31182735E+02</totfact>
</mgrwt>
</event>
<event>
 6    1  0.9364335E-007  0.2570943E+04  0.7818608E-02  0.8378139E-01
          1   -1    0    0  501    0  0.00000000000E+00  0.00000000000E+00  0.91561871394E+03  0.91561871394E+03  0.00000000000E+00 0. -1.
         -1   -1    0    0    0  501 -0.00000000000E+00 -0.00000000000E+00 -0.18047218007E+04  0.18047218007E+04  0.00000000000E+00 0.  1.
         23    2    1    2    0    0  0.28622322697E+03 -0.12495606238E+04 -0.51977054076E+03  0.13862745425E+04  0.90940661818E+02 0.  0.
         11    1    3    3    0    0  0.18783572766E+03 -0.71811176443E+03 -0.25885730030E+03  0.78611313989E+03  0.00000000000E+00 0. -1.
        -11    1    3    3    0    0  0.98387499307E+02 -0.53144885941E+03 -0.26091324046E+03  0.60016140266E+03  0.00000000000E+00 0.  1.
         22    1    1    2    0    0 -0.28622322697E+03  0.12495606238E+04 -0.36933254598E+03  0.13340659721E+04  0.00000000000E+00 0.  1.
<mgrwt>
<rscale>  0 0.25709431E+04</rscale>
<asrwt>0</asrwt>
<pdfrwt beam="1">  1        1 0.14086442E+00 0.25709431E+04</pdfrwt>
<pdfrwt beam="2">  1       -1 0.27764950E+00 0.25709431E+04</pdfrwt>
<totfact> 0.71910991E-01</totfact>
</mgrwt>
</event>
<event>
 6    1  0.9364335E-007  0.1130572E+04  0.7818608E-02  0.9175896E-01
         -2   -1    0    0    0  501 -0.00000000000E+00  0.00000000000E+00  0.43016385216E+03  0.43016385216E+03  0.00000000000E+00 0.  1.
          2   -1    0    0  501    0  0.00000000000E+00 -0.00000000000E+00 -0.74285221163E+03  0.74285221163E+03  0.00000000000E+00 0. -1.
         23    2    1    2    0    0  0.13256162478E+03  0.40498854213E+03 -0.53699103327E+03  0.69145610584E+03  0.90354152452E+02 0.  0.
         11    1    3    3    0    0  0.11554625102E+03  0.22228258644E+03 -0.28050897365E+03  0.37609276603E+03  0.00000000000E+00 0. -1.
        -11    1    3    3    0    0  0.17015373756E+02  0.18270595569E+03 -0.25648205962E+03  0.31536333981E+03  0.00000000000E+00 0.  1.
         22    1    1    2    0    0 -0.13256162478E+03 -0.40498854213E+03  0.22430267380E+03  0.48155995795E+03  0.00000000000E+00 0.  1.
<mgrwt>
<rscale>  0 0.11305718E+04</rscale>
<asrwt>0</asrwt>
<pdfrwt beam="1">  1        2 0.11428495E+00 0.11305718E+04</pdfrwt>
<pdfrwt beam="2">  1       -2 0.66179055E-01 0.11305718E+04</pdfrwt>
<totfact> 0.79065023E+01</totfact>
</mgrwt>
</event>
<event>
 6    1  0.9364335E-007  0.2783481E+04  0.7818608E-02  0.8308415E-01
          2   -1    0    0  501    0  0.00000000000E+00  0.00000000000E+00  0.29753583569E+04  0.29753583569E+04  0.00000000000E+00 0. -1.
         -2   -1    0    0    0  501 -0.00000000000E+00 -0.00000000000E+00 -0.65099453484E+03  0.65099453484E+03  0.00000000000E+00 0.  1.
         23    2    1    2    0    0 -0.10773361486E+04  0.67679676229E+03  0.43328393870E+03  0.13471227235E+04  0.91091306390E+02 0.  0.
         13    1    3    3    0    0 -0.92656788651E+03  0.58479916128E+03  0.40560776503E+03  0.11683474511E+04  0.00000000000E+00 0.  1.
        -13    1    3    3    0    0 -0.15076826210E+03  0.91997601015E+02  0.27676173662E+02  0.17877527245E+03  0.00000000000E+00 0. -1.
         22    1    1    2    0    0  0.10773361486E+04 -0.67679676229E+03  0.18910798833E+04  0.22792301682E+04  0.00000000000E+00 0. -1.
<mgrwt>
<rscale>  0 0.27834813E+04</rscale>
<asrwt>0</asrwt>
<pdfrwt beam="1">  1        2 0.45774743E+00 0.27834813E+04</pdfrwt>
<pdfrwt beam="2">  1       -2 0.10015301E+00 0.27834813E+04</pdfrwt>
<totfact> 0.12932568E+00</totfact>
</mgrwt>
</event>
<event>
 6    1  0.9364335E-007  0.5362299E+04  0.7818608E-02  0.7774926E-01
          2   -1    0    0  501    0  0.00000000000E+00  0.00000000000E+00  0.24294550811E+04  0.24294550811E+04  0.00000000000E+00 0. -1.
         -2   -1    0    0    0  501 -0.00000000000E+00 -0.00000000000E+00 -0.29589194635E+04  0.29589194635E+04  0.00000000000E+00 0.  1.
         23    2    1    2    0    0  0.77646743895E+03 -0.25142182358E+04 -0.77752093715E+03  0.27453219391E+04  0.89770378395E+02 0.  0.
         11    1    3    3    0    0  0.79751624907E+02 -0.33537509537E+03 -0.81145825164E+02  0.35414886872E+03  0.00000000000E+00 0. -1.
        -11    1    3    3    0    0  0.69671581404E+03 -0.21788431404E+04 -0.69637511199E+03  0.23911730704E+04  0.00000000000E+00 0.  1.
         22    1    1    2    0    0 -0.77646743895E+03  0.25142182358E+04  0.24805655478E+03  0.26430526055E+04  0.00000000000E+00 0. -1.
<mgrwt>
<rscale>  0 0.53622987E+04</rscale>
<asrwt>0</asrwt>
<pdfrwt beam="1">  1        2 0.37376232E+00 0.53622987E+04</pdfrwt>
<pdfrwt beam="2">  1       -2 0.45521838E+00 0.53622987E+04</pdfrwt>
<totfact> 0.87075875E-03</totfact>
</mgrwt>
</event>
<event>
 6    1  0.9364335E-007  0.1574978E+04  0.7818608E-02  0.8836069E-01
         -2   -1    0    0    0  501 -0.00000000000E+00  0.00000000000E+00  0.90054689821E+03  0.90054689821E+03  0.00000000000E+00 0.  1.
          2   -1    0    0  501    0  0.00000000000E+00 -0.00000000000E+00 -0.68862446550E+03  0.68862446550E+03  0.00000000000E+00 0. -1.
         23    2    1    2    0    0 -0.63763554330E+03  0.37910790814E+03 -0.15174752387E+03  0.76300084294E+03  0.94027034573E+02 0.  0.
         11    1    3    3    0    0 -0.47476473799E+03  0.31947771430E+03 -0.14020794148E+03  0.58917385654E+03  0.00000000000E+00 0. -1.
        -11    1    3    3    0    0 -0.16287080530E+03  0.59630193841E+02 -0.11539582387E+02  0.17382698640E+03  0.00000000000E+00 0.  1.
         22    1    1    2    0    0  0.63763554330E+03 -0.37910790814E+03  0.36366995658E+03  0.82617052078E+03  0.00000000000E+00 0.  1.
<mgrwt>
<rscale>  0 0.15749776E+04</rscale>
<asrwt>0</asrwt>
<pdfrwt beam="1">  1        2 0.10594223E+00 0.15749776E+04</pdfrwt>
<pdfrwt beam="2">  1       -2 0.13854568E+00 0.15749776E+04</pdfrwt>
<totfact> 0.14824883E+01</totfact>
</mgrwt>
</event>
<event>
 6    1  0.9364335E-007  0.5937266E+03  0.7818608E-02  0.9918507E-01
          2   -1    0    0  501    0  0.00000000000E+00  0.00000000000E+00  0.11702050537E+04  0.11702050537E+04  0.00000000000E+00 0. -1.
         -2   -1    0    0    0  501 -0.00000000000E+00 -0.00000000000E+00 -0.75309730139E+02  0.75309730139E+02  0.00000000000E+00 0.  1.
         23    2    1    2    0    0 -0.23755818874E+03  0.10377003595E+03  0.28732334090E+03  0.39735523483E+03  0.90190725799E+02 0.  0.
         13    1    3    3    0    0 -0.22314022346E+03  0.73559457027E+02  0.27495969178E+03  0.36167027131E+03  0.00000000000E+00 0. -1.
        -13    1    3    3    0    0 -0.14417965282E+02  0.30210578925E+02  0.12363649116E+02  0.35684963518E+02  0.00000000000E+00 0.  1.
         22    1    1    2    0    0  0.23755818874E+03 -0.10377003595E+03  0.80757198266E+03  0.84815954901E+03  0.00000000000E+00 0.  1.
<mgrwt>
<rscale>  0 0.59372663E+03</rscale>
<asrwt>0</asrwt>
<pdfrwt beam="1">  1        2 0.18003153E+00 0.59372663E+03</pdfrwt>
<pdfrwt beam="2">  1       -2 0.11586113E-01 0.59372663E+03</pdfrwt>
<totfact> 0.10764131E+03</totfact>
</mgrwt>
</event>
<event>
 6    1  0.9364335E-007  0.2550654E+04  0.7818608E-02  0.8385159E-01
          1   -1    0    0  501    0  0.00000000000E+00  0.00000000000E+00  0.89816044016E+03  0.89816044016E+03  0.00000000000E+00 0. -1.
         -1   -1    0    0    0  501 -0.00000000000E+00 -0.00000000000E+00 -0.18108781455E+04  0.18108781455E+04  0.00000000000E+00 0.  1.
         23    2    1    2    0    0 -0.74166169048E+03  0.12629516518E+03 -0.15486940304E+04  0.17239099554E+04  0.86022105846E+02 0.  0.
         11    1    3    3    0    0 -0.68074490417E+03  0.12505635736E+03 -0.13663276789E+04  0.15316344352E+04  0.00000000000E+00 0. -1.
        -11    1    3    3    0    0 -0.60916786313E+02  0.12388078173E+01 -0.18236635152E+03  0.19227552019E+03  0.00000000000E+00 0.  1.
         22    1    1    2    0    0  0.74166169048E+03 -0.12629516518E+03  0.63597632513E+03  0.98512863018E+03  0.00000000000E+00 0. -1.
<mgrwt>
<rscale>  0 0.25506541E+04</rscale>
<asrwt>0</asrwt>
<pdfrwt beam="1">  1        1 0.13817853E+00 0.25506541E+04</pdfrwt>
<pdfrwt beam="2">  1       -1 0.27859664E+00 0.25506541E+04</pdfrwt>
<totfact> 0.73403700E-01</totfact>
</mgrwt>
</event>
<event>
 6    1  0.9364335E-007  0.2646264E+04  0.7818608E-02  0.8352654E-01
         -1   -1    0    0    0  501 -0.00000000000E+00  0.00000000000E+00  0.12038665403E+04  0.12038665403E+04  0.00000000000E+00 0.  1.
          1   -1    0    0  501    0  0.00000000000E+00 -0.00000000000E+00 -0.14542124969E+04  0.14542124969E+04  0.00000000000E+00 0. -1.
         23    2    1    2    0    0  0.11456225305E+04 -0.44034064960E+03  0.36914019794E+03  0.12832648803E+04  0.64446855742E+02 0.  0.
         13    1    3    3    0    0  0.56314599094E+03 -0.22998240790E+03  0.15196652079E+03  0.62699213592E+03  0.00000000000E+00 0. -1.
        -13    1    3    3    0    0  0.58247653959E+03 -0.21035824170E+03  0.21717367714E+03  0.65627274442E+03  0.00000000000E+00 0.  1.
         22    1    1    2    0    0 -0.11456225305E+04  0.44034064960E+03 -0.61948615460E+03  0.13748141569E+04  0.00000000000E+00 0. -1.
<mgrwt>
<rscale>  0 0.26462636E+04</rscale>
<asrwt>0</asrwt>
<pdfrwt beam="1">  1        1 0.22372500E+00 0.26462636E+04</pdfrwt>
<pdfrwt beam="2">  1       -1 0.18521024E+00 0.26462636E+04</pdfrwt>
<totfact> 0.11796291E+00</totfact>
</mgrwt>
</event>
<event>
 6    1  0.9364335E-007  0.2021511E+04  0.7818608E-02  0.8596629E-01
         -1   -1    0    0    0  501 -0.00000000000E+00  0.00000000000E+00  0.12428381754E+04  0.12428381754E+04  0.00000000000E+00 0.  1.
          1   -1    0    0  501    0  0.00000000000E+00 -0.00000000000E+00 -0.82201112031E+03  0.82201112031E+03  0.00000000000E+00 0. -1.
         23    2    1    2    0    0 -0.45227709630E+03  0.66279211208E+03 -0.41367712209E+03  0.90715970977E+03  0.89230163090E+02 0.  0.
         11    1    3    3    0    0 -0.47888628918E+02  0.81272225390E+02 -0.82231826537E+02  0.12514219390E+03  0.00000000000E+00 0. -1.
        -11    1    3    3    0    0 -0.40438846738E+03  0.58151988669E+03 -0.33144529556E+03  0.78201751586E+03  0.00000000000E+00 0.  1.
         22    1    1    2    0    0  0.45227709630E+03 -0.66279211208E+03  0.83450417717E+03  0.11576895859E+04  0.00000000000E+00 0.  1.
<mgrwt>
<rscale>  0 0.20215111E+04</rscale>
<asrwt>0</asrwt>
<pdfrwt beam="1">  1        1 0.12646325E+00 0.20215111E+04</pdfrwt>
<pdfrwt beam="2">  1       -1 0.19120587E+00 0.20215111E+04</pdfrwt>
<totfact> 0.33948070E+00</totfact>
</mgrwt>
</event>
<event>
 6    1  0.9364335E-007  0.3744773E+04  0.7818608E-02  0.8058111E-01
          1   -1    0    0  501    0  0.00000000000E+00  0.00000000000E+00  0.11267291216E+04  0.11267291216E+04  0.00000000000E+00 0. -1.
         -1   -1    0    0    0  501 -0.00000000000E+00 -0.00000000000E+00 -0.31115124141E+04  0.31115124141E+04  0.00000000000E+00 0.  1.
         23    2    1    2    0    0  0.17945548554E+04  0.46250158673E+03 -0.69976066220E+03  0.19831100524E+04  0.93411180621E+02 0.  0.
         13    1    3    3    0    0  0.10672279102E+04  0.23544122363E+03 -0.43931026132E+03  0.11778800821E+04  0.00000000000E+00 0.  1.
        -13    1    3    3    0    0  0.72732694514E+03  0.22706036310E+03 -0.26045040089E+03  0.80522997022E+03  0.00000000000E+00 0. -1.
         22    1    1    2    0    0 -0.17945548554E+04 -0.46250158673E+03 -0.12850226303E+04  0.22551314833E+04  0.00000000000E+00 0. -1.
<mgrwt>
<rscale>  0 0.37447732E+04</rscale>
<asrwt>0</asrwt>
<pdfrwt beam="1">  1        1 0.17334294E+00 0.37447732E+04</pdfrwt>
<pdfrwt beam="2">  1       -1 0.47869422E+00 0.37447732E+04</pdfrwt>
<totfact> 0.19938331E-02</totfact>
</mgrwt>
</event>
<event>
 6    1  0.9364335E-007  0.1133147E+04  0.7818608E-02  0.9173474E-01
          2   -1    0    0  501    0  0.00000000000E+00  0.00000000000E+00  0.37902193860E+03  0.37902193860E+03  0.00000000000E+00 0. -1.
         -2   -1    0    0    0  501 -0.00000000000E+00 -0.00000000000E+00 -0.84693085539E+03  0.84693085539E+03  0.00000000000E+00 0.  1.
         23    2    1    2    0    0 -0.24882127134E+03 -0.20853348540E+03  0.26166912680E+03  0.42740263195E+03  0.93829836772E+02 0.  0.
         13    1    3    3    0    0 -0.30650174188E+02 -0.46674131278E+02  0.92951692073E+01  0.56606606318E+02  0.00000000000E+00 0. -1.
        -13    1    3    3    0    0 -0.21817109715E+03 -0.16185935413E+03  0.25237395759E+03  0.37079602563E+03  0.00000000000E+00 0.  1.
         22    1    1    2    0    0  0.24882127134E+03  0.20853348540E+03 -0.72957804359E+03  0.79855016204E+03  0.00000000000E+00 0.  1.
<mgrwt>
<rscale>  0 0.11331467E+04</rscale>
<asrwt>0</asrwt>
<pdfrwt beam="1">  1        2 0.58311068E-01 0.11331467E+04</pdfrwt>
<pdfrwt beam="2">  1       -2 0.13029705E+00 0.11331467E+04</pdfrwt>
<totfact> 0.36129578E+01</totfact>
</mgrwt>
</event>
<event>
 6    1  0.9364335E-007  0.2450922E+04  0.7818608E-02  0.8420681E-01
          1   -1    0    0  501    0  0.00000000000E+00  0.00000000000E+00  0.21084752152E+04  0.21084752152E+04  0.00000000000E+00 0. -1.
         -1   -1    0    0    0  501 -0.00000000000E+00 -0.00000000000E+00 -0.71224668493E+03  0.71224668493E+03  0.00000000000E+00 0.  1.
         23    2    1    2    0    0  0.40803102750E+03 -0.84476025815E+03 -0.20492097599E+03  0.96497704844E+03  0.95283180373E+02 0.  0.
         13    1    3    3    0    0  0.33446640065E+03 -0.70877571233E+03 -0.13490663383E+03  0.79525504299E+03  0.00000000000E+00 0. -1.
        -13    1    3    3    0    0  0.73564626846E+02 -0.13598454582E+03 -0.70014342155E+02  0.16972200545E+03  0.00000000000E+00 0.  1.
         22    1    1    2    0    0 -0.40803102750E+03  0.84476025815E+03  0.16011495062E+04  0.18557448516E+04  0.00000000000E+00 0. -1.
<mgrwt>
<rscale>  0 0.24509219E+04</rscale>
<asrwt>0</asrwt>
<pdfrwt beam="1">  1        1 0.32438080E+00 0.24509219E+04</pdfrwt>
<pdfrwt beam="2">  1       -1 0.10957641E+00 0.24509219E+04</pdfrwt>
<totfact> 0.17276610E+00</totfact>
</mgrwt>
</event>
<event>
 6    1  0.9364335E-007  0.1492144E+04  0.7818608E-02  0.8889694E-01
         -1   -1    0    0    0  501 -0.00000000000E+00  0.00000000000E+00  0.52621529559E+03  0.52621529559E+03  0.00000000000E+00 0.  1.
          1   -1    0    0  501    0  0.00000000000E+00 -0.00000000000E+00 -0.10577867953E+04  0.10577867953E+04  0.00000000000E+00 0. -1.
         23    2    1    2    0    0 -0.44788839261E+03 -0.58808880320E+03 -0.18314217257E+03  0.76677785683E+03  0.89189537855E+02 0.  0.
         11    1    3    3    0    0 -0.26389771192E+03 -0.37757569332E+03 -0.15381086631E+03  0.48565748130E+03  0.00000000000E+00 0. -1.
        -11    1    3    3    0    0 -0.18399068068E+03 -0.21051310988E+03 -0.29331306253E+02  0.28112037553E+03  0.00000000000E+00 0.  1.
         22    1    1    2    0    0  0.44788839261E+03  0.58808880320E+03 -0.34842932710E+03  0.81722423402E+03  0.00000000000E+00 0. -1.
<mgrwt>
<rscale>  0 0.14921442E+04</rscale>
<asrwt>0</asrwt>
<pdfrwt beam="1">  1        1 0.16273643E+00 0.14921442E+04</pdfrwt>
<pdfrwt beam="2">  1       -1 0.80956199E-01 0.14921442E+04</pdfrwt>
<totfact> 0.20098143E+01</totfact>
</mgrwt>
</event>
<event>
 6    1  0.9364335E-007  0.1873901E+04  0.7818608E-02  0.8667958E-01
         -2   -1    0    0    0  501 -0.00000000000E+00  0.00000000000E+00  0.62346290366E+03  0.62346290366E+03  0.00000000000E+00 0.  1.
          2   -1    0    0  501    0  0.00000000000E+00 -0.00000000000E+00 -0.14080647419E+04  0.14080647419E+04  0.00000000000E+00 0. -1.
         23    2    1    2    0    0 -0.52332198977E+03 -0.68270032771E+03  0.39286745137E+01  0.86459747972E+03  0.86992672245E+02 0.  0.
         13    1    3    3    0    0 -0.41729551959E+03 -0.49603281425E+03 -0.20462019555E+02  0.64853897163E+03  0.00000000000E+00 0.  1.
        -13    1    3    3    0    0 -0.10602647018E+03 -0.18666751346E+03  0.24390694068E+02  0.21605850808E+03  0.00000000000E+00 0. -1.
         22    1    1    2    0    0  0.52332198977E+03  0.68270032771E+03 -0.78853051279E+03  0.11669301659E+04  0.00000000000E+00 0.  1.
<mgrwt>
<rscale>  0 0.18739009E+04</rscale>
<asrwt>0</asrwt>
<pdfrwt beam="1">  1        2 0.21662534E+00 0.18739009E+04</pdfrwt>
<pdfrwt beam="2">  1       -2 0.95917371E-01 0.18739009E+04</pdfrwt>
<totfact> 0.12246357E+01</totfact>
</mgrwt>
</event>
<event>
 6    1  0.9364335E-007  0.4434729E+04  0.7818608E-02  0.7922164E-01
         -2   -1    0    0    0  501 -0.00000000000E+00  0.00000000000E+00  0.11629292977E+04  0.11629292977E+04  0.00000000000E+00 0.  1.
          2   -1    0    0  501    0  0.00000000000E+00 -0.00000000000E+00 -0.42278624622E+04  0.42278624622E+04  0.00000000000E+00 0. -1.
         23    2    1    2    0    0  0.13575616705E+03  0.20197805395E+04 -0.43625234108E+03  0.20729753039E+04  0.94696043756E+02 0.  0.
         13    1    3    3    0    0  0.12978791383E+03  0.19744135741E+04 -0.44019312643E+03  0.20270480638E+04  0.00000000000E+00 0.  1.
        -13    1    3    3    0    0  0.59682532149E+01  0.45366965363E+02  0.39407853534E+01  0.45927240085E+02  0.00000000000E+00 0. -1.
         22    1    1    2    0    0 -0.13575616705E+03 -0.20197805395E+04 -0.26286808234E+04  0.33178164561E+04  0.00000000000E+00 0. -1.
<mgrwt>
<rscale>  0 0.44347289E+04</rscale>
<asrwt>0</asrwt>
<pdfrwt beam="1">  1        2 0.65044037E+00 0.44347289E+04</pdfrwt>
<pdfrwt beam="2">  1       -2 0.17891220E+00 0.44347289E+04</pdfrwt>
<totfact> 0.30720649E-02</totfact>
</mgrwt>
</event>
<event>
 6    1  0.9364335E-007  0.2418561E+04  0.7818608E-02  0.8432587E-01
          2   -1    0    0  501    0  0.00000000000E+00  0.00000000000E+00  0.95707189438E+03  0.95707189438E+03  0.00000000000E+00 0. -1.
         -2   -1    0    0    0  501 -0.00000000000E+00 -0.00000000000E+00 -0.15279520165E+04  0.15279520165E+04  0.00000000000E+00 0.  1.
         23    2    1    2    0    0  0.26975051244E+03  0.10124419189E+04  0.33168576666E+03  0.11021178541E+04  0.82730516450E+02 0.  0.
         13    1    3    3    0    0  0.15629119451E+03  0.44037651040E+03  0.16488500665E+03  0.49552545224E+03  0.00000000000E+00 0.  1.
        -13    1    3    3    0    0  0.11345931793E+03  0.57206540854E+03  0.16680076001E+03  0.60659240188E+03  0.00000000000E+00 0. -1.
         22    1    1    2    0    0 -0.26975051244E+03 -0.10124419189E+04 -0.90256588875E+03  0.13829060567E+04  0.00000000000E+00 0.  1.
<mgrwt>
<rscale>  0 0.24185615E+04</rscale>
<asrwt>0</asrwt>
<pdfrwt beam="1">  1        2 0.14724183E+00 0.24185615E+04</pdfrwt>
<pdfrwt beam="2">  1       -2 0.23506954E+00 0.24185615E+04</pdfrwt>
<totfact> 0.19166441E+00</totfact>
</mgrwt>
</event>
<event>
 6    1  0.9364335E-007  0.1506017E+04  0.7818608E-02  0.8880461E-01
          1   -1    0    0  501    0  0.00000000000E+00  0.00000000000E+00  0.89666841273E+03  0.89666841273E+03  0.00000000000E+00 0. -1.
         -1   -1    0    0    0  501 -0.00000000000E+00 -0.00000000000E+00 -0.63236523518E+03  0.63236523518E+03  0.00000000000E+00 0.  1.
         23    2    1    2    0    0 -0.57638529653E+03  0.46015983078E+03 -0.33727755043E+01  0.74442068870E+03  0.10091435096E+03 0.  0.
         11    1    3    3    0    0 -0.11392753323E+03  0.14455882658E+03  0.10600852382E+02  0.18436137134E+03  0.00000000000E+00 0.  1.
        -11    1    3    3    0    0 -0.46245776330E+03  0.31560100420E+03 -0.13973627887E+02  0.56005931736E+03  0.00000000000E+00 0. -1.
         22    1    1    2    0    0  0.57638529653E+03 -0.46015983078E+03  0.26767595306E+03  0.78461295921E+03  0.00000000000E+00 0.  1.
<mgrwt>
<rscale>  0 0.15060172E+04</rscale>
<asrwt>0</asrwt>
<pdfrwt beam="1">  1        1 0.13794899E+00 0.15060172E+04</pdfrwt>
<pdfrwt beam="2">  1       -1 0.97286959E-01 0.15060172E+04</pdfrwt>
<totfact> 0.17972307E+01</totfact>
</mgrwt>
</event>
<event>
 6    1  0.9364335E-007  0.1011400E+04  0.7818608E-02  0.9296130E-01
          1   -1    0    0  501    0  0.00000000000E+00  0.00000000000E+00  0.17564727162E+04  0.17564727162E+04  0.00000000000E+00 0. -1.
         -1   -1    0    0    0  501 -0.00000000000E+00 -0.00000000000E+00 -0.14559421436E+03  0.14559421436E+03  0.00000000000E+00 0.  1.
         23    2    1    2    0    0  0.39634686441E+03  0.20621050757E+03  0.12408859672E+04  0.13219737605E+04  0.90570576264E+02 0.  0.
         11    1    3    3    0    0  0.27924522141E+03  0.13809652549E+03  0.73568913710E+03  0.79892868923E+03  0.00000000000E+00 0. -1.
        -11    1    3    3    0    0  0.11710164300E+03  0.68113982080E+02  0.50519683014E+03  0.52304507123E+03  0.00000000000E+00 0.  1.
         22    1    1    2    0    0 -0.39634686441E+03 -0.20621050757E+03  0.36999253464E+03  0.58009317015E+03  0.00000000000E+00 0.  1.
<mgrwt>
<rscale>  0 0.10113996E+04</rscale>
<asrwt>0</asrwt>
<pdfrwt beam="1">  1        1 0.27022656E+00 0.10113996E+04</pdfrwt>
<pdfrwt beam="2">  1       -1 0.22399111E-01 0.10113996E+04</pdfrwt>
<totfact> 0.73978941E+01</totfact>
</mgrwt>
</event>
<event>
 6    1  0.9364335E-007  0.2317797E+04  0.7818608E-02  0.8470937E-01
          1   -1    0    0  501    0  0.00000000000E+00  0.00000000000E+00  0.13909981378E+04  0.13909981378E+04  0.00000000000E+00 0. -1.
         -1   -1    0    0    0  501 -0.00000000000E+00 -0.00000000000E+00 -0.96552647616E+03  0.96552647616E+03  0.00000000000E+00 0.  1.
         23    2    1    2    0    0  0.12591182055E+03 -0.56295398192E+03 -0.80654967362E+03  0.99613954244E+03  0.94871701149E+02 0.  0.
         13    1    3    3    0    0  0.90499414594E+02 -0.34519559122E+03 -0.57153582004E+03  0.67379769503E+03  0.00000000000E+00 0.  1.
        -13    1    3    3    0    0  0.35412405952E+02 -0.21775839070E+03 -0.23501385358E+03  0.32234184741E+03  0.00000000000E+00 0. -1.
         22    1    1    2    0    0 -0.12591182055E+03  0.56295398192E+03  0.12320213353E+04  0.13603850716E+04  0.00000000000E+00 0. -1.
<mgrwt>
<rscale>  0 0.23177968E+04</rscale>
<asrwt>0</asrwt>
<pdfrwt beam="1">  1        1 0.21399971E+00 0.23177968E+04</pdfrwt>
<pdfrwt beam="2">  1       -1 0.14854253E+00 0.23177968E+04</pdfrwt>
<totfact> 0.25203229E+00</totfact>
</mgrwt>
</event>
<event>
 6    1  0.9364335E-007  0.1236762E+04  0.7818608E-02  0.9081274E-01
         -1   -1    0    0    0  501 -0.00000000000E+00  0.00000000000E+00  0.37408488780E+03  0.37408488780E+03  0.00000000000E+00 0.  1.
          1   -1    0    0  501    0  0.00000000000E+00 -0.00000000000E+00 -0.10222148572E+04  0.10222148572E+04  0.00000000000E+00 0. -1.
         23    2    1    2    0    0 -0.20189657664E+03 -0.58092510899E+03 -0.32077128241E+03  0.69959326458E+03  0.91106038812E+02 0.  0.
         11    1    3    3    0    0 -0.17924309300E+03 -0.55232667040E+03 -0.32018006630E+03  0.66310490277E+03  0.00000000000E+00 0.  1.
        -11    1    3    3    0    0 -0.22653483642E+02 -0.28598438594E+02 -0.59121611293E+00  0.36488361811E+02  0.00000000000E+00 0. -1.
         22    1    1    2    0    0  0.20189657664E+03  0.58092510899E+03 -0.32735868698E+03  0.69670648042E+03  0.00000000000E+00 0.  1.
<mgrwt>
<rscale>  0 0.12367621E+04</rscale>
<asrwt>0</asrwt>
<pdfrwt beam="1">  1        1 0.15726382E+00 0.12367621E+04</pdfrwt>
<pdfrwt beam="2">  1       -1 0.57551522E-01 0.12367621E+04</pdfrwt>
<totfact> 0.43884849E+01</totfact>
</mgrwt>
</event>
<event>
 6    1  0.9364335E-007  0.2150839E+04  0.7818608E-02  0.8539173E-01
         -1   -1    0    0    0  501 -0.00000000000E+00  0.00000000000E+00  0.10006149052E+04  0.10006149052E+04  0.00000000000E+00 0.  1.
          1   -1    0    0  501    0  0.00000000000E+00 -0.00000000000E+00 -0.11558168326E+04  0.11558168326E+04  0.00000000000E+00 0. -1.
         23    2    1    2    0    0 -0.20536095139E+03  0.34024384756E+01 -0.11342086823E+04  0.11561123272E+04  0.89340253867E+02 0.  0.
         13    1    3    3    0    0 -0.17872221444E+03  0.35149025884E+02 -0.89619537603E+03  0.91451803480E+03  0.00000000000E+00 0. -1.
        -13    1    3    3    0    0 -0.26638736949E+02 -0.31746587409E+02 -0.23801330630E+03  0.24159429235E+03  0.00000000000E+00 0.  1.
         22    1    1    2    0    0  0.20536095139E+03 -0.34024384756E+01  0.97900675495E+03  0.10003194106E+04  0.00000000000E+00 0.  1.
<mgrwt>
<rscale>  0 0.21508394E+04</rscale>
<asrwt>0</asrwt>
<pdfrwt beam="1">  1        1 0.17781797E+00 0.21508394E+04</pdfrwt>
<pdfrwt beam="2">  1       -1 0.15394075E+00 0.21508394E+04</pdfrwt>
<totfact> 0.34294095E+00</totfact>
</mgrwt>
</event>
<event>
 6    1  0.9364335E-007  0.6352789E+04  0.7818608E-02  0.7648135E-01
         -1   -1    0    0    0  501 -0.00000000000E+00  0.00000000000E+00  0.25108868110E+04  0.25108868110E+04  0.00000000000E+00 0.  1.
          1   -1    0    0  501    0  0.00000000000E+00 -0.00000000000E+00 -0.40182937474E+04  0.40182937474E+04  0.00000000000E+00 0. -1.
         23    2    1    2    0    0  0.88247536651E+03  0.23056432948E+04 -0.28071620283E+04  0.37391774984E+04  0.80845131704E+02 0.  0.
         11    1    3    3    0    0  0.19210991518E+03  0.54494714701E+03 -0.70388877241E+03  0.91067722958E+03  0.00000000000E+00 0. -1.
        -11    1    3    3    0    0  0.69036545134E+03  0.17606961478E+04 -0.21032732559E+04  0.28285002688E+04  0.00000000000E+00 0.  1.
         22    1    1    2    0    0 -0.88247536651E+03 -0.23056432948E+04  0.12997550920E+04  0.27900030600E+04  0.00000000000E+00 0.  1.
<mgrwt>
<rscale>  0 0.63527886E+04</rscale>
<asrwt>0</asrwt>
<pdfrwt beam="1">  1        1 0.61819903E+00 0.63527886E+04</pdfrwt>
<pdfrwt beam="2">  1       -1 0.38629028E+00 0.63527886E+04</pdfrwt>
<totfact> 0.53157547E-04</totfact>
</mgrwt>
</event>
<event>
 6    1  0.9364335E-007  0.4162556E+04  0.7818608E-02  0.7972533E-01
          3   -1    0    0  501    0  0.00000000000E+00  0.00000000000E+00  0.14151607022E+04  0.14151607022E+04  0.00000000000E+00 0. -1.
         -3   -1    0    0    0  501 -0.00000000000E+00 -0.00000000000E+00 -0.30609366157E+04  0.30609366157E+04  0.00000000000E+00 0.  1.
         23    2    1    2    0    0  0.18582414522E+04  0.13520323257E+03 -0.18186899111E+04  0.26049371271E+04  0.81995331002E+02 0.  0.
         11    1    3    3    0    0  0.71534022014E+03  0.67265400939E+02 -0.75315374820E+03  0.10409019325E+04  0.00000000000E+00 0. -1.
        -11    1    3    3    0    0  0.11429012321E+04  0.67937831634E+02 -0.10655361629E+04  0.15640351945E+04  0.00000000000E+00 0.  1.
         22    1    1    2    0    0 -0.18582414522E+04 -0.13520323257E+03  0.17291399761E+03  0.18711601908E+04  0.00000000000E+00 0. -1.
<mgrwt>
<rscale>  0 0.41625556E+04</rscale>
<asrwt>0</asrwt>
<pdfrwt beam="1">  1        3 0.21771703E+00 0.41625556E+04</pdfrwt>
<pdfrwt beam="2">  1       -3 0.47091332E+00 0.41625556E+04</pdfrwt>
<totfact> 0.99577675E-04</totfact>
</mgrwt>
</event>
<event>
 6    1  0.9364335E-007  0.1409839E+04  0.7818608E-02  0.8946728E-01
         -3   -1    0    0    0  501 -0.00000000000E+00  0.00000000000E+00  0.76751365578E+03  0.76751365578E+03  0.00000000000E+00 0.  1.
          3   -1    0    0  501    0  0.00000000000E+00 -0.00000000000E+00 -0.64742972116E+03  0.64742972116E+03  0.00000000000E+00 0. -1.
         23    2    1    2    0    0  0.64538219470E+03  0.13178986472E+03  0.30386805606E+03  0.73108421821E+03  0.90893305288E+02 0.  0.
         11    1    3    3    0    0  0.48041319527E+03  0.12028607727E+03  0.19065564823E+03  0.53067424544E+03  0.00000000000E+00 0. -1.
        -11    1    3    3    0    0  0.16496899943E+03  0.11503787455E+02  0.11321240783E+03  0.20040997277E+03  0.00000000000E+00 0.  1.
         22    1    1    2    0    0 -0.64538219470E+03 -0.13178986472E+03 -0.18378412145E+03  0.68385915873E+03  0.00000000000E+00 0. -1.
<mgrwt>
<rscale>  0 0.14098385E+04</rscale>
<asrwt>0</asrwt>
<pdfrwt beam="1">  1        3 0.99604573E-01 0.14098385E+04</pdfrwt>
<pdfrwt beam="2">  1       -3 0.11807902E+00 0.14098385E+04</pdfrwt>
<totfact> 0.13234671E+00</totfact>
</mgrwt>
</event>
<event>
 6    1  0.9364335E-007  0.2080988E+04  0.7818608E-02  0.8569665E-01
          2   -1    0    0  501    0  0.00000000000E+00  0.00000000000E+00  0.33305939768E+03  0.33305939768E+03  0.00000000000E+00 0. -1.
         -2   -1    0    0    0  501 -0.00000000000E+00 -0.00000000000E+00 -0.32505554163E+04  0.32505554163E+04  0.00000000000E+00 0.  1.
         23    2    1    2    0    0  0.58031274467E+03 -0.27714291797E+03 -0.57154019111E+02  0.65187003778E+03  0.89982696356E+02 0.  0.
         13    1    3    3    0    0  0.50751893526E+03 -0.21998425138E+03 -0.24365063524E+02  0.55368059098E+03  0.00000000000E+00 0.  1.
        -13    1    3    3    0    0  0.72793809411E+02 -0.57158666587E+02 -0.32788955587E+02  0.98189446800E+02  0.00000000000E+00 0. -1.
         22    1    1    2    0    0 -0.58031274467E+03  0.27714291797E+03 -0.28603419995E+04  0.29317447762E+04  0.00000000000E+00 0.  1.
<mgrwt>
<rscale>  0 0.20809883E+04</rscale>
<asrwt>0</asrwt>
<pdfrwt beam="1">  1        2 0.51239906E-01 0.20809883E+04</pdfrwt>
<pdfrwt beam="2">  1       -2 0.50008546E+00 0.20809883E+04</pdfrwt>
<totfact> 0.14801627E-01</totfact>
</mgrwt>
</event>
<event>
 6    1  0.9364335E-007  0.2221511E+04  0.7818608E-02  0.8509528E-01
         -2   -1    0    0    0  501 -0.00000000000E+00  0.00000000000E+00  0.53067497239E+03  0.53067497239E+03  0.00000000000E+00 0.  1.
          2   -1    0    0  501    0  0.00000000000E+00 -0.00000000000E+00 -0.23249224657E+04  0.23249224657E+04  0.00000000000E+00 0. -1.
         23    2    1    2    0    0  0.81072829614E+03  0.67511934386E+03 -0.45921844700E+03  0.11540190376E+04  0.88384718173E+02 0.  0.
         11    1    3    3    0    0  0.69385029266E+03  0.54881725690E+03 -0.35784756809E+03  0.95429738137E+03  0.00000000000E+00 0. -1.
        -11    1    3    3    0    0  0.11687800348E+03  0.12630208695E+03 -0.10137087891E+03  0.19972165621E+03  0.00000000000E+00 0.  1.
         22    1    1    2    0    0 -0.81072829614E+03 -0.67511934386E+03 -0.13350290463E+04  0.17015784005E+04  0.00000000000E+00 0. -1.
<mgrwt>
<rscale>  0 0.22215113E+04</rscale>
<asrwt>0</asrwt>
<pdfrwt beam="1">  1        2 0.35768038E+00 0.22215113E+04</pdfrwt>
<pdfrwt beam="2">  1       -2 0.81642304E-01 0.22215113E+04</pdfrwt>
<totfact> 0.52860126E+00</totfact>
</mgrwt>
</event>
<event>
 6    1  0.9364335E-007  0.2372129E+04  0.7818608E-02  0.8450012E-01
         -2   -1    0    0    0  501 -0.00000000000E+00  0.00000000000E+00  0.74496808446E+03  0.74496808446E+03  0.00000000000E+00 0.  1.
          2   -1    0    0  501    0  0.00000000000E+00 -0.00000000000E+00 -0.18883341912E+04  0.18883341912E+04  0.00000000000E+00 0. -1.
         23    2    1    2    0    0 -0.99191859989E+03 -0.14427520642E+03 -0.12726603059E+04  0.16226416829E+04  0.92649515763E+02 0.  0.
         11    1    3    3    0    0 -0.89449978380E+00 -0.52069691874E+01 -0.11650686367E+02  0.12792620951E+02  0.00000000000E+00 0. -1.
        -11    1    3    3    0    0 -0.99102410011E+03 -0.13906823724E+03 -0.12610096195E+04  0.16098490619E+04  0.00000000000E+00 0.  1.
         22    1    1    2    0    0  0.99191859989E+03  0.14427520642E+03  0.12929419909E+03  0.10106605928E+04  0.00000000000E+00 0.  1.
<mgrwt>
<rscale>  0 0.23721288E+04</rscale>
<asrwt>0</asrwt>
<pdfrwt beam="1">  1        2 0.29051295E+00 0.23721288E+04</pdfrwt>
<pdfrwt beam="2">  1       -2 0.11461048E+00 0.23721288E+04</pdfrwt>
<totfact> 0.41303231E+00</totfact>
</mgrwt>
</event>
<event>
 6    1  0.9364335E-007  0.3375279E+04  0.7818608E-02  0.8144000E-01
          1   -1    0    0  501    0  0.00000000000E+00  0.00000000000E+00  0.26624322113E+04  0.26624322113E+04  0.00000000000E+00 0. -1.
         -1   -1    0    0    0  501 -0.00000000000E+00 -0.00000000000E+00 -0.10697465543E+04  0.10697465543E+04  0.00000000000E+00 0.  1.
         23    2    1    2    0    0  0.13008875488E+04  0.31973422429E+03 -0.33633399519E+03  0.13836355560E+04  0.82391788272E+02 0.  0.
         11    1    3    3    0    0  0.63455112901E+03  0.12756209335E+03 -0.19389351955E+03  0.67566405847E+03  0.00000000000E+00 0. -1.
        -11    1    3    3    0    0  0.66633641979E+03  0.19217213093E+03 -0.14244047564E+03  0.70797149755E+03  0.00000000000E+00 0.  1.
         22    1    1    2    0    0 -0.13008875488E+04 -0.31973422429E+03  0.19290196522E+04  0.23485432096E+04  0.00000000000E+00 0. -1.
<mgrwt>
<rscale>  0 0.33752794E+04</rscale>
<asrwt>0</asrwt>
<pdfrwt beam="1">  1        1 0.40960495E+00 0.33752794E+04</pdfrwt>
<pdfrwt beam="2">  1       -1 0.16457639E+00 0.33752794E+04</pdfrwt>
<totfact> 0.23204394E-01</totfact>
</mgrwt>
</event>
<event>
 6    1  0.9364335E-007  0.2724604E+04  0.7818608E-02  0.8327066E-01
         -1   -1    0    0    0  501 -0.00000000000E+00  0.00000000000E+00  0.11041293914E+04  0.11041293914E+04  0.00000000000E+00 0.  1.
          1   -1    0    0  501    0  0.00000000000E+00 -0.00000000000E+00 -0.16808414902E+04  0.16808414902E+04  0.00000000000E+00 0. -1.
         23    2    1    2    0    0 -0.40254154926E+03 -0.39134041590E+03  0.97805616361E+03  0.11319459665E+04  0.97574544927E+02 0.  0.
         11    1    3    3    0    0 -0.29892405661E+03 -0.22616685217E+03  0.64127739283E+03  0.74279454171E+03  0.00000000000E+00 0. -1.
        -11    1    3    3    0    0 -0.10361749266E+03 -0.16517356373E+03  0.33677877078E+03  0.38915142475E+03  0.00000000000E+00 0.  1.
         22    1    1    2    0    0  0.40254154926E+03  0.39134041590E+03 -0.15547682625E+04  0.16530249151E+04  0.00000000000E+00 0. -1.
<mgrwt>
<rscale>  0 0.27246038E+04</rscale>
<asrwt>0</asrwt>
<pdfrwt beam="1">  1        1 0.25859100E+00 0.27246038E+04</pdfrwt>
<pdfrwt beam="2">  1       -1 0.16986606E+00 0.27246038E+04</pdfrwt>
<totfact> 0.10555196E+00</totfact>
</mgrwt>
</event>
<event>
 6    1  0.9364335E-007  0.1891440E+04  0.7818608E-02  0.8659129E-01
          2   -1    0    0  501    0  0.00000000000E+00  0.00000000000E+00  0.70935982496E+03  0.70935982496E+03  0.00000000000E+00 0. -1.
         -2   -1    0    0    0  501 -0.00000000000E+00 -0.00000000000E+00 -0.12608362307E+04  0.12608362307E+04  0.00000000000E+00 0.  1.
         23    2    1    2    0    0 -0.30646415705E+03 -0.65290953467E+03 -0.90995306248E+03  0.11647665718E+04  0.91953525740E+02 0.  0.
         13    1    3    3    0    0 -0.19917138521E+03 -0.49313837880E+03 -0.62137384058E+03  0.81789984172E+03  0.00000000000E+00 0. -1.
        -13    1    3    3    0    0 -0.10729277185E+03 -0.15977115587E+03 -0.28857922190E+03  0.34686673010E+03  0.00000000000E+00 0.  1.
         22    1    1    2    0    0  0.30646415705E+03  0.65290953467E+03  0.35847665673E+03  0.80542948385E+03  0.00000000000E+00 0. -1.
<mgrwt>
<rscale>  0 0.18914403E+04</rscale>
<asrwt>0</asrwt>
<pdfrwt beam="1">  1        2 0.10913228E+00 0.18914403E+04</pdfrwt>
<pdfrwt beam="2">  1       -2 0.19397480E+00 0.18914403E+04</pdfrwt>
<totfact> 0.55009066E+00</totfact>
</mgrwt>
</event>
<event>
 6    1  0.9364335E-007  0.3065016E+04  0.7818608E-02  0.8225405E-01
         -2   -1    0    0    0  501 -0.00000000000E+00  0.00000000000E+00  0.67565749811E+03  0.67565749811E+03  0.00000000000E+00 0.  1.
          2   -1    0    0  501    0  0.00000000000E+00 -0.00000000000E+00 -0.34759939247E+04  0.34759939247E+04  0.00000000000E+00 0. -1.
         23    2    1    2    0    0  0.89919530202E+03  0.76322167258E+03 -0.27239778952E+04  0.29697503534E+04  0.91115722225E+02 0.  0.
         11    1    3    3    0    0  0.25906194459E+03  0.16792117614E+03 -0.72450135858E+03  0.78753592370E+03  0.00000000000E+00 0.  1.
        -11    1    3    3    0    0  0.64013335743E+03  0.59530049644E+03 -0.19994765367E+04  0.21822144297E+04  0.00000000000E+00 0. -1.
         22    1    1    2    0    0 -0.89919530202E+03 -0.76322167258E+03 -0.76358531355E+02  0.11819010695E+04  0.00000000000E+00 0.  1.
<mgrwt>
<rscale>  0 0.30650164E+04</rscale>
<asrwt>0</asrwt>
<pdfrwt beam="1">  1        2 0.53476828E+00 0.30650164E+04</pdfrwt>
<pdfrwt beam="2">  1       -2 0.10394731E+00 0.30650164E+04</pdfrwt>
<totfact> 0.54129517E-01</totfact>
</mgrwt>
</event>
<event>
 6    1  0.9364335E-007  0.3122497E+04  0.7818608E-02  0.8209591E-01
          1   -1    0    0  501    0  0.00000000000E+00  0.00000000000E+00  0.13652649763E+04  0.13652649763E+04  0.00000000000E+00 0. -1.
         -1   -1    0    0    0  501 -0.00000000000E+00 -0.00000000000E+00 -0.17853652586E+04  0.17853652586E+04  0.00000000000E+00 0.  1.
         23    2    1    2    0    0 -0.10994921919E+04 -0.10858224433E+04  0.46957252427E+01  0.15480245109E+04  0.92002055749E+02 0.  0.
         13    1    3    3    0    0 -0.36708665654E+03 -0.41337777626E+03 -0.23506901595E+02  0.55334110071E+03  0.00000000000E+00 0. -1.
        -13    1    3    3    0    0 -0.73240553531E+03 -0.67244466707E+03  0.28202626837E+02  0.99468341023E+03  0.00000000000E+00 0.  1.
         22    1    1    2    0    0  0.10994921919E+04  0.10858224433E+04 -0.42479600752E+03  0.16026057239E+04  0.00000000000E+00 0.  1.
<mgrwt>
<rscale>  0 0.31224969E+04</rscale>
<asrwt>0</asrwt>
<pdfrwt beam="1">  1        1 0.21004077E+00 0.31224969E+04</pdfrwt>
<pdfrwt beam="2">  1       -1 0.27467158E+00 0.31224969E+04</pdfrwt>
<totfact> 0.32987080E-01</totfact>
</mgrwt>
</event>
<event>
 6    1  0.9364335E-007  0.2429417E+04  0.7818608E-02  0.8428572E-01
         -2   -1    0    0    0  501 -0.00000000000E+00  0.00000000000E+00  0.88257583438E+03  0.88257583438E+03  0.00000000000E+00 0.  1.
          2   -1    0    0  501    0  0.00000000000E+00 -0.00000000000E+00 -0.16718300721E+04  0.16718300721E+04  0.00000000000E+00 0. -1.
         23    2    1    2    0    0  0.24228434575E+02  0.11304899249E+04  0.66154085062E+02  0.11365491133E+04  0.93664490084E+02 0.  0.
         11    1    3    3    0    0  0.22278783980E+02  0.65896006104E+03  0.84071663106E+02  0.66467492115E+03  0.00000000000E+00 0.  1.
        -11    1    3    3    0    0  0.19496505959E+01  0.47152986384E+03 -0.17917578045E+02  0.47187419216E+03  0.00000000000E+00 0. -1.
         22    1    1    2    0    0 -0.24228434575E+02 -0.11304899249E+04 -0.85540832281E+03  0.14178567932E+04  0.00000000000E+00 0. -1.
<mgrwt>
<rscale>  0 0.24294171E+04</rscale>
<asrwt>0</asrwt>
<pdfrwt beam="1">  1        2 0.25720462E+00 0.24294171E+04</pdfrwt>
<pdfrwt beam="2">  1       -2 0.13578090E+00 0.24294171E+04</pdfrwt>
<totfact> 0.35462185E+00</totfact>
</mgrwt>
</event>
<event>
 6    1  0.9364335E-007  0.3369395E+04  0.7818608E-02  0.8145459E-01
         -2   -1    0    0    0  501 -0.00000000000E+00  0.00000000000E+00  0.19600313297E+04  0.19600313297E+04  0.00000000000E+00 0.  1.
          2   -1    0    0  501    0  0.00000000000E+00 -0.00000000000E+00 -0.14480408586E+04  0.14480408586E+04  0.00000000000E+00 0. -1.
         23    2    1    2    0    0  0.11748840546E+04 -0.11862210544E+04  0.47401846003E+03  0.17380677556E+04  0.93343938198E+02 0.  0.
         13    1    3    3    0    0  0.14990243745E+03 -0.13762107339E+03  0.88433432699E+02  0.22188008611E+03  0.00000000000E+00 0.  1.
        -13    1    3    3    0    0  0.10249816172E+04 -0.10485999810E+04  0.38558502733E+03  0.15161876694E+04  0.00000000000E+00 0. -1.
         22    1    1    2    0    0 -0.11748840546E+04  0.11862210544E+04  0.37972011104E+02  0.16700044327E+04  0.00000000000E+00 0.  1.
<mgrwt>
<rscale>  0 0.33693949E+04</rscale>
<asrwt>0</asrwt>
<pdfrwt beam="1">  1        2 0.22277552E+00 0.33693949E+04</pdfrwt>
<pdfrwt beam="2">  1       -2 0.30154328E+00 0.33693949E+04</pdfrwt>
<totfact> 0.35083348E-01</totfact>
</mgrwt>
</event>
<event>
 6    1  0.9364335E-007  0.1295218E+04  0.7818608E-02  0.9033366E-01
         -1   -1    0    0    0  501 -0.00000000000E+00  0.00000000000E+00  0.13226003031E+04  0.13226003031E+04  0.00000000000E+00 0.  1.
          1   -1    0    0  501    0  0.00000000000E+00 -0.00000000000E+00 -0.31710058761E+03  0.31710058761E+03  0.00000000000E+00 0. -1.
         23    2    1    2    0    0  0.12419387745E+03 -0.23186464891E+03 -0.23948487655E+03  0.36723400744E+03  0.91227602813E+02 0.  0.
         13    1    3    3    0    0  0.76084154834E+02 -0.20585933273E+03 -0.21527969618E+03  0.30742838366E+03  0.00000000000E+00 0. -1.
        -13    1    3    3    0    0  0.48109722614E+02 -0.26005316179E+02 -0.24205180367E+02  0.59805623784E+02  0.00000000000E+00 0.  1.
         22    1    1    2    0    0 -0.12419387745E+03  0.23186464891E+03  0.12449845920E+04  0.12724668833E+04  0.00000000000E+00 0.  1.
<mgrwt>
<rscale>  0 0.12952179E+04</rscale>
<asrwt>0</asrwt>
<pdfrwt beam="1">  1        1 0.48784706E-01 0.12952179E+04</pdfrwt>
<pdfrwt beam="2">  1       -1 0.20347697E+00 0.12952179E+04</pdfrwt>
<totfact> 0.11416537E+01</totfact>
</mgrwt>
</event>
<event>
 6    1  0.9364335E-007  0.3097382E+04  0.7818608E-02  0.8216457E-01
          2   -1    0    0  501    0  0.00000000000E+00  0.00000000000E+00  0.24311742599E+04  0.24311742599E+04  0.00000000000E+00 0. -1.
         -2   -1    0    0    0  501 -0.00000000000E+00 -0.00000000000E+00 -0.98653718173E+03  0.98653718173E+03  0.00000000000E+00 0.  1.
         23    2    1    2    0    0 -0.14690535176E+04 -0.17537847144E+03  0.22349324531E+03  0.14993610810E+04  0.96221487871E+02 0.  0.
         11    1    3    3    0    0 -0.11762868382E+04 -0.10145341388E+03  0.17872011136E+03  0.11941040152E+04  0.00000000000E+00 0. -1.
        -11    1    3    3    0    0 -0.29276667937E+03 -0.73925057567E+02  0.44773133945E+02  0.30525706578E+03  0.00000000000E+00 0.  1.
         22    1    1    2    0    0  0.14690535176E+04  0.17537847144E+03  0.12211438329E+04  0.19183503607E+04  0.00000000000E+00 0. -1.
<mgrwt>
<rscale>  0 0.30973820E+04</rscale>
<asrwt>0</asrwt>
<pdfrwt beam="1">  1        2 0.37402681E+00 0.30973820E+04</pdfrwt>
<pdfrwt beam="2">  1       -2 0.15177495E+00 0.30973820E+04</pdfrwt>
<totfact> 0.94061375E-01</totfact>
</mgrwt>
</event>
<event>
 6    1  0.9364335E-007  0.3741979E+04  0.7818608E-02  0.8058722E-01
          1   -1    0    0  501    0  0.00000000000E+00  0.00000000000E+00  0.28023505040E+04  0.28023505040E+04  0.00000000000E+00 0. -1.
         -1   -1    0    0    0  501 -0.00000000000E+00 -0.00000000000E+00 -0.12491661010E+04  0.12491661010E+04  0.00000000000E+00 0.  1.
         23    2    1    2    0    0  0.74155425675E+03  0.16691618034E+04  0.12108455214E+04  0.21932378984E+04  0.90231705807E+02 0.  0.
         11    1    3    3    0    0  0.50625577002E+03  0.12292369076E+04  0.90067901688E+03  0.16057836003E+04  0.00000000000E+00 0. -1.
        -11    1    3    3    0    0  0.23529848672E+03  0.43992489582E+03  0.31016650452E+03  0.58745429809E+03  0.00000000000E+00 0.  1.
         22    1    1    2    0    0 -0.74155425675E+03 -0.16691618034E+04  0.34233888156E+03  0.18582787066E+04  0.00000000000E+00 0. -1.
<mgrwt>
<rscale>  0 0.37419788E+04</rscale>
<asrwt>0</asrwt>
<pdfrwt beam="1">  1        1 0.43113085E+00 0.37419788E+04</pdfrwt>
<pdfrwt beam="2">  1       -1 0.19217940E+00 0.37419788E+04</pdfrwt>
<totfact> 0.11318752E-01</totfact>
</mgrwt>
</event>
<event>
 6    1  0.9364335E-007  0.2051214E+04  0.7818608E-02  0.8583044E-01
         -2   -1    0    0    0  501 -0.00000000000E+00  0.00000000000E+00  0.15378997325E+04  0.15378997325E+04  0.00000000000E+00 0.  1.
          2   -1    0    0  501    0  0.00000000000E+00 -0.00000000000E+00 -0.68396517938E+03  0.68396517938E+03  0.00000000000E+00 0. -1.
         23    2    1    2    0    0  0.75524804798E+03 -0.68498659326E+03  0.52548874322E+03  0.11506586306E+04  0.90942938710E+02 0.  0.
         13    1    3    3    0    0  0.27176038877E+03 -0.19727494392E+03  0.14775885558E+03  0.36688389417E+03  0.00000000000E+00 0. -1.
        -13    1    3    3    0    0  0.48348765921E+03 -0.48771164934E+03  0.37772988764E+03  0.78377473647E+03  0.00000000000E+00 0.  1.
         22    1    1    2    0    0 -0.75524804798E+03  0.68498659326E+03  0.32844580992E+03  0.10712062812E+04  0.00000000000E+00 0. -1.
<mgrwt>
<rscale>  0 0.20512141E+04</rscale>
<asrwt>0</asrwt>
<pdfrwt beam="1">  1        2 0.10522541E+00 0.20512141E+04</pdfrwt>
<pdfrwt beam="2">  1       -2 0.23659996E+00 0.20512141E+04</pdfrwt>
<totfact> 0.30344150E+00</totfact>
</mgrwt>
</event>
<event>
 6    1  0.9364335E-007  0.1659539E+04  0.7818608E-02  0.8784783E-01
          2   -1    0    0  501    0  0.00000000000E+00  0.00000000000E+00  0.22574025217E+04  0.22574025217E+04  0.00000000000E+00 0. -1.
         -2   -1    0    0    0  501 -0.00000000000E+00 -0.00000000000E+00 -0.30500421599E+03  0.30500421599E+03  0.00000000000E+00 0.  1.
         23    2    1    2    0    0 -0.15793051471E+03  0.30729732632E+03  0.21394151042E+04  0.21695340139E+04  0.10201546626E+03 0.  0.
         13    1    3    3    0    0 -0.21530781207E+02  0.13569784007E+03  0.67924887259E+03  0.69300541791E+03  0.00000000000E+00 0. -1.
        -13    1    3    3    0    0 -0.13639973350E+03  0.17159948625E+03  0.14601662316E+04  0.14765285960E+04  0.00000000000E+00 0.  1.
         22    1    1    2    0    0  0.15793051471E+03 -0.30729732632E+03 -0.18701679841E+03  0.39287272382E+03  0.00000000000E+00 0.  1.
<mgrwt>
<rscale>  0 0.16595388E+04</rscale>
<asrwt>0</asrwt>
<pdfrwt beam="1">  1        2 0.34729268E+00 0.16595388E+04</pdfrwt>
<pdfrwt beam="2">  1       -2 0.46923727E-01 0.16595388E+04</pdfrwt>
<totfact> 0.19711227E+01</totfact>
</mgrwt>
</event>
<event>
 6    1  0.9364335E-007  0.2067521E+04  0.7818608E-02  0.8575687E-01
         -2   -1    0    0    0  501 -0.00000000000E+00  0.00000000000E+00  0.15784133668E+04  0.15784133668E+04  0.00000000000E+00 0.  1.
          2   -1    0    0  501    0  0.00000000000E+00 -0.00000000000E+00 -0.67704720923E+03  0.67704720923E+03  0.00000000000E+00 0. -1.
         23    2    1    2    0    0 -0.13341782406E+03  0.25913990662E+03 -0.62960595134E+03  0.69699036289E+03  0.66619103996E+02 0.  0.
         11    1    3    3    0    0 -0.49173745307E+02  0.48846724381E+02 -0.10818778569E+03  0.12848601746E+03  0.00000000000E+00 0. -1.
        -11    1    3    3    0    0 -0.84244078753E+02  0.21029318224E+03 -0.52141816565E+03  0.56850434543E+03  0.00000000000E+00 0.  1.
         22    1    1    2    0    0  0.13341782406E+03 -0.25913990662E+03  0.15309721090E+04  0.15584702132E+04  0.00000000000E+00 0.  1.
<mgrwt>
<rscale>  0 0.20675206E+04</rscale>
<asrwt>0</asrwt>
<pdfrwt beam="1">  1        2 0.10416111E+00 0.20675206E+04</pdfrwt>
<pdfrwt beam="2">  1       -2 0.24283282E+00 0.20675206E+04</pdfrwt>
<totfact> 0.28083534E+00</totfact>
</mgrwt>
</event>
<event>
 6    1  0.9383921E-007  0.2965188E+04  0.7818608E-02  0.8253742E-01
          1   -1    0    0  501    0  0.00000000000E+00  0.00000000000E+00  0.18364845301E+04  0.18364845301E+04  0.00000000000E+00 0. -1.
         -1   -1    0    0    0  501 -0.00000000000E+00 -0.00000000000E+00 -0.11968981479E+04  0.11968981479E+04  0.00000000000E+00 0.  1.
         23    2    1    2    0    0  0.56908087225E+03  0.88460722179E+03  0.13869339303E+04  0.17430682459E+04  0.91204203299E+02 0.  0.
         11    1    3    3    0    0  0.16526189041E+03  0.33595617357E+03  0.50604689136E+03  0.62949304940E+03  0.00000000000E+00 0. -1.
        -11    1    3    3    0    0  0.40381898183E+03  0.54865104822E+03  0.88088703897E+03  0.11135751965E+04  0.00000000000E+00 0.  1.
         22    1    1    2    0    0 -0.56908087225E+03 -0.88460722179E+03 -0.74734754815E+03  0.12903144321E+04  0.00000000000E+00 0.  1.
<mgrwt>
<rscale>  0 0.29651880E+04</rscale>
<asrwt>0</asrwt>
<pdfrwt beam="1">  1        1 0.28253608E+00 0.29651880E+04</pdfrwt>
<pdfrwt beam="2">  1       -1 0.18413818E+00 0.29651880E+04</pdfrwt>
<totfact> 0.63852274E-01</totfact>
</mgrwt>
</event>
<event>
 6    1  0.9364335E-007  0.8162944E+03  0.7818608E-02  0.9536727E-01
          1   -1    0    0  501    0  0.00000000000E+00  0.00000000000E+00  0.16254766411E+04  0.16254766411E+04  0.00000000000E+00 0. -1.
         -1   -1    0    0    0  501 -0.00000000000E+00 -0.00000000000E+00 -0.10248326304E+03  0.10248326304E+03  0.00000000000E+00 0.  1.
         23    2    1    2    0    0 -0.23145892669E+03  0.30445586488E+03  0.50419761940E+03  0.63974512466E+03  0.93765541176E+02 0.  0.
         13    1    3    3    0    0 -0.12685315749E+03  0.21505302783E+03  0.26722088054E+03  0.36571372320E+03  0.00000000000E+00 0.  1.
        -13    1    3    3    0    0 -0.10460576920E+03  0.89402837054E+02  0.23697673886E+03  0.27403140145E+03  0.00000000000E+00 0. -1.
         22    1    1    2    0    0  0.23145892669E+03 -0.30445586488E+03  0.10187957587E+04  0.10882147795E+04  0.00000000000E+00 0. -1.
<mgrwt>
<rscale>  0 0.81629443E+03</rscale>
<asrwt>0</asrwt>
<pdfrwt beam="1">  1        1 0.25007331E+00 0.81629443E+03</pdfrwt>
<pdfrwt beam="2">  1       -1 0.15766657E-01 0.81629443E+03</pdfrwt>
<totfact> 0.16516390E+02</totfact>
</mgrwt>
</event>
<event>
 6    1  0.9364335E-007  0.3137078E+04  0.7818608E-02  0.8205635E-01
         -2   -1    0    0    0  501 -0.00000000000E+00  0.00000000000E+00  0.16595943005E+04  0.16595943005E+04  0.00000000000E+00 0.  1.
          2   -1    0    0  501    0  0.00000000000E+00 -0.00000000000E+00 -0.14824796729E+04  0.14824796729E+04  0.00000000000E+00 0. -1.
         23    2    1    2    0    0  0.39748101815E+03  0.11726366524E+04  0.10509267101E+04  0.16266151539E+04  0.91444138896E+02 0.  0.
         13    1    3    3    0    0  0.32823469388E+03  0.85096717295E+03  0.79100583905E+03  0.12073000377E+04  0.00000000000E+00 0. -1.
        -13    1    3    3    0    0  0.69246324277E+02  0.32166947942E+03  0.25992087105E+03  0.41931511614E+03  0.00000000000E+00 0.  1.
         22    1    1    2    0    0 -0.39748101815E+03 -0.11726366524E+04 -0.87381208252E+03  0.15154588196E+04  0.00000000000E+00 0. -1.
<mgrwt>
<rscale>  0 0.31370781E+04</rscale>
<asrwt>0</asrwt>
<pdfrwt beam="1">  1        2 0.22807380E+00 0.31370781E+04</pdfrwt>
<pdfrwt beam="2">  1       -2 0.25532220E+00 0.31370781E+04</pdfrwt>
<totfact> 0.65516320E-01</totfact>
</mgrwt>
</event>
<event>
 6    1  0.9364335E-007  0.3685421E+03  0.7818608E-02  0.1055252E+00
          2   -1    0    0  501    0  0.00000000000E+00  0.00000000000E+00  0.44128980892E+03  0.44128980892E+03  0.00000000000E+00 0. -1.
         -2   -1    0    0    0  501 -0.00000000000E+00 -0.00000000000E+00 -0.76946745079E+02  0.76946745079E+02  0.00000000000E+00 0.  1.
         23    2    1    2    0    0  0.12724982136E+03  0.24873810201E+02  0.33127358710E+02  0.16254698879E+03  0.92265259982E+02 0.  0.
         13    1    3    3    0    0  0.13926996837E+03  0.12604760306E+02  0.37584914344E+02  0.14480203679E+03  0.00000000000E+00 0.  1.
        -13    1    3    3    0    0 -0.12020147006E+02  0.12269049895E+02 -0.44575556340E+01  0.17744952004E+02  0.00000000000E+00 0. -1.
         22    1    1    2    0    0 -0.12724982136E+03 -0.24873810201E+02  0.33121570514E+03  0.35568956521E+03  0.00000000000E+00 0. -1.
<mgrwt>
<rscale>  0 0.36854207E+03</rscale>
<asrwt>0</asrwt>
<pdfrwt beam="1">  1        2 0.67890738E-01 0.36854207E+03</pdfrwt>
<pdfrwt beam="2">  1       -2 0.11837961E-01 0.36854207E+03</pdfrwt>
<totfact> 0.36367870E+03</totfact>
</mgrwt>
</event>
<event>
 6    1  0.9364335E-007  0.2856928E+04  0.7818608E-02  0.8285809E-01
         -2   -1    0    0    0  501 -0.00000000000E+00  0.00000000000E+00  0.10534773097E+04  0.10534773097E+04  0.00000000000E+00 0.  1.
          2   -1    0    0  501    0  0.00000000000E+00 -0.00000000000E+00 -0.19369271245E+04  0.19369271245E+04  0.00000000000E+00 0. -1.
         23    2    1    2    0    0  0.74232278599E+03  0.46886742502E+03  0.73536928201E+03  0.11488140756E+04  0.90144431212E+02 0.  0.
         13    1    3    3    0    0  0.53123133665E+03  0.36029931209E+03  0.57999214780E+03  0.86510879018E+03  0.00000000000E+00 0. -1.
        -13    1    3    3    0    0  0.21109144934E+03  0.10856811293E+03  0.15537713421E+03  0.28370528540E+03  0.00000000000E+00 0.  1.
         22    1    1    2    0    0 -0.74232278599E+03 -0.46886742502E+03 -0.16188190968E+04  0.18415903587E+04  0.00000000000E+00 0. -1.
<mgrwt>
<rscale>  0 0.28569276E+04</rscale>
<asrwt>0</asrwt>
<pdfrwt beam="1">  1        2 0.29798879E+00 0.28569276E+04</pdfrwt>
<pdfrwt beam="2">  1       -2 0.16207343E+00 0.28569276E+04</pdfrwt>
<totfact> 0.15257566E+00</totfact>
</mgrwt>
</event>
<event>
 6    1  0.9364335E-007  0.1697778E+04  0.7818608E-02  0.8762633E-01
          2   -1    0    0  501    0  0.00000000000E+00  0.00000000000E+00  0.28860871887E+04  0.28860871887E+04  0.00000000000E+00 0. -1.
         -2   -1    0    0    0  501 -0.00000000000E+00 -0.00000000000E+00 -0.24968482529E+03  0.24968482529E+03  0.00000000000E+00 0.  1.
         23    2    1    2    0    0  0.72757937909E+03  0.32945640689E+03  0.80307718129E+03  0.11360234047E+04  0.87766394728E+02 0.  0.
         13    1    3    3    0    0  0.50974302480E+03  0.24410395357E+03  0.62002781915E+03  0.83896316248E+03  0.00000000000E+00 0.  1.
        -13    1    3    3    0    0  0.21783635429E+03  0.85352453313E+02  0.18304936213E+03  0.29706024223E+03  0.00000000000E+00 0. -1.
         22    1    1    2    0    0 -0.72757937909E+03 -0.32945640689E+03  0.18333251821E+04  0.19997486092E+04  0.00000000000E+00 0. -1.
<mgrwt>
<rscale>  0 0.16977776E+04</rscale>
<asrwt>0</asrwt>
<pdfrwt beam="1">  1        2 0.44401339E+00 0.16977776E+04</pdfrwt>
<pdfrwt beam="2">  1       -2 0.38413052E-01 0.16977776E+04</pdfrwt>
<totfact> 0.12532377E+01</totfact>
</mgrwt>
</event>
<event>
 6    1  0.9364335E-007  0.2356700E+04  0.7818608E-02  0.8455895E-01
          2   -1    0    0  501    0  0.00000000000E+00  0.00000000000E+00  0.11857113947E+04  0.11857113947E+04  0.00000000000E+00 0. -1.
         -2   -1    0    0    0  501 -0.00000000000E+00 -0.00000000000E+00 -0.11710341206E+04  0.11710341206E+04  0.00000000000E+00 0.  1.
         23    2    1    2    0    0 -0.61007067591E+03  0.97247359195E+03 -0.25074398447E+03  0.11784672964E+04  0.89562862474E+02 0.  0.
         13    1    3    3    0    0 -0.55640596777E+03  0.87697386129E+03 -0.25275435094E+03  0.10689038854E+04  0.00000000000E+00 0.  1.
        -13    1    3    3    0    0 -0.53664708144E+02  0.95499730653E+02  0.20103664617E+01  0.10956341099E+03  0.00000000000E+00 0. -1.
         22    1    1    2    0    0  0.61007067591E+03 -0.97247359195E+03  0.26542125848E+03  0.11782782189E+04  0.00000000000E+00 0. -1.
<mgrwt>
<rscale>  0 0.23566998E+04</rscale>
<asrwt>0</asrwt>
<pdfrwt beam="1">  1        2 0.18241714E+00 0.23566998E+04</pdfrwt>
<pdfrwt beam="2">  1       -2 0.18015909E+00 0.23566998E+04</pdfrwt>
<totfact> 0.31531118E+00</totfact>
</mgrwt>
</event>
<event>
 6    1  0.9364335E-007  0.2291283E+04  0.7818608E-02  0.8481366E-01
          4   -1    0    0  501    0  0.00000000000E+00  0.00000000000E+00  0.17441636099E+04  0.17441636099E+04  0.00000000000E+00 0. -1.
         -4   -1    0    0    0  501 -0.00000000000E+00 -0.00000000000E+00 -0.75250665393E+03  0.75250665393E+03  0.00000000000E+00 0.  1.
         23    2    1    2    0    0 -0.13387078729E+03  0.98537739031E+02  0.17297282522E+04  0.17401120624E+04  0.91646546728E+02 0.  0.
         13    1    3    3    0    0 -0.69158142311E+02  0.12662041601E+02  0.40768244069E+03  0.41370055401E+03  0.00000000000E+00 0. -1.
        -13    1    3    3    0    0 -0.64712644984E+02  0.85875697429E+02  0.13220458115E+04  0.13264115084E+04  0.00000000000E+00 0.  1.
         22    1    1    2    0    0  0.13387078729E+03 -0.98537739031E+02 -0.73807129627E+03  0.75655820139E+03  0.00000000000E+00 0.  1.
<mgrwt>
<rscale>  0 0.22912832E+04</rscale>
<asrwt>0</asrwt>
<pdfrwt beam="1">  1        4 0.26833286E+00 0.22912832E+04</pdfrwt>
<pdfrwt beam="2">  1       -4 0.11577026E+00 0.22912832E+04</pdfrwt>
<totfact> 0.50973304E-02</totfact>
</mgrwt>
</event>
<event>
 6    1  0.9364335E-007  0.1469109E+04  0.7818608E-02  0.8905259E-01
         -2   -1    0    0    0  501 -0.00000000000E+00  0.00000000000E+00  0.36723743544E+03  0.36723743544E+03  0.00000000000E+00 0.  1.
          2   -1    0    0  501    0  0.00000000000E+00 -0.00000000000E+00 -0.14692675720E+04  0.14692675720E+04  0.00000000000E+00 0. -1.
         23    2    1    2    0    0  0.40838701134E+03  0.43829985297E+03 -0.10781875999E+04  0.12369591971E+04  0.93235414770E+02 0.  0.
         13    1    3    3    0    0  0.74034536726E+02  0.36787508322E+02 -0.12292183416E+03  0.14813578471E+03  0.00000000000E+00 0. -1.
        -13    1    3    3    0    0  0.33435247461E+03  0.40151234464E+03 -0.95526576579E+03  0.10888234124E+04  0.00000000000E+00 0.  1.
         22    1    1    2    0    0 -0.40838701134E+03 -0.43829985297E+03 -0.23842536647E+02  0.59954581034E+03  0.00000000000E+00 0.  1.
<mgrwt>
<rscale>  0 0.14691086E+04</rscale>
<asrwt>0</asrwt>
<pdfrwt beam="1">  1        2 0.22604116E+00 0.14691086E+04</pdfrwt>
<pdfrwt beam="2">  1       -2 0.56498068E-01 0.14691086E+04</pdfrwt>
<totfact> 0.37605167E+01</totfact>
</mgrwt>
</event>
<event>
 6    1  0.9364335E-007  0.1290362E+04  0.7818608E-02  0.9037244E-01
         -2   -1    0    0    0  501 -0.00000000000E+00  0.00000000000E+00  0.19977798053E+03  0.19977798053E+03  0.00000000000E+00 0.  1.
          2   -1    0    0  501    0  0.00000000000E+00 -0.00000000000E+00 -0.20836040652E+04  0.20836040652E+04  0.00000000000E+00 0. -1.
         23    2    1    2    0    0 -0.47008473088E+03 -0.43337793712E+03 -0.85666697348E+03  0.10734845582E+04  0.98461681390E+02 0.  0.
         11    1    3    3    0    0 -0.24462011420E+03 -0.28938881070E+03 -0.48206020622E+03  0.61316141957E+03  0.00000000000E+00 0. -1.
        -11    1    3    3    0    0 -0.22546461667E+03 -0.14398912642E+03 -0.37460676726E+03  0.46032313865E+03  0.00000000000E+00 0.  1.
         22    1    1    2    0    0  0.47008473088E+03  0.43337793712E+03 -0.10271591112E+04  0.12098974876E+04  0.00000000000E+00 0. -1.
<mgrwt>
<rscale>  0 0.12903615E+04</rscale>
<asrwt>0</asrwt>
<pdfrwt beam="1">  1        2 0.32055448E+00 0.12903615E+04</pdfrwt>
<pdfrwt beam="2">  1       -2 0.30735074E-01 0.12903615E+04</pdfrwt>
<totfact> 0.57765282E+01</totfact>
</mgrwt>
</event>
<event>
 6    1  0.9364335E-007  0.3138425E+04  0.7818608E-02  0.8205271E-01
          2   -1    0    0  501    0  0.00000000000E+00  0.00000000000E+00  0.15307482903E+04  0.15307482903E+04  0.00000000000E+00 0. -1.
         -2   -1    0    0    0  501 -0.00000000000E+00 -0.00000000000E+00 -0.16086430852E+04  0.16086430852E+04  0.00000000000E+00 0.  1.
         23    2    1    2    0    0 -0.55888586231E+03  0.57070932310E+03 -0.13885247423E+04  0.16045254539E+04  0.91860948669E+02 0.  0.
         13    1    3    3    0    0 -0.19732517137E+03  0.26027240835E+03 -0.60198597047E+03  0.68488397444E+03  0.00000000000E+00 0.  1.
        -13    1    3    3    0    0 -0.36156069094E+03  0.31043691475E+03 -0.78653877179E+03  0.91964147949E+03  0.00000000000E+00 0. -1.
         22    1    1    2    0    0  0.55888586231E+03 -0.57070932310E+03  0.13106299473E+04  0.15348659216E+04  0.00000000000E+00 0. -1.
<mgrwt>
<rscale>  0 0.31384249E+04</rscale>
<asrwt>0</asrwt>
<pdfrwt beam="1">  1        2 0.23549974E+00 0.31384249E+04</pdfrwt>
<pdfrwt beam="2">  1       -2 0.24748355E+00 0.31384249E+04</pdfrwt>
<totfact> 0.68747240E-01</totfact>
</mgrwt>
</event>
<event>
 6    1  0.9364335E-007  0.3049850E+04  0.7818608E-02  0.8229637E-01
          1   -1    0    0  501    0  0.00000000000E+00  0.00000000000E+00  0.22697220916E+04  0.22697220916E+04  0.00000000000E+00 0. -1.
         -1   -1    0    0    0  501 -0.00000000000E+00 -0.00000000000E+00 -0.10245290305E+04  0.10245290305E+04  0.00000000000E+00 0.  1.
         23    2    1    2    0    0 -0.10936154320E+04  0.30020727517E+03 -0.47562163873E+03  0.12333478365E+04  0.93871301822E+02 0.  0.
         13    1    3    3    0    0 -0.38103080769E+03  0.14753566649E+03 -0.15176390861E+03  0.43587100528E+03  0.00000000000E+00 0. -1.
        -13    1    3    3    0    0 -0.71258462435E+03  0.15267160869E+03 -0.32385773012E+03  0.79747683121E+03  0.00000000000E+00 0.  1.
         22    1    1    2    0    0  0.10936154320E+04 -0.30020727517E+03  0.17208146999E+04  0.20609032856E+04  0.00000000000E+00 0. -1.
<mgrwt>
<rscale>  0 0.30498499E+04</rscale>
<asrwt>0</asrwt>
<pdfrwt beam="1">  1        1 0.34918801E+00 0.30498499E+04</pdfrwt>
<pdfrwt beam="2">  1       -1 0.15761985E+00 0.30498499E+04</pdfrwt>
<totfact> 0.50397959E-01</totfact>
</mgrwt>
</event>
<event>
 6    1  0.9364335E-007  0.5081489E+03  0.7818608E-02  0.1011674E+00
          2   -1    0    0  501    0  0.00000000000E+00  0.00000000000E+00  0.17127771128E+03  0.17127771128E+03  0.00000000000E+00 0. -1.
         -2   -1    0    0    0  501 -0.00000000000E+00 -0.00000000000E+00 -0.37689565382E+03  0.37689565382E+03  0.00000000000E+00 0.  1.
         23    2    1    2    0    0 -0.80001224685E+02 -0.98747291336E+01 -0.35627519288E+03  0.37730700414E+03  0.94503206772E+02 0.  0.
         13    1    3    3    0    0  0.11169596933E+02  0.18400395051E+02 -0.12925803087E+03  0.13103805928E+03  0.00000000000E+00 0.  1.
        -13    1    3    3    0    0 -0.91170821618E+02 -0.28275124185E+02 -0.22701716200E+03  0.24626894487E+03  0.00000000000E+00 0. -1.
         22    1    1    2    0    0  0.80001224685E+02  0.98747291336E+01  0.15065725034E+03  0.17086636096E+03  0.00000000000E+00 0. -1.
<mgrwt>
<rscale>  0 0.50814890E+03</rscale>
<asrwt>0</asrwt>
<pdfrwt beam="1">  1        2 0.26350417E-01 0.50814890E+03</pdfrwt>
<pdfrwt beam="2">  1       -2 0.57983946E-01 0.50814890E+03</pdfrwt>
<totfact> 0.57846938E+02</totfact>
</mgrwt>
</event>
<event>
 6    1  0.9364335E-007  0.2257836E+04  0.7818608E-02  0.8494734E-01
         -2   -1    0    0    0  501 -0.00000000000E+00  0.00000000000E+00  0.77347942197E+03  0.77347942197E+03  0.00000000000E+00 0.  1.
          2   -1    0    0  501    0  0.00000000000E+00 -0.00000000000E+00 -0.16476916734E+04  0.16476916734E+04  0.00000000000E+00 0. -1.
         23    2    1    2    0    0  0.10805073238E+04 -0.16598228997E+03 -0.14355852267E+03  0.11062942690E+04  0.90729062478E+02 0.  0.
         13    1    3    3    0    0  0.96855029145E+03 -0.15093892377E+03 -0.15626670564E+03  0.99261851135E+03  0.00000000000E+00 0. -1.
        -13    1    3    3    0    0  0.11195703233E+03 -0.15043366200E+02  0.12708182969E+02  0.11367575761E+03  0.00000000000E+00 0.  1.
         22    1    1    2    0    0 -0.10805073238E+04  0.16598228997E+03 -0.73065372879E+03  0.13148768264E+04  0.00000000000E+00 0.  1.
<mgrwt>
<rscale>  0 0.22578358E+04</rscale>
<asrwt>0</asrwt>
<pdfrwt beam="1">  1        2 0.25349102E+00 0.22578358E+04</pdfrwt>
<pdfrwt beam="2">  1       -2 0.11899684E+00 0.22578358E+04</pdfrwt>
<totfact> 0.51738826E+00</totfact>
</mgrwt>
</event>
<event>
 6    1  0.9364335E-007  0.1407804E+04  0.7818608E-02  0.8948189E-01
         -2   -1    0    0    0  501 -0.00000000000E+00  0.00000000000E+00  0.90167687637E+03  0.90167687637E+03  0.00000000000E+00 0.  1.
          2   -1    0    0  501    0  0.00000000000E+00 -0.00000000000E+00 -0.54950739461E+03  0.54950739461E+03  0.00000000000E+00 0. -1.
         23    2    1    2    0    0  0.26560532941E+03  0.34258771010E+03 -0.38961665119E+03  0.59202235540E+03  0.10381138806E+03 0.  0.
         11    1    3    3    0    0  0.23490858392E+03  0.23161776953E+03 -0.27381458026E+03  0.42872282225E+03  0.00000000000E+00 0. -1.
        -11    1    3    3    0    0  0.30696745489E+02  0.11096994058E+03 -0.11580207093E+03  0.16329953315E+03  0.00000000000E+00 0.  1.
         22    1    1    2    0    0 -0.26560532941E+03 -0.34258771010E+03  0.74178613296E+03  0.85916191557E+03  0.00000000000E+00 0.  1.
<mgrwt>
<rscale>  0 0.14078041E+04</rscale>
<asrwt>0</asrwt>
<pdfrwt beam="1">  1        2 0.84539599E-01 0.14078041E+04</pdfrwt>
<pdfrwt beam="2">  1       -2 0.13871952E+00 0.14078041E+04</pdfrwt>
<totfact> 0.19706660E+01</totfact>
</mgrwt>
</event>
<event>
 6    1  0.9364335E-007  0.1091986E+04  0.7818608E-02  0.9213039E-01
         -2   -1    0    0    0  501 -0.00000000000E+00  0.00000000000E+00  0.25376020450E+03  0.25376020450E+03  0.00000000000E+00 0.  1.
          2   -1    0    0  501    0  0.00000000000E+00 -0.00000000000E+00 -0.11747630207E+04  0.11747630207E+04  0.00000000000E+00 0. -1.
         23    2    1    2    0    0  0.34858232298E+03  0.75426571291E+02  0.70761770680E+02  0.37458024793E+03  0.90024054557E+02 0.  0.
         11    1    3    3    0    0  0.80040456365E+02  0.24982677509E+02  0.56226017517E+02  0.10095530633E+03  0.00000000000E+00 0. -1.
        -11    1    3    3    0    0  0.26854186661E+03  0.50443893781E+02  0.14535753163E+02  0.27362494160E+03  0.00000000000E+00 0.  1.
         22    1    1    2    0    0 -0.34858232298E+03 -0.75426571291E+02 -0.99176458692E+03  0.10539429773E+04  0.00000000000E+00 0. -1.
<mgrwt>
<rscale>  0 0.10919855E+04</rscale>
<asrwt>0</asrwt>
<pdfrwt beam="1">  1        2 0.18073278E+00 0.10919855E+04</pdfrwt>
<pdfrwt beam="2">  1       -2 0.39040031E-01 0.10919855E+04</pdfrwt>
<totfact> 0.12073196E+02</totfact>
</mgrwt>
</event>
<event>
 6    1  0.9364335E-007  0.1620929E+04  0.7818608E-02  0.8807792E-01
         -1   -1    0    0    0  501 -0.00000000000E+00  0.00000000000E+00  0.94895471708E+03  0.94895471708E+03  0.00000000000E+00 0.  1.
          1   -1    0    0  501    0  0.00000000000E+00 -0.00000000000E+00 -0.69218587798E+03  0.69218587798E+03  0.00000000000E+00 0. -1.
         23    2    1    2    0    0  0.57879429282E+03 -0.51490141494E+03  0.36131298463E+03  0.85944002651E+03  0.89240045920E+02 0.  0.
         13    1    3    3    0    0  0.32252144974E+03 -0.28970949712E+03  0.15314095912E+03  0.45978672406E+03  0.00000000000E+00 0. -1.
        -13    1    3    3    0    0  0.25627284308E+03 -0.22519191782E+03  0.20817202551E+03  0.39965330244E+03  0.00000000000E+00 0.  1.
         22    1    1    2    0    0 -0.57879429282E+03  0.51490141494E+03 -0.10454414553E+03  0.78170056855E+03  0.00000000000E+00 0. -1.
<mgrwt>
<rscale>  0 0.16209294E+04</rscale>
<asrwt>0</asrwt>
<pdfrwt beam="1">  1        1 0.10649014E+00 0.16209294E+04</pdfrwt>
<pdfrwt beam="2">  1       -1 0.14599303E+00 0.16209294E+04</pdfrwt>
<totfact> 0.99610078E+00</totfact>
</mgrwt>
</event>
<event>
 6    1  0.9364335E-007  0.4929176E+04  0.7818608E-02  0.7839526E-01
          2   -1    0    0  501    0  0.00000000000E+00  0.00000000000E+00  0.30430033660E+04  0.30430033660E+04  0.00000000000E+00 0. -1.
         -2   -1    0    0    0  501 -0.00000000000E+00 -0.00000000000E+00 -0.19961181442E+04  0.19961181442E+04  0.00000000000E+00 0.  1.
         23    2    1    2    0    0 -0.76209623716E+03 -0.23013849933E+04  0.97287595992E+03  0.26137058896E+04  0.88358824936E+02 0.  0.
         11    1    3    3    0    0 -0.33106629886E+03 -0.11353295145E+04  0.46181147235E+03  0.12695856949E+04  0.00000000000E+00 0.  1.
        -11    1    3    3    0    0 -0.43102993830E+03 -0.11660554788E+04  0.51106448757E+03  0.13441201947E+04  0.00000000000E+00 0. -1.
         22    1    1    2    0    0  0.76209623716E+03  0.23013849933E+04  0.74009261919E+02  0.24254156206E+04  0.00000000000E+00 0.  1.
<mgrwt>
<rscale>  0 0.49291761E+04</rscale>
<asrwt>0</asrwt>
<pdfrwt beam="1">  1        2 0.46815437E+00 0.49291761E+04</pdfrwt>
<pdfrwt beam="2">  1       -2 0.30709510E+00 0.49291761E+04</pdfrwt>
<totfact> 0.34416453E-02</totfact>
</mgrwt>
</event>
<event>
 6    1  0.9364335E-007  0.4333304E+04  0.7818608E-02  0.7940488E-01
         -1   -1    0    0    0  501 -0.00000000000E+00  0.00000000000E+00  0.33442562603E+04  0.33442562603E+04  0.00000000000E+00 0.  1.
          1   -1    0    0  501    0  0.00000000000E+00 -0.00000000000E+00 -0.14037145037E+04  0.14037145037E+04  0.00000000000E+00 0. -1.
         23    2    1    2    0    0 -0.19831993062E+04 -0.37009432115E+03  0.10788712779E+03  0.20224116869E+04  0.91978824086E+02 0.  0.
         11    1    3    3    0    0 -0.15641628332E+04 -0.31896332714E+03  0.58961865765E+02  0.15974415402E+04  0.00000000000E+00 0.  1.
        -11    1    3    3    0    0 -0.41903647300E+03 -0.51130994018E+02  0.48925262027E+02  0.42497014662E+03  0.00000000000E+00 0. -1.
         22    1    1    2    0    0  0.19831993062E+04  0.37009432115E+03  0.18326546288E+04  0.27255590772E+04  0.00000000000E+00 0.  1.
<mgrwt>
<rscale>  0 0.43333041E+04</rscale>
<asrwt>0</asrwt>
<pdfrwt beam="1">  1        1 0.21595608E+00 0.43333041E+04</pdfrwt>
<pdfrwt beam="2">  1       -1 0.51450096E+00 0.43333041E+04</pdfrwt>
<totfact> 0.70361235E-03</totfact>
</mgrwt>
</event>
<event>
 6    1  0.9364335E-007  0.4395859E+03  0.7818608E-02  0.1030874E+00
          1   -1    0    0  501    0  0.00000000000E+00  0.00000000000E+00  0.71165419532E+02  0.71165419532E+02  0.00000000000E+00 0. -1.
         -1   -1    0    0    0  501 -0.00000000000E+00 -0.00000000000E+00 -0.67882603468E+03  0.67882603468E+03  0.00000000000E+00 0.  1.
         23    2    1    2    0    0 -0.63496032388E+02 -0.34836032914E+02 -0.65390687111E+03  0.66406118301E+03  0.90209552588E+02 0.  0.
         11    1    3    3    0    0 -0.62540712001E+02 -0.52069985626E+02 -0.33707646973E+03  0.34676097028E+03  0.00000000000E+00 0. -1.
        -11    1    3    3    0    0 -0.95532038670E+00  0.17233952712E+02 -0.31683040138E+03  0.31730021273E+03  0.00000000000E+00 0.  1.
         22    1    1    2    0    0  0.63496032388E+02  0.34836032914E+02  0.46246255962E+02  0.85930271201E+02  0.00000000000E+00 0. -1.
<mgrwt>
<rscale>  0 0.43958589E+03</rscale>
<asrwt>0</asrwt>
<pdfrwt beam="1">  1        1 0.10948526E-01 0.43958589E+03</pdfrwt>
<pdfrwt beam="2">  1       -1 0.10443477E+00 0.43958589E+03</pdfrwt>
<totfact> 0.51853062E+02</totfact>
</mgrwt>
</event>
<event>
 6    1  0.9364335E-007  0.2772421E+04  0.7818608E-02  0.8311882E-01
         -1   -1    0    0    0  501 -0.00000000000E+00  0.00000000000E+00  0.44427906797E+03  0.44427906797E+03  0.00000000000E+00 0.  1.
          1   -1    0    0  501    0  0.00000000000E+00 -0.00000000000E+00 -0.43251644627E+04  0.43251644627E+04  0.00000000000E+00 0. -1.
         23    2    1    2    0    0  0.13664343207E+04 -0.16037911185E+03 -0.22127109301E+04  0.26071137092E+04  0.89933420489E+02 0.  0.
         13    1    3    3    0    0  0.91239823904E+03 -0.64560289736E+02 -0.14766221066E+04  0.17369661549E+04  0.00000000000E+00 0. -1.
        -13    1    3    3    0    0  0.45403608169E+03 -0.95818822110E+02 -0.73608882349E+03  0.87014755428E+03  0.00000000000E+00 0.  1.
         22    1    1    2    0    0 -0.13664343207E+04  0.16037911185E+03 -0.16681744646E+04  0.21623298215E+04  0.00000000000E+00 0. -1.
<mgrwt>
<rscale>  0 0.27724214E+04</rscale>
<asrwt>0</asrwt>
<pdfrwt beam="1">  1        1 0.66540988E+00 0.27724214E+04</pdfrwt>
<pdfrwt beam="2">  1       -1 0.68350630E-01 0.27724214E+04</pdfrwt>
<totfact> 0.90579658E-02</totfact>
</mgrwt>
</event>
<event>
 6    1  0.9364335E-007  0.3318003E+04  0.7818608E-02  0.8158330E-01
         -1   -1    0    0    0  501 -0.00000000000E+00  0.00000000000E+00  0.92663409862E+03  0.92663409862E+03  0.00000000000E+00 0.  1.
          1   -1    0    0  501    0  0.00000000000E+00 -0.00000000000E+00 -0.29701974890E+04  0.29701974890E+04  0.00000000000E+00 0. -1.
         23    2    1    2    0    0  0.80422693379E+03 -0.14489289375E+04 -0.97552244348E+03  0.19253125055E+04  0.94911428921E+02 0.  0.
         11    1    3    3    0    0  0.56071640569E+03 -0.10062055493E+04 -0.62681620031E+03  0.13113927879E+04  0.00000000000E+00 0. -1.
        -11    1    3    3    0    0  0.24351052810E+03 -0.44272338814E+03 -0.34870624317E+03  0.61391971765E+03  0.00000000000E+00 0.  1.
         22    1    1    2    0    0 -0.80422693379E+03  0.14489289375E+04 -0.10680409469E+04  0.19715190821E+04  0.00000000000E+00 0.  1.
<mgrwt>
<rscale>  0 0.33180032E+04</rscale>
<asrwt>0</asrwt>
<pdfrwt beam="1">  1        1 0.45695346E+00 0.33180032E+04</pdfrwt>
<pdfrwt beam="2">  1       -1 0.14255909E+00 0.33180032E+04</pdfrwt>
<totfact> 0.20788060E-01</totfact>
</mgrwt>
</event>
<event>
 6    1  0.9364335E-007  0.2617764E+04  0.7818608E-02  0.8362192E-01
         -2   -1    0    0    0  501 -0.00000000000E+00  0.00000000000E+00  0.15487030700E+04  0.15487030700E+04  0.00000000000E+00 0.  1.
          2   -1    0    0  501    0  0.00000000000E+00 -0.00000000000E+00 -0.11061978801E+04  0.11061978801E+04  0.00000000000E+00 0. -1.
         23    2    1    2    0    0 -0.19798242038E+03 -0.11757976471E+04  0.76524467801E+03  0.14196447325E+04  0.89970014296E+02 0.  0.
         11    1    3    3    0    0 -0.11810161139E+03 -0.64647252049E+03  0.36949234057E+03  0.75392260883E+03  0.00000000000E+00 0.  1.
        -11    1    3    3    0    0 -0.79880808981E+02 -0.52932512666E+03  0.39575233744E+03  0.66572212367E+03  0.00000000000E+00 0. -1.
         22    1    1    2    0    0  0.19798242038E+03  0.11757976471E+04 -0.32273948814E+03  0.12352562176E+04  0.00000000000E+00 0. -1.
<mgrwt>
<rscale>  0 0.26177640E+04</rscale>
<asrwt>0</asrwt>
<pdfrwt beam="1">  1        2 0.17018429E+00 0.26177640E+04</pdfrwt>
<pdfrwt beam="2">  1       -2 0.23826201E+00 0.26177640E+04</pdfrwt>
<totfact> 0.14483227E+00</totfact>
</mgrwt>
</event>
<event>
 6    1  0.9364335E-007  0.2163874E+04  0.7818608E-02  0.8533617E-01
          2   -1    0    0  501    0  0.00000000000E+00  0.00000000000E+00  0.10500261169E+04  0.10500261169E+04  0.00000000000E+00 0. -1.
         -2   -1    0    0    0  501 -0.00000000000E+00 -0.00000000000E+00 -0.11148181727E+04  0.11148181727E+04  0.00000000000E+00 0.  1.
         23    2    1    2    0    0  0.30700335556E+03 -0.93944820181E+03 -0.46819769429E+03  0.10973471733E+04  0.90264908539E+02 0.  0.
         13    1    3    3    0    0  0.69184563299E+02 -0.30178665862E+03 -0.11239141066E+03  0.32938354590E+03  0.00000000000E+00 0. -1.
        -13    1    3    3    0    0  0.23781879226E+03 -0.63766154319E+03 -0.35580628363E+03  0.76796362745E+03  0.00000000000E+00 0.  1.
         22    1    1    2    0    0 -0.30700335556E+03  0.93944820181E+03  0.40340563848E+03  0.10674971163E+04  0.00000000000E+00 0.  1.
<mgrwt>
<rscale>  0 0.21638745E+04</rscale>
<asrwt>0</asrwt>
<pdfrwt beam="1">  1        2 0.16154248E+00 0.21638745E+04</pdfrwt>
<pdfrwt beam="2">  1       -2 0.17151049E+00 0.21638745E+04</pdfrwt>
<totfact> 0.44614593E+00</totfact>
</mgrwt>
</event>
<event>
 6    1  0.9364335E-007  0.1285092E+04  0.7818608E-02  0.9041471E-01
          1   -1    0    0  501    0  0.00000000000E+00  0.00000000000E+00  0.12162488013E+04  0.12162488013E+04  0.00000000000E+00 0. -1.
         -1   -1    0    0    0  501 -0.00000000000E+00 -0.00000000000E+00 -0.33945809082E+03  0.33945809082E+03  0.00000000000E+00 0.  1.
         23    2    1    2    0    0 -0.36313072937E+03 -0.11057390641E+03  0.10633618276E+04  0.11327420034E+04  0.90970074448E+02 0.  0.
         13    1    3    3    0    0 -0.20719167918E+03 -0.30816314669E+02  0.67395475594E+03  0.70575707593E+03  0.00000000000E+00 0. -1.
        -13    1    3    3    0    0 -0.15593905019E+03 -0.79757591743E+02  0.38940707164E+03  0.42698492744E+03  0.00000000000E+00 0.  1.
         22    1    1    2    0    0  0.36313072937E+03  0.11057390641E+03 -0.18657111709E+03  0.42296488876E+03  0.00000000000E+00 0.  1.
<mgrwt>
<rscale>  0 0.12850922E+04</rscale>
<asrwt>0</asrwt>
<pdfrwt beam="1">  1        1 0.18711520E+00 0.12850922E+04</pdfrwt>
<pdfrwt beam="2">  1       -1 0.52224322E-01 0.12850922E+04</pdfrwt>
<totfact> 0.37760287E+01</totfact>
</mgrwt>
</event>
<event>
 6    1  0.9364335E-007  0.3508175E+04  0.7818608E-02  0.8111855E-01
          1   -1    0    0  501    0  0.00000000000E+00  0.00000000000E+00  0.13539420701E+04  0.13539420701E+04  0.00000000000E+00 0. -1.
         -1   -1    0    0    0  501 -0.00000000000E+00 -0.00000000000E+00 -0.22724920034E+04  0.22724920034E+04  0.00000000000E+00 0.  1.
         23    2    1    2    0    0 -0.24615100776E+03  0.92625201829E+03 -0.19767775278E+04  0.21987160476E+04  0.90386633407E+02 0.  0.
         11    1    3    3    0    0 -0.12377487406E+03  0.60269416548E+03 -0.12065248303E+04  0.13543495275E+04  0.00000000000E+00 0. -1.
        -11    1    3    3    0    0 -0.12237613369E+03  0.32355785281E+03 -0.77025269745E+03  0.84436652003E+03  0.00000000000E+00 0.  1.
         22    1    1    2    0    0  0.24615100776E+03 -0.92625201829E+03  0.10582275945E+04  0.14277180260E+04  0.00000000000E+00 0. -1.
<mgrwt>
<rscale>  0 0.35081748E+04</rscale>
<asrwt>0</asrwt>
<pdfrwt beam="1">  1        1 0.20829878E+00 0.35081748E+04</pdfrwt>
<pdfrwt beam="2">  1       -1 0.34961415E+00 0.35081748E+04</pdfrwt>
<totfact> 0.10546016E-01</totfact>
</mgrwt>
</event>
<event>
 6    1  0.9364335E-007  0.2187713E+04  0.7818608E-02  0.8523560E-01
          1   -1    0    0  501    0  0.00000000000E+00  0.00000000000E+00  0.96869187539E+03  0.96869187539E+03  0.00000000000E+00 0. -1.
         -1   -1    0    0    0  501 -0.00000000000E+00 -0.00000000000E+00 -0.12351933859E+04  0.12351933859E+04  0.00000000000E+00 0.  1.
         23    2    1    2    0    0 -0.35261089601E+03  0.70058313850E+03  0.63196322070E+03  0.10112453109E+04  0.89935469337E+02 0.  0.
         11    1    3    3    0    0 -0.20691644206E+03  0.31554934884E+03  0.28542393016E+03  0.47313066425E+03  0.00000000000E+00 0.  1.
        -11    1    3    3    0    0 -0.14569445395E+03  0.38503378966E+03  0.34653929054E+03  0.53811464668E+03  0.00000000000E+00 0. -1.
         22    1    1    2    0    0  0.35261089601E+03 -0.70058313850E+03 -0.89846473120E+03  0.11926399503E+04  0.00000000000E+00 0.  1.
<mgrwt>
<rscale>  0 0.21877128E+04</rscale>
<asrwt>0</asrwt>
<pdfrwt beam="1">  1        1 0.14902952E+00 0.21877128E+04</pdfrwt>
<pdfrwt beam="2">  1       -1 0.19002975E+00 0.21877128E+04</pdfrwt>
<totfact> 0.25816053E+00</totfact>
</mgrwt>
</event>
<event>
 6    1  0.9364335E-007  0.2062712E+04  0.7818608E-02  0.8577849E-01
         -1   -1    0    0    0  501 -0.00000000000E+00  0.00000000000E+00  0.14401742391E+04  0.14401742391E+04  0.00000000000E+00 0.  1.
          1   -1    0    0  501    0  0.00000000000E+00 -0.00000000000E+00 -0.73858818319E+03  0.73858818319E+03  0.00000000000E+00 0. -1.
         23    2    1    2    0    0  0.46574546940E+03 -0.88759748727E+03  0.59822494959E+03  0.11710761318E+04  0.93798052043E+02 0.  0.
         11    1    3    3    0    0  0.40829194504E+03 -0.69807738505E+03  0.47975009749E+03  0.94030553755E+03  0.00000000000E+00 0. -1.
        -11    1    3    3    0    0  0.57453524356E+02 -0.18952010222E+03  0.11847485210E+03  0.23077059428E+03  0.00000000000E+00 0.  1.
         22    1    1    2    0    0 -0.46574546940E+03  0.88759748727E+03  0.10336110633E+03  0.10076862905E+04  0.00000000000E+00 0. -1.
<mgrwt>
<rscale>  0 0.20627125E+04</rscale>
<asrwt>0</asrwt>
<pdfrwt beam="1">  1        1 0.11362895E+00 0.20627125E+04</pdfrwt>
<pdfrwt beam="2">  1       -1 0.22156527E+00 0.20627125E+04</pdfrwt>
<totfact> 0.24860264E+00</totfact>
</mgrwt>
</event>
<event>
 6    1  0.9364335E-007  0.9584877E+03  0.7818608E-02  0.9355284E-01
          2   -1    0    0  501    0  0.00000000000E+00  0.00000000000E+00  0.23702870234E+04  0.23702870234E+04  0.00000000000E+00 0. -1.
         -2   -1    0    0    0  501 -0.00000000000E+00 -0.00000000000E+00 -0.96897408749E+02  0.96897408749E+02  0.00000000000E+00 0.  1.
         23    2    1    2    0    0 -0.28276667460E+03  0.11541043878E+03  0.20830309510E+04  0.21073053101E+04  0.91875816299E+02 0.  0.
         11    1    3    3    0    0 -0.16860369237E+03  0.24767393359E+02  0.98370022135E+03  0.99835201925E+03  0.00000000000E+00 0. -1.
        -11    1    3    3    0    0 -0.11416298222E+03  0.90643045420E+02  0.10993307296E+04  0.11089532909E+04  0.00000000000E+00 0.  1.
         22    1    1    2    0    0  0.28276667460E+03 -0.11541043878E+03  0.19035866365E+03  0.35987912202E+03  0.00000000000E+00 0.  1.
<mgrwt>
<rscale>  0 0.95848771E+03</rscale>
<asrwt>0</asrwt>
<pdfrwt beam="1">  1        2 0.36465950E+00 0.95848771E+03</pdfrwt>
<pdfrwt beam="2">  1       -2 0.14907295E-01 0.95848771E+03</pdfrwt>
<totfact> 0.14846184E+02</totfact>
</mgrwt>
</event>
<event>
 6    1  0.9364335E-007  0.2279477E+04  0.7818608E-02  0.8486057E-01
         -1   -1    0    0    0  501 -0.00000000000E+00  0.00000000000E+00  0.10370414060E+04  0.10370414060E+04  0.00000000000E+00 0.  1.
          1   -1    0    0  501    0  0.00000000000E+00 -0.00000000000E+00 -0.12526054356E+04  0.12526054356E+04  0.00000000000E+00 0. -1.
         23    2    1    2    0    0  0.64687328554E+03  0.17381111149E+03  0.81607038280E+03  0.10596367153E+04  0.90574547298E+02 0.  0.
         13    1    3    3    0    0  0.41631795601E+03  0.11526684283E+03  0.45635285630E+03  0.62838285703E+03  0.00000000000E+00 0. -1.
        -13    1    3    3    0    0  0.23055532952E+03  0.58544268664E+02  0.35971752650E+03  0.43125385823E+03  0.00000000000E+00 0.  1.
         22    1    1    2    0    0 -0.64687328554E+03 -0.17381111149E+03 -0.10316344124E+04  0.12300101263E+04  0.00000000000E+00 0. -1.
<mgrwt>
<rscale>  0 0.22794769E+04</rscale>
<asrwt>0</asrwt>
<pdfrwt beam="1">  1        1 0.19270853E+00 0.22794769E+04</pdfrwt>
<pdfrwt beam="2">  1       -1 0.15954483E+00 0.22794769E+04</pdfrwt>
<totfact> 0.26099815E+00</totfact>
</mgrwt>
</event>
<event>
 6    1  0.9364335E-007  0.5195664E+04  0.7818608E-02  0.7799013E-01
         -1   -1    0    0    0  501 -0.00000000000E+00  0.00000000000E+00  0.23445913358E+04  0.23445913358E+04  0.00000000000E+00 0.  1.
          1   -1    0    0  501    0  0.00000000000E+00 -0.00000000000E+00 -0.28784247932E+04  0.28784247932E+04  0.00000000000E+00 0. -1.
         23    2    1    2    0    0 -0.25414803242E+04  0.24045598568E+03 -0.74641804446E+03  0.26613499669E+04  0.93286812890E+02 0.  0.
         11    1    3    3    0    0 -0.17240016911E+04  0.12200982855E+03 -0.52080194511E+03  0.18050769776E+04  0.00000000000E+00 0.  1.
        -11    1    3    3    0    0 -0.81747863318E+03  0.11844615713E+03 -0.22561609935E+03  0.85627298926E+03  0.00000000000E+00 0. -1.
         22    1    1    2    0    0  0.25414803242E+04 -0.24045598568E+03  0.21258458713E+03  0.25616661621E+04  0.00000000000E+00 0. -1.
<mgrwt>
<rscale>  0 0.51956635E+04</rscale>
<asrwt>0</asrwt>
<pdfrwt beam="1">  1        1 0.44283458E+00 0.51956635E+04</pdfrwt>
<pdfrwt beam="2">  1       -1 0.36070636E+00 0.51956635E+04</pdfrwt>
<totfact> 0.68653356E-03</totfact>
</mgrwt>
</event>
<event>
 6    1  0.9364335E-007  0.2082603E+04  0.7818608E-02  0.8568946E-01
         -2   -1    0    0    0  501 -0.00000000000E+00  0.00000000000E+00  0.62968606800E+03  0.62968606800E+03  0.00000000000E+00 0.  1.
          2   -1    0    0  501    0  0.00000000000E+00 -0.00000000000E+00 -0.17219833668E+04  0.17219833668E+04  0.00000000000E+00 0. -1.
         23    2    1    2    0    0  0.69214094684E+03 -0.48726485413E+03  0.13394801362E+03  0.86164806094E+03  0.89494034489E+02 0.  0.
         11    1    3    3    0    0  0.26191949877E+03 -0.22915327939E+03  0.30171483827E+02  0.34931843314E+03  0.00000000000E+00 0. -1.
        -11    1    3    3    0    0  0.43022144806E+03 -0.25811157474E+03  0.10377652979E+03  0.51232962780E+03  0.00000000000E+00 0.  1.
         22    1    1    2    0    0 -0.69214094684E+03  0.48726485413E+03 -0.12262453124E+04  0.14900213739E+04  0.00000000000E+00 0. -1.
<mgrwt>
<rscale>  0 0.20826031E+04</rscale>
<asrwt>0</asrwt>
<pdfrwt beam="1">  1        2 0.26492051E+00 0.20826031E+04</pdfrwt>
<pdfrwt beam="2">  1       -2 0.96874782E-01 0.20826031E+04</pdfrwt>
<totfact> 0.78336181E+00</totfact>
</mgrwt>
</event>
<event>
 6    1  0.9364335E-007  0.2978421E+04  0.7818608E-02  0.8249920E-01
         -1   -1    0    0    0  501 -0.00000000000E+00  0.00000000000E+00  0.90446363549E+03  0.90446363549E+03  0.00000000000E+00 0.  1.
          1   -1    0    0  501    0  0.00000000000E+00 -0.00000000000E+00 -0.24520040485E+04  0.24520040485E+04  0.00000000000E+00 0. -1.
         23    2    1    2    0    0 -0.11128743347E+04 -0.88374733440E+03 -0.27788207933E+03  0.14508100757E+04  0.90181981321E+02 0.  0.
         13    1    3    3    0    0 -0.52270816140E+03 -0.47189214815E+03 -0.14493331645E+03  0.71896570690E+03  0.00000000000E+00 0.  1.
        -13    1    3    3    0    0 -0.59016617329E+03 -0.41185518625E+03 -0.13294876288E+03  0.73184436876E+03  0.00000000000E+00 0. -1.
         22    1    1    2    0    0  0.11128743347E+04  0.88374733440E+03 -0.12696583336E+04  0.19056576083E+04  0.00000000000E+00 0. -1.
<mgrwt>
<rscale>  0 0.29784214E+04</rscale>
<asrwt>0</asrwt>
<pdfrwt beam="1">  1        1 0.37723138E+00 0.29784214E+04</pdfrwt>
<pdfrwt beam="2">  1       -1 0.13914826E+00 0.29784214E+04</pdfrwt>
<totfact> 0.53093200E-01</totfact>
</mgrwt>
</event>
<event>
 6    1  0.9364335E-007  0.1295511E+04  0.7818608E-02  0.9033132E-01
         -2   -1    0    0    0  501 -0.00000000000E+00  0.00000000000E+00  0.22216843481E+03  0.22216843481E+03  0.00000000000E+00 0.  1.
          2   -1    0    0  501    0  0.00000000000E+00 -0.00000000000E+00 -0.18886000049E+04  0.18886000049E+04  0.00000000000E+00 0. -1.
         23    2    1    2    0    0  0.76401007470E+02  0.16363363179E+03 -0.18454512520E+04  0.18564829194E+04  0.90694140102E+02 0.  0.
         13    1    3    3    0    0  0.94833710712E+02  0.15304942049E+03 -0.15945402622E+04  0.16046732395E+04  0.00000000000E+00 0.  1.
        -13    1    3    3    0    0 -0.18432703243E+02  0.10584211293E+02 -0.25091098975E+03  0.25180967983E+03  0.00000000000E+00 0. -1.
         22    1    1    2    0    0 -0.76401007470E+02 -0.16363363179E+03  0.17901968184E+03  0.25428552039E+03  0.00000000000E+00 0.  1.
<mgrwt>
<rscale>  0 0.12955112E+04</rscale>
<asrwt>0</asrwt>
<pdfrwt beam="1">  1        2 0.29055386E+00 0.12955112E+04</pdfrwt>
<pdfrwt beam="2">  1       -2 0.34179758E-01 0.12955112E+04</pdfrwt>
<totfact> 0.60582394E+01</totfact>
</mgrwt>
</event>
<event>
 6    1  0.9364335E-007  0.2276684E+04  0.7818608E-02  0.8487172E-01
          1   -1    0    0  501    0  0.00000000000E+00  0.00000000000E+00  0.26450130167E+04  0.26450130167E+04  0.00000000000E+00 0. -1.
         -1   -1    0    0    0  501 -0.00000000000E+00 -0.00000000000E+00 -0.48991137631E+03  0.48991137631E+03  0.00000000000E+00 0.  1.
         23    2    1    2    0    0 -0.54949220506E+03  0.97122226725E+03  0.78411425012E+03  0.13672081262E+04  0.95961071080E+02 0.  0.
         13    1    3    3    0    0 -0.34834562334E+03  0.54596824922E+03  0.49382159475E+03  0.81442358137E+03  0.00000000000E+00 0. -1.
        -13    1    3    3    0    0 -0.20114658172E+03  0.42525401803E+03  0.29029265537E+03  0.55278454478E+03  0.00000000000E+00 0.  1.
         22    1    1    2    0    0  0.54949220506E+03 -0.97122226725E+03  0.13709873903E+04  0.17677162669E+04  0.00000000000E+00 0. -1.
<mgrwt>
<rscale>  0 0.22766835E+04</rscale>
<asrwt>0</asrwt>
<pdfrwt beam="1">  1        1 0.40692507E+00 0.22766835E+04</pdfrwt>
<pdfrwt beam="2">  1       -1 0.75370983E-01 0.22766835E+04</pdfrwt>
<totfact> 0.17196417E+00</totfact>
</mgrwt>
</event>
<event>
 6    1  0.9364335E-007  0.1334014E+04  0.7818608E-02  0.9003018E-01
         -2   -1    0    0    0  501 -0.00000000000E+00  0.00000000000E+00  0.18953197327E+03  0.18953197327E+03  0.00000000000E+00 0.  1.
          2   -1    0    0  501    0  0.00000000000E+00 -0.00000000000E+00 -0.23473540090E+04  0.23473540090E+04  0.00000000000E+00 0. -1.
         23    2    1    2    0    0  0.20769933808E+03 -0.20584995913E+03 -0.22172965876E+04  0.22384727737E+04  0.94037123386E+02 0.  0.
         13    1    3    3    0    0  0.13337056573E+03 -0.66846514318E+02 -0.11324441787E+04  0.11422285157E+04  0.00000000000E+00 0. -1.
        -13    1    3    3    0    0  0.74328772356E+02 -0.13900344481E+03 -0.10848524089E+04  0.10962442580E+04  0.00000000000E+00 0.  1.
         22    1    1    2    0    0 -0.20769933808E+03  0.20584995913E+03  0.59474551871E+02  0.29841320855E+03  0.00000000000E+00 0.  1.
<mgrwt>
<rscale>  0 0.13340144E+04</rscale>
<asrwt>0</asrwt>
<pdfrwt beam="1">  1        2 0.36113137E+00 0.13340144E+04</pdfrwt>
<pdfrwt beam="2">  1       -2 0.29158766E-01 0.13340144E+04</pdfrwt>
<totfact> 0.45187568E+01</totfact>
</mgrwt>
</event>
<event>
 6    1  0.9364335E-007  0.1413179E+04  0.7818608E-02  0.8944334E-01
         -2   -1    0    0    0  501 -0.00000000000E+00  0.00000000000E+00  0.17643349997E+03  0.17643349997E+03  0.00000000000E+00 0.  1.
          2   -1    0    0  501    0  0.00000000000E+00 -0.00000000000E+00 -0.28297828351E+04  0.28297828351E+04  0.00000000000E+00 0. -1.
         23    2    1    2    0    0  0.17830272486E+03  0.29018605552E+03 -0.26418484279E+04  0.26654347637E+04  0.95809996313E+02 0.  0.
         11    1    3    3    0    0  0.15452716998E+03  0.23660942544E+03 -0.18546207052E+04  0.18760278854E+04  0.00000000000E+00 0. -1.
        -11    1    3    3    0    0  0.23775554880E+02  0.53576630082E+02 -0.78722772264E+03  0.78940687835E+03  0.00000000000E+00 0.  1.
         22    1    1    2    0    0 -0.17830272486E+03 -0.29018605552E+03 -0.11500907286E+02  0.34078157136E+03  0.00000000000E+00 0.  1.
<mgrwt>
<rscale>  0 0.14131787E+04</rscale>
<asrwt>0</asrwt>
<pdfrwt beam="1">  1        2 0.43535120E+00 0.14131787E+04</pdfrwt>
<pdfrwt beam="2">  1       -2 0.27143616E-01 0.14131787E+04</pdfrwt>
<totfact> 0.26806252E+01</totfact>
</mgrwt>
</event>
<event>
 6    1  0.9364335E-007  0.2708132E+04  0.7818608E-02  0.8332371E-01
          1   -1    0    0  501    0  0.00000000000E+00  0.00000000000E+00  0.23651338251E+04  0.23651338251E+04  0.00000000000E+00 0. -1.
         -1   -1    0    0    0  501 -0.00000000000E+00 -0.00000000000E+00 -0.77521835164E+03  0.77521835164E+03  0.00000000000E+00 0.  1.
         23    2    1    2    0    0 -0.82520593058E+03 -0.63226187136E+03 -0.20749214968E+03  0.10639625058E+04  0.90792729410E+02 0.  0.
         11    1    3    3    0    0 -0.65539955683E+03 -0.52142457034E+03 -0.13340568727E+03  0.84807384056E+03  0.00000000000E+00 0.  1.
        -11    1    3    3    0    0 -0.16980637376E+03 -0.11083730103E+03 -0.74086462410E+02  0.21588866524E+03  0.00000000000E+00 0. -1.
         22    1    1    2    0    0  0.82520593058E+03  0.63226187136E+03  0.17974076231E+04  0.20763896709E+04  0.00000000000E+00 0. -1.
<mgrwt>
<rscale>  0 0.27081323E+04</rscale>
<asrwt>0</asrwt>
<pdfrwt beam="1">  1        1 0.36386674E+00 0.27081323E+04</pdfrwt>
<pdfrwt beam="2">  1       -1 0.11926436E+00 0.27081323E+04</pdfrwt>
<totfact> 0.92041387E-01</totfact>
</mgrwt>
</event>
<event>
 6    1  0.9364335E-007  0.2498682E+04  0.7818608E-02  0.8403455E-01
         -2   -1    0    0    0  501 -0.00000000000E+00  0.00000000000E+00  0.13312435877E+04  0.13312435877E+04  0.00000000000E+00 0.  1.
          2   -1    0    0  501    0  0.00000000000E+00 -0.00000000000E+00 -0.11724776845E+04  0.11724776845E+04  0.00000000000E+00 0. -1.
         23    2    1    2    0    0 -0.10275267898E+04  0.70717280564E+03  0.10784922727E+03  0.12553234235E+04  0.91108511418E+02 0.  0.
         13    1    3    3    0    0 -0.83362351556E+03  0.57514403332E+03  0.12316324587E+03  0.10202391925E+04  0.00000000000E+00 0. -1.
        -13    1    3    3    0    0 -0.19390327425E+03  0.13202877232E+03 -0.15314018607E+02  0.23508423097E+03  0.00000000000E+00 0.  1.
         22    1    1    2    0    0  0.10275267898E+04 -0.70717280564E+03  0.50916676021E+02  0.12483978487E+04  0.00000000000E+00 0. -1.
<mgrwt>
<rscale>  0 0.24986824E+04</rscale>
<asrwt>0</asrwt>
<pdfrwt beam="1">  1        2 0.18038118E+00 0.24986824E+04</pdfrwt>
<pdfrwt beam="2">  1       -2 0.20480671E+00 0.24986824E+04</pdfrwt>
<totfact> 0.21711938E+00</totfact>
</mgrwt>
</event>
<event>
 6    1  0.9364335E-007  0.1390203E+04  0.7818608E-02  0.8960941E-01
         -2   -1    0    0    0  501 -0.00000000000E+00  0.00000000000E+00  0.39609203667E+03  0.39609203667E+03  0.00000000000E+00 0.  1.
          2   -1    0    0  501    0  0.00000000000E+00 -0.00000000000E+00 -0.12198330128E+04  0.12198330128E+04  0.00000000000E+00 0. -1.
         23    2    1    2    0    0  0.34444109416E+03  0.45277533747E+03 -0.87175394332E+03  0.10450043733E+04  0.91836969085E+02 0.  0.
         13    1    3    3    0    0  0.99147017181E+02  0.16205284212E+03 -0.36376168746E+03  0.41038252877E+03  0.00000000000E+00 0.  1.
        -13    1    3    3    0    0  0.24529407698E+03  0.29072249534E+03 -0.50799225585E+03  0.63462184449E+03  0.00000000000E+00 0. -1.
         22    1    1    2    0    0 -0.34444109416E+03 -0.45277533747E+03  0.48012967138E+02  0.57092067625E+03  0.00000000000E+00 0. -1.
<mgrwt>
<rscale>  0 0.13902031E+04</rscale>
<asrwt>0</asrwt>
<pdfrwt beam="1">  1        2 0.18766661E+00 0.13902031E+04</pdfrwt>
<pdfrwt beam="2">  1       -2 0.60937238E-01 0.13902031E+04</pdfrwt>
<totfact> 0.44991088E+01</totfact>
</mgrwt>
</event>
<event>
 6    1  0.9364335E-007  0.2622480E+04  0.7818608E-02  0.8360605E-01
          2   -1    0    0  501    0  0.00000000000E+00  0.00000000000E+00  0.24137890744E+04  0.24137890744E+04  0.00000000000E+00 0. -1.
         -2   -1    0    0    0  501 -0.00000000000E+00 -0.00000000000E+00 -0.71230347175E+03  0.71230347175E+03  0.00000000000E+00 0.  1.
         23    2    1    2    0    0 -0.80478198289E+03  0.99020338103E+03  0.12034253832E+04  0.17563331666E+04  0.91086570981E+02 0.  0.
         11    1    3    3    0    0 -0.39294461690E+03  0.41186925635E+03  0.53965857422E+03  0.78439348099E+03  0.00000000000E+00 0. -1.
        -11    1    3    3    0    0 -0.41183736599E+03  0.57833412467E+03  0.66376680893E+03  0.97193968559E+03  0.00000000000E+00 0.  1.
         22    1    1    2    0    0  0.80478198289E+03 -0.99020338103E+03  0.49806021954E+03  0.13697593796E+04  0.00000000000E+00 0. -1.
<mgrwt>
<rscale>  0 0.26224800E+04</rscale>
<asrwt>0</asrwt>
<pdfrwt beam="1">  1        2 0.37135216E+00 0.26224800E+04</pdfrwt>
<pdfrwt beam="2">  1       -2 0.10958515E+00 0.26224800E+04</pdfrwt>
<totfact> 0.22848917E+00</totfact>
</mgrwt>
</event>
<event>
 6    1  0.9364335E-007  0.3112784E+04  0.7818608E-02  0.8212238E-01
          2   -1    0    0  501    0  0.00000000000E+00  0.00000000000E+00  0.27442140558E+04  0.27442140558E+04  0.00000000000E+00 0. -1.
         -2   -1    0    0    0  501 -0.00000000000E+00 -0.00000000000E+00 -0.88271414790E+03  0.88271414790E+03  0.00000000000E+00 0.  1.
         23    2    1    2    0    0 -0.91151303929E+03 -0.38020280885E+03 -0.46780600677E+03  0.10968933738E+04  0.94458545208E+02 0.  0.
         11    1    3    3    0    0 -0.51763204023E+03 -0.17327575395E+03 -0.28604946712E+03  0.61627243458E+03  0.00000000000E+00 0.  1.
        -11    1    3    3    0    0 -0.39388099906E+03 -0.20692705490E+03 -0.18175653965E+03  0.48062093918E+03  0.00000000000E+00 0. -1.
         22    1    1    2    0    0  0.91151303929E+03  0.38020280885E+03  0.23293059147E+04  0.25300348299E+04  0.00000000000E+00 0. -1.
<mgrwt>
<rscale>  0 0.31127843E+04</rscale>
<asrwt>0</asrwt>
<pdfrwt beam="1">  1        2 0.42218678E+00 0.31127843E+04</pdfrwt>
<pdfrwt beam="2">  1       -2 0.13580218E+00 0.31127843E+04</pdfrwt>
<totfact> 0.82310427E-01</totfact>
</mgrwt>
</event>
<event>
 6    1  0.9364335E-007  0.3346767E+04  0.7818608E-02  0.8151096E-01
         -1   -1    0    0    0  501 -0.00000000000E+00  0.00000000000E+00  0.16754624113E+04  0.16754624113E+04  0.00000000000E+00 0.  1.
          1   -1    0    0  501    0  0.00000000000E+00 -0.00000000000E+00 -0.16713076421E+04  0.16713076421E+04  0.00000000000E+00 0. -1.
         23    2    1    2    0    0  0.12700508992E+04  0.89184556601E+03 -0.62068282009E+03  0.16737967084E+04  0.89053118008E+02 0.  0.
         13    1    3    3    0    0  0.14266681240E+03  0.96057459470E+02 -0.39612149992E+02  0.17649356166E+03  0.00000000000E+00 0. -1.
        -13    1    3    3    0    0  0.11273840867E+04  0.79578810654E+03 -0.58107067010E+03  0.14973031467E+04  0.00000000000E+00 0.  1.
         22    1    1    2    0    0 -0.12700508992E+04 -0.89184556601E+03  0.62483758937E+03  0.16729733450E+04  0.00000000000E+00 0.  1.
<mgrwt>
<rscale>  0 0.33467675E+04</rscale>
<asrwt>0</asrwt>
<pdfrwt beam="1">  1        1 0.25712425E+00 0.33467675E+04</pdfrwt>
<pdfrwt beam="2">  1       -1 0.25776345E+00 0.33467675E+04</pdfrwt>
<totfact> 0.25565480E-01</totfact>
</mgrwt>
</event>
<event>
 6    1  0.9364335E-007  0.3841410E+04  0.7818608E-02  0.8037326E-01
          2   -1    0    0  501    0  0.00000000000E+00  0.00000000000E+00  0.20270876188E+04  0.20270876188E+04  0.00000000000E+00 0. -1.
         -2   -1    0    0    0  501 -0.00000000000E+00 -0.00000000000E+00 -0.18199055503E+04  0.18199055503E+04  0.00000000000E+00 0.  1.
         23    2    1    2    0    0 -0.93568663925E+03  0.91390792523E+03  0.15107831600E+04  0.20003440447E+04  0.90406625794E+02 0.  0.
         13    1    3    3    0    0 -0.47868180814E+03  0.43155750392E+03  0.80058877528E+03  0.10277745569E+04  0.00000000000E+00 0. -1.
        -13    1    3    3    0    0 -0.45700483111E+03  0.48235042132E+03  0.71019438475E+03  0.97256948787E+03  0.00000000000E+00 0.  1.
         22    1    1    2    0    0  0.93568663925E+03 -0.91390792523E+03 -0.13036010915E+04  0.18466491244E+04  0.00000000000E+00 0.  1.
<mgrwt>
<rscale>  0 0.38414102E+04</rscale>
<asrwt>0</asrwt>
<pdfrwt beam="1">  1        2 0.31185963E+00 0.38414102E+04</pdfrwt>
<pdfrwt beam="2">  1       -2 0.27998547E+00 0.38414102E+04</pdfrwt>
<totfact> 0.21721786E-01</totfact>
</mgrwt>
</event>
<event>
 6    1  0.9364335E-007  0.3221424E+04  0.7818608E-02  0.8183182E-01
          2   -1    0    0  501    0  0.00000000000E+00  0.00000000000E+00  0.26549492459E+04  0.26549492459E+04  0.00000000000E+00 0. -1.
         -2   -1    0    0    0  501 -0.00000000000E+00 -0.00000000000E+00 -0.97719129881E+03  0.97719129881E+03  0.00000000000E+00 0.  1.
         23    2    1    2    0    0 -0.15179473245E+04  0.82839105134E+02  0.24379817483E+03  0.15423398304E+04  0.91368512239E+02 0.  0.
         13    1    3    3    0    0 -0.93220071383E+03  0.93284050366E+02  0.13631024227E+03  0.94672095523E+03  0.00000000000E+00 0. -1.
        -13    1    3    3    0    0 -0.58574661066E+03 -0.10444945232E+02  0.10748793256E+03  0.59561887514E+03  0.00000000000E+00 0.  1.
         22    1    1    2    0    0  0.15179473245E+04 -0.82839105134E+02  0.14339597723E+04  0.20898007144E+04  0.00000000000E+00 0. -1.
<mgrwt>
<rscale>  0 0.32214241E+04</rscale>
<asrwt>0</asrwt>
<pdfrwt beam="1">  1        2 0.40845373E+00 0.32214241E+04</pdfrwt>
<pdfrwt beam="2">  1       -2 0.15033712E+00 0.32214241E+04</pdfrwt>
<totfact> 0.70685475E-01</totfact>
</mgrwt>
</event>
<event>
 6    1  0.9364335E-007  0.9952724E+03  0.7818608E-02  0.9313745E-01
         -1   -1    0    0    0  501 -0.00000000000E+00  0.00000000000E+00  0.31771893779E+03  0.31771893779E+03  0.00000000000E+00 0.  1.
          1   -1    0    0  501    0  0.00000000000E+00 -0.00000000000E+00 -0.77943658704E+03  0.77943658704E+03  0.00000000000E+00 0. -1.
         23    2    1    2    0    0 -0.34261794608E+03  0.10009703831E+02  0.15897863094E+03  0.38810607424E+03  0.88684094535E+02 0.  0.
         11    1    3    3    0    0 -0.53532074307E+02 -0.50304716042E+01  0.63685737617E+02  0.83347836205E+02  0.00000000000E+00 0.  1.
        -11    1    3    3    0    0 -0.28908587177E+03  0.15040175435E+02  0.95292893325E+02  0.30475823804E+03  0.00000000000E+00 0. -1.
         22    1    1    2    0    0  0.34261794608E+03 -0.10009703831E+02 -0.62069628019E+03  0.70904945059E+03  0.00000000000E+00 0. -1.
<mgrwt>
<rscale>  0 0.99527235E+03</rscale>
<asrwt>0</asrwt>
<pdfrwt beam="1">  1        1 0.11991332E+00 0.99527235E+03</pdfrwt>
<pdfrwt beam="2">  1       -1 0.48879837E-01 0.99527235E+03</pdfrwt>
<totfact> 0.96834591E+01</totfact>
</mgrwt>
</event>
<event>
 6    1  0.9364335E-007  0.8024619E+03  0.7818608E-02  0.9556460E-01
          1   -1    0    0  501    0  0.00000000000E+00  0.00000000000E+00  0.41393669670E+03  0.41393669670E+03  0.00000000000E+00 0. -1.
         -1   -1    0    0    0  501 -0.00000000000E+00 -0.00000000000E+00 -0.38891525280E+03  0.38891525280E+03  0.00000000000E+00 0.  1.
         23    2    1    2    0    0 -0.69427278926E+01  0.38412576905E+03  0.10848854634E+03  0.40970113225E+03  0.92111048004E+02 0.  0.
         11    1    3    3    0    0  0.11138855860E+02  0.16157098487E+02 -0.10872457660E+02  0.22435157163E+02  0.00000000000E+00 0.  1.
        -11    1    3    3    0    0 -0.18081583752E+02  0.36796867056E+03  0.11936100400E+03  0.38726597509E+03  0.00000000000E+00 0. -1.
         22    1    1    2    0    0  0.69427278926E+01 -0.38412576905E+03 -0.83467102442E+02  0.39315081725E+03  0.00000000000E+00 0.  1.
<mgrwt>
<rscale>  0 0.80246195E+03</rscale>
<asrwt>0</asrwt>
<pdfrwt beam="1">  1        1 0.63682569E-01 0.80246195E+03</pdfrwt>
<pdfrwt beam="2">  1       -1 0.59833116E-01 0.80246195E+03</pdfrwt>
<totfact> 0.16425745E+02</totfact>
</mgrwt>
</event>
<event>
 6    1  0.9364335E-007  0.2578687E+04  0.7818608E-02  0.8375477E-01
         -2   -1    0    0    0  501 -0.00000000000E+00  0.00000000000E+00  0.13871338309E+04  0.13871338309E+04  0.00000000000E+00 0.  1.
          2   -1    0    0  501    0  0.00000000000E+00 -0.00000000000E+00 -0.11984474176E+04  0.11984474176E+04  0.00000000000E+00 0. -1.
         23    2    1    2    0    0 -0.16327799751E+03 -0.10642983583E+04 -0.61343534985E+03  0.12429010845E+04  0.95443581900E+02 0.  0.
         11    1    3    3    0    0 -0.97064912867E+01 -0.33772196690E+03 -0.20911986861E+03  0.39734300340E+03  0.00000000000E+00 0.  1.
        -11    1    3    3    0    0 -0.15357150622E+03 -0.72657639141E+03 -0.40431548125E+03  0.84555808106E+03  0.00000000000E+00 0. -1.
         22    1    1    2    0    0  0.16327799751E+03  0.10642983583E+04  0.80212176321E+03  0.13426801641E+04  0.00000000000E+00 0.  1.
<mgrwt>
<rscale>  0 0.25786872E+04</rscale>
<asrwt>0</asrwt>
<pdfrwt beam="1">  1        2 0.18437653E+00 0.25786872E+04</pdfrwt>
<pdfrwt beam="2">  1       -2 0.21340520E+00 0.25786872E+04</pdfrwt>
<totfact> 0.18312812E+00</totfact>
</mgrwt>
</event>
<event>
 6    1  0.9364335E-007  0.3478669E+04  0.7818608E-02  0.8118864E-01
          1   -1    0    0  501    0  0.00000000000E+00  0.00000000000E+00  0.25141265971E+04  0.25141265971E+04  0.00000000000E+00 0. -1.
         -1   -1    0    0    0  501 -0.00000000000E+00 -0.00000000000E+00 -0.12033144420E+04  0.12033144420E+04  0.00000000000E+00 0.  1.
         23    2    1    2    0    0 -0.19411188836E+03 -0.10016864994E+04 -0.84792411424E+03  0.13297229759E+04  0.90181045012E+02 0.  0.
         11    1    3    3    0    0 -0.71064210700E+02 -0.29018413346E+03 -0.29918227473E+03  0.42280845175E+03  0.00000000000E+00 0. -1.
        -11    1    3    3    0    0 -0.12304767765E+03 -0.71150236598E+03 -0.54874183951E+03  0.90691452420E+03  0.00000000000E+00 0.  1.
         22    1    1    2    0    0  0.19411188836E+03  0.10016864994E+04  0.21587362693E+04  0.23877180631E+04  0.00000000000E+00 0. -1.
<mgrwt>
<rscale>  0 0.34786692E+04</rscale>
<asrwt>0</asrwt>
<pdfrwt beam="1">  1        1 0.38678871E+00 0.34786692E+04</pdfrwt>
<pdfrwt beam="2">  1       -1 0.18512530E+00 0.34786692E+04</pdfrwt>
<totfact> 0.20701829E-01</totfact>
</mgrwt>
</event>
<event>
 6    1  0.9364335E-007  0.1952055E+04  0.7818608E-02  0.8629370E-01
          2   -1    0    0  501    0  0.00000000000E+00  0.00000000000E+00  0.13229505662E+04  0.13229505662E+04  0.00000000000E+00 0. -1.
         -2   -1    0    0    0  501 -0.00000000000E+00 -0.00000000000E+00 -0.72007965630E+03  0.72007965630E+03  0.00000000000E+00 0.  1.
         23    2    1    2    0    0  0.39799588981E+03  0.47536025097E+03 -0.48422843639E+03  0.79156984150E+03  0.87963281333E+02 0.  0.
         11    1    3    3    0    0  0.29319388405E+03  0.28534865065E+03 -0.31131117201E+03  0.51410227766E+03  0.00000000000E+00 0.  1.
        -11    1    3    3    0    0  0.10480200576E+03  0.19001160032E+03 -0.17291726438E+03  0.27746756385E+03  0.00000000000E+00 0. -1.
         22    1    1    2    0    0 -0.39799588981E+03 -0.47536025097E+03  0.10870993463E+04  0.12514603810E+04  0.00000000000E+00 0. -1.
<mgrwt>
<rscale>  0 0.19520551E+04</rscale>
<asrwt>0</asrwt>
<pdfrwt beam="1">  1        2 0.20353086E+00 0.19520551E+04</pdfrwt>
<pdfrwt beam="2">  1       -2 0.11078149E+00 0.19520551E+04</pdfrwt>
<totfact> 0.96574272E+00</totfact>
</mgrwt>
</event>
<event>
 6    1  0.1053073E-006  0.2673225E+04  0.7818608E-02  0.8343745E-01
          1   -1    0    0  501    0  0.00000000000E+00  0.00000000000E+00  0.10209178081E+04  0.10209178081E+04  0.00000000000E+00 0. -1.
         -1   -1    0    0    0  501 -0.00000000000E+00 -0.00000000000E+00 -0.17499286170E+04  0.17499286170E+04  0.00000000000E+00 0.  1.
         23    2    1    2    0    0  0.49235333001E+03  0.42399700611E+03  0.84394119494E+03  0.10689759044E+04  0.91035602538E+02 0.  0.
         11    1    3    3    0    0  0.71155180052E+02  0.10776721156E+03  0.17856104233E+03  0.22036532707E+03  0.00000000000E+00 0. -1.
        -11    1    3    3    0    0  0.42119814996E+03  0.31622979455E+03  0.66538015262E+03  0.84861057735E+03  0.00000000000E+00 0.  1.
         22    1    1    2    0    0 -0.49235333001E+03 -0.42399700611E+03 -0.15729520039E+04  0.17018705207E+04  0.00000000000E+00 0.  1.
<mgrwt>
<rscale>  0 0.26732252E+04</rscale>
<asrwt>0</asrwt>
<pdfrwt beam="1">  1        1 0.15706428E+00 0.26732252E+04</pdfrwt>
<pdfrwt beam="2">  1       -1 0.26921978E+00 0.26732252E+04</pdfrwt>
<totfact> 0.66668184E-01</totfact>
</mgrwt>
</event>
<event>
 6    1  0.9364335E-007  0.3272856E+04  0.7818608E-02  0.8169837E-01
          2   -1    0    0  501    0  0.00000000000E+00  0.00000000000E+00  0.22851320992E+04  0.22851320992E+04  0.00000000000E+00 0. -1.
         -2   -1    0    0    0  501 -0.00000000000E+00 -0.00000000000E+00 -0.11718782614E+04  0.11718782614E+04  0.00000000000E+00 0.  1.
         23    2    1    2    0    0 -0.11514412945E+04 -0.47278936787E+03 -0.56291710680E+03  0.13692134651E+04  0.92320110424E+02 0.  0.
         11    1    3    3    0    0 -0.58270756466E+03 -0.18979157904E+03 -0.28295751786E+03  0.67500659723E+03  0.00000000000E+00 0.  1.
        -11    1    3    3    0    0 -0.56873372984E+03 -0.28299778883E+03 -0.27995958894E+03  0.69420686786E+03  0.00000000000E+00 0. -1.
         22    1    1    2    0    0  0.11514412945E+04  0.47278936787E+03  0.16761709446E+04  0.20877968954E+04  0.00000000000E+00 0. -1.
<mgrwt>
<rscale>  0 0.32728560E+04</rscale>
<asrwt>0</asrwt>
<pdfrwt beam="1">  1        2 0.35155879E+00 0.32728560E+04</pdfrwt>
<pdfrwt beam="2">  1       -2 0.18028896E+00 0.32728560E+04</pdfrwt>
<totfact> 0.69836996E-01</totfact>
</mgrwt>
</event>
<event>
 6    1  0.9364335E-007  0.1282052E+04  0.7818608E-02  0.9043920E-01
         -2   -1    0    0    0  501 -0.00000000000E+00  0.00000000000E+00  0.27395497452E+03  0.27395497452E+03  0.00000000000E+00 0.  1.
          2   -1    0    0  501    0  0.00000000000E+00 -0.00000000000E+00 -0.14999339852E+04  0.14999339852E+04  0.00000000000E+00 0. -1.
         23    2    1    2    0    0  0.18899578080E+03 -0.52858410827E+03 -0.10307103022E+04  0.11795402126E+04  0.11760451271E+03 0.  0.
         13    1    3    3    0    0  0.19491655637E+03 -0.44641966764E+03 -0.92602682376E+03  0.10463310480E+04  0.00000000000E+00 0. -1.
        -13    1    3    3    0    0 -0.59207755647E+01 -0.82164440633E+02 -0.10468347848E+03  0.13320916468E+03  0.00000000000E+00 0.  1.
         22    1    1    2    0    0 -0.18899578080E+03  0.52858410827E+03 -0.19526870847E+03  0.59434874711E+03  0.00000000000E+00 0.  1.
<mgrwt>
<rscale>  0 0.12820521E+04</rscale>
<asrwt>0</asrwt>
<pdfrwt beam="1">  1        2 0.23075907E+00 0.12820521E+04</pdfrwt>
<pdfrwt beam="2">  1       -2 0.42146919E-01 0.12820521E+04</pdfrwt>
<totfact> 0.66445103E+01</totfact>
</mgrwt>
</event>
<event>
 6    1  0.9364335E-007  0.3503446E+04  0.7818608E-02  0.8112974E-01
          1   -1    0    0  501    0  0.00000000000E+00  0.00000000000E+00  0.18265570407E+04  0.18265570407E+04  0.00000000000E+00 0. -1.
         -1   -1    0    0    0  501 -0.00000000000E+00 -0.00000000000E+00 -0.16799549778E+04  0.16799549778E+04  0.00000000000E+00 0.  1.
         23    2    1    2    0    0 -0.76052319969E+03  0.45389851845E+03  0.15844529935E+04  0.18177744128E+04  0.96918135254E+02 0.  0.
         13    1    3    3    0    0 -0.44585215579E+03  0.32049184852E+03  0.98908979093E+03  0.11312814788E+04  0.00000000000E+00 0. -1.
        -13    1    3    3    0    0 -0.31467104389E+03  0.13340666993E+03  0.59536320256E+03  0.68649293398E+03  0.00000000000E+00 0.  1.
         22    1    1    2    0    0  0.76052319969E+03 -0.45389851845E+03 -0.14378509306E+04  0.16887376057E+04  0.00000000000E+00 0.  1.
<mgrwt>
<rscale>  0 0.35034461E+04</rscale>
<asrwt>0</asrwt>
<pdfrwt beam="1">  1        1 0.28100878E+00 0.35034461E+04</pdfrwt>
<pdfrwt beam="2">  1       -1 0.25845461E+00 0.35034461E+04</pdfrwt>
<totfact> 0.19574073E-01</totfact>
</mgrwt>
</event>
<event>
 6    1  0.9364335E-007  0.1721343E+04  0.7818608E-02  0.8749284E-01
          2   -1    0    0  501    0  0.00000000000E+00  0.00000000000E+00  0.13131518856E+04  0.13131518856E+04  0.00000000000E+00 0. -1.
         -2   -1    0    0    0  501 -0.00000000000E+00 -0.00000000000E+00 -0.56410503417E+03  0.56410503417E+03  0.00000000000E+00 0.  1.
         23    2    1    2    0    0 -0.62683889889E+01 -0.36635519859E+03 -0.47084122127E+03  0.60352918822E+03  0.91107634984E+02 0.  0.
         11    1    3    3    0    0 -0.16334774803E+02 -0.14213028769E+03 -0.25355872404E+03  0.29113548407E+03  0.00000000000E+00 0. -1.
        -11    1    3    3    0    0  0.10066385814E+02 -0.22422491090E+03 -0.21728249723E+03  0.31239370415E+03  0.00000000000E+00 0.  1.
         22    1    1    2    0    0  0.62683889889E+01  0.36635519859E+03  0.12198880727E+04  0.12737277316E+04  0.00000000000E+00 0. -1.
<mgrwt>
<rscale>  0 0.17213432E+04</rscale>
<asrwt>0</asrwt>
<pdfrwt beam="1">  1        2 0.20202337E+00 0.17213432E+04</pdfrwt>
<pdfrwt beam="2">  1       -2 0.86785390E-01 0.17213432E+04</pdfrwt>
<totfact> 0.17730392E+01</totfact>
</mgrwt>
</event>
<event>
 6    1  0.9364335E-007  0.5169032E+04  0.7818608E-02  0.7802949E-01
          1   -1    0    0  501    0  0.00000000000E+00  0.00000000000E+00  0.20381856324E+04  0.20381856324E+04  0.00000000000E+00 0. -1.
         -1   -1    0    0    0  501 -0.00000000000E+00 -0.00000000000E+00 -0.32772889657E+04  0.32772889657E+04  0.00000000000E+00 0.  1.
         23    2    1    2    0    0 -0.81274680312E+03  0.20112671067E+04  0.82356369331E+03  0.23220905595E+04  0.89970379501E+02 0.  0.
         11    1    3    3    0    0 -0.16154758150E+03  0.45162804308E+03  0.14823856257E+03  0.50203603637E+03  0.00000000000E+00 0. -1.
        -11    1    3    3    0    0 -0.65119922163E+03  0.15596390636E+04  0.67532513074E+03  0.18200545231E+04  0.00000000000E+00 0.  1.
         22    1    1    2    0    0  0.81274680312E+03 -0.20112671067E+04 -0.20626670266E+04  0.29933840387E+04  0.00000000000E+00 0.  1.
<mgrwt>
<rscale>  0 0.51690321E+04</rscale>
<asrwt>0</asrwt>
<pdfrwt beam="1">  1        1 0.31356702E+00 0.51690321E+04</pdfrwt>
<pdfrwt beam="2">  1       -1 0.50419830E+00 0.51690321E+04</pdfrwt>
<totfact> 0.28206342E-03</totfact>
</mgrwt>
</event>
<event>
 6    1  0.9364335E-007  0.1119015E+04  0.7818608E-02  0.9186854E-01
          1   -1    0    0  501    0  0.00000000000E+00  0.00000000000E+00  0.44239471381E+03  0.44239471381E+03  0.00000000000E+00 0. -1.
         -1   -1    0    0    0  501 -0.00000000000E+00 -0.00000000000E+00 -0.70762301548E+03  0.70762301548E+03  0.00000000000E+00 0.  1.
         23    2    1    2    0    0 -0.39913501003E+02  0.11563995750E+03 -0.69071349768E+03  0.70729508546E+03  0.90639476565E+02 0.  0.
         13    1    3    3    0    0  0.28206118487E+02  0.49532829189E+02 -0.28205029007E+03  0.28775241514E+03  0.00000000000E+00 0. -1.
        -13    1    3    3    0    0 -0.68119619490E+02  0.66107128308E+02 -0.40866320761E+03  0.41954267032E+03  0.00000000000E+00 0.  1.
         22    1    1    2    0    0  0.39913501003E+02 -0.11563995750E+03  0.42548519601E+03  0.44272264382E+03  0.00000000000E+00 0. -1.
<mgrwt>
<rscale>  0 0.11190151E+04</rscale>
<asrwt>0</asrwt>
<pdfrwt beam="1">  1        1 0.68060726E-01 0.11190151E+04</pdfrwt>
<pdfrwt beam="2">  1       -1 0.10886508E+00 0.11190151E+04</pdfrwt>
<totfact> 0.40809610E+01</totfact>
</mgrwt>
</event>
<event>
 6    1  0.9364335E-007  0.1075314E+04  0.7818608E-02  0.9229593E-01
         -1   -1    0    0    0  501 -0.00000000000E+00  0.00000000000E+00  0.14384570378E+03  0.14384570378E+03  0.00000000000E+00 0.  1.
          1   -1    0    0  501    0  0.00000000000E+00 -0.00000000000E+00 -0.20096176606E+04  0.20096176606E+04  0.00000000000E+00 0. -1.
         23    2    1    2    0    0  0.23235334602E+03  0.25438783384E+03 -0.17560872630E+04  0.17918945888E+04  0.91337258132E+02 0.  0.
         13    1    3    3    0    0  0.20494577671E+02  0.68916725519E+02 -0.45897766925E+03  0.46457512164E+03  0.00000000000E+00 0. -1.
        -13    1    3    3    0    0  0.21185876835E+03  0.18547110833E+03 -0.12971095938E+04  0.13273194672E+04  0.00000000000E+00 0.  1.
         22    1    1    2    0    0 -0.23235334602E+03 -0.25438783384E+03 -0.10968469385E+03  0.36156877559E+03  0.00000000000E+00 0.  1.
<mgrwt>
<rscale>  0 0.10753137E+04</rscale>
<asrwt>0</asrwt>
<pdfrwt beam="1">  1        1 0.30917192E+00 0.10753137E+04</pdfrwt>
<pdfrwt beam="2">  1       -1 0.22130110E-01 0.10753137E+04</pdfrwt>
<totfact> 0.50701334E+01</totfact>
</mgrwt>
</event>
<event>
 6    1  0.9364335E-007  0.3386710E+04  0.7818608E-02  0.8141176E-01
         -2   -1    0    0    0  501 -0.00000000000E+00  0.00000000000E+00  0.12212056976E+04  0.12212056976E+04  0.00000000000E+00 0.  1.
          2   -1    0    0  501    0  0.00000000000E+00 -0.00000000000E+00 -0.23480488971E+04  0.23480488971E+04  0.00000000000E+00 0. -1.
         23    2    1    2    0    0 -0.10371166205E+03 -0.16527967994E+04 -0.93019360392E+03  0.19015722412E+04  0.90683398416E+02 0.  0.
         13    1    3    3    0    0 -0.83709020976E+02 -0.12248050970E+04 -0.64401845337E+03  0.13863313075E+04  0.00000000000E+00 0. -1.
        -13    1    3    3    0    0 -0.20002641075E+02 -0.42799170233E+03 -0.28617515055E+03  0.51524093365E+03  0.00000000000E+00 0.  1.
         22    1    1    2    0    0  0.10371166205E+03  0.16527967994E+04 -0.19664959557E+03  0.16676823535E+04  0.00000000000E+00 0. -1.
<mgrwt>
<rscale>  0 0.33867097E+04</rscale>
<asrwt>0</asrwt>
<pdfrwt beam="1">  1        2 0.36123829E+00 0.33867097E+04</pdfrwt>
<pdfrwt beam="2">  1       -2 0.18787780E+00 0.33867097E+04</pdfrwt>
<totfact> 0.56551003E-01</totfact>
</mgrwt>
</event>
<event>
 6    1  0.9364335E-007  0.3159123E+04  0.7818608E-02  0.8199697E-01
         -1   -1    0    0    0  501 -0.00000000000E+00  0.00000000000E+00  0.16601920747E+04  0.16601920747E+04  0.00000000000E+00 0.  1.
          1   -1    0    0  501    0  0.00000000000E+00 -0.00000000000E+00 -0.15028466302E+04  0.15028466302E+04  0.00000000000E+00 0. -1.
         23    2    1    2    0    0  0.26377458090E+03  0.78193666243E+02  0.16349779360E+04  0.16600120721E+04  0.82437547826E+02 0.  0.
         13    1    3    3    0    0  0.43136263783E+02 -0.16648786629E+02  0.31300311517E+03  0.31639985691E+03  0.00000000000E+00 0.  1.
        -13    1    3    3    0    0  0.22063831712E+03  0.94842452872E+02  0.13219748208E+04  0.13436122152E+04  0.00000000000E+00 0. -1.
         22    1    1    2    0    0 -0.26377458090E+03 -0.78193666243E+02 -0.14776324915E+04  0.15030266328E+04  0.00000000000E+00 0. -1.
<mgrwt>
<rscale>  0 0.31591227E+04</rscale>
<asrwt>0</asrwt>
<pdfrwt beam="1">  1        1 0.23120717E+00 0.31591227E+04</pdfrwt>
<pdfrwt beam="2">  1       -1 0.25541416E+00 0.31591227E+04</pdfrwt>
<totfact> 0.35138360E-01</totfact>
</mgrwt>
</event>
<event>
 6    1  0.9364335E-007  0.1016285E+04  0.7818608E-02  0.9290862E-01
          2   -1    0    0  501    0  0.00000000000E+00  0.00000000000E+00  0.26686703568E+04  0.26686703568E+04  0.00000000000E+00 0. -1.
         -2   -1    0    0    0  501 -0.00000000000E+00 -0.00000000000E+00 -0.96755535729E+02  0.96755535729E+02  0.00000000000E+00 0.  1.
         23    2    1    2    0    0 -0.84830174561E+02  0.23438687542E+03  0.24883361811E+04  0.25025214328E+04  0.93076343693E+02 0.  0.
         13    1    3    3    0    0 -0.96692169226E+02  0.20257025377E+03  0.19013072531E+04  0.19145112572E+04  0.00000000000E+00 0.  1.
        -13    1    3    3    0    0  0.11861994665E+02  0.31816621656E+02  0.58702892796E+03  0.58801017558E+03  0.00000000000E+00 0. -1.
         22    1    1    2    0    0  0.84830174561E+02 -0.23438687542E+03  0.83578640025E+02  0.26290445975E+03  0.00000000000E+00 0.  1.
<mgrwt>
<rscale>  0 0.10162847E+04</rscale>
<asrwt>0</asrwt>
<pdfrwt beam="1">  1        2 0.41056462E+00 0.10162847E+04</pdfrwt>
<pdfrwt beam="2">  1       -2 0.14885469E-01 0.10162847E+04</pdfrwt>
<totfact> 0.99878390E+01</totfact>
</mgrwt>
</event>
<event>
 6    1  0.9364335E-007  0.3027466E+04  0.7818608E-02  0.8235931E-01
          1   -1    0    0  501    0  0.00000000000E+00  0.00000000000E+00  0.10092646658E+04  0.10092646658E+04  0.00000000000E+00 0. -1.
         -1   -1    0    0    0  501 -0.00000000000E+00 -0.00000000000E+00 -0.22703539446E+04  0.22703539446E+04  0.00000000000E+00 0.  1.
         23    2    1    2    0    0  0.12302952379E+04 -0.85652518280E+03 -0.41468309002E+03  0.15580887101E+04  0.91742042859E+02 0.  0.
         11    1    3    3    0    0  0.87694833142E+03 -0.64206118003E+03 -0.33319927650E+03  0.11367949211E+04  0.00000000000E+00 0. -1.
        -11    1    3    3    0    0  0.35334690644E+03 -0.21446400278E+03 -0.81483813517E+02  0.42129378900E+03  0.00000000000E+00 0.  1.
         22    1    1    2    0    0 -0.12302952379E+04  0.85652518280E+03 -0.84640618873E+03  0.17215299002E+04  0.00000000000E+00 0.  1.
<mgrwt>
<rscale>  0 0.30274663E+04</rscale>
<asrwt>0</asrwt>
<pdfrwt beam="1">  1        1 0.15527149E+00 0.30274663E+04</pdfrwt>
<pdfrwt beam="2">  1       -1 0.34928522E+00 0.30274663E+04</pdfrwt>
<totfact> 0.19841059E-01</totfact>
</mgrwt>
</event>
<event>
 6    1  0.9364335E-007  0.1117178E+04  0.7818608E-02  0.9188609E-01
          1   -1    0    0  501    0  0.00000000000E+00  0.00000000000E+00  0.41148077305E+03  0.41148077305E+03  0.00000000000E+00 0. -1.
         -1   -1    0    0    0  501 -0.00000000000E+00 -0.00000000000E+00 -0.75828959104E+03  0.75828959104E+03  0.00000000000E+00 0.  1.
         23    2    1    2    0    0  0.20491451003E+02  0.13321858203E+03  0.38742526357E+03  0.42326733216E+03  0.10435424986E+03 0.  0.
         11    1    3    3    0    0 -0.38146706567E+02  0.49847374171E+02  0.97605218969E+02  0.11604615764E+03  0.00000000000E+00 0. -1.
        -11    1    3    3    0    0  0.58638157570E+02  0.83371207860E+02  0.28982004460E+03  0.30722117452E+03  0.00000000000E+00 0.  1.
         22    1    1    2    0    0 -0.20491451003E+02 -0.13321858203E+03 -0.73423408156E+03  0.74650303193E+03  0.00000000000E+00 0.  1.
<mgrwt>
<rscale>  0 0.11171778E+04</rscale>
<asrwt>0</asrwt>
<pdfrwt beam="1">  1        1 0.63304735E-01 0.11171778E+04</pdfrwt>
<pdfrwt beam="2">  1       -1 0.11665994E+00 0.11171778E+04</pdfrwt>
<totfact> 0.38145386E+01</totfact>
</mgrwt>
</event>
<event>
 6    1  0.9364335E-007  0.1807969E+04  0.7818608E-02  0.8702073E-01
         -2   -1    0    0    0  501 -0.00000000000E+00  0.00000000000E+00  0.66042369405E+03  0.66042369405E+03  0.00000000000E+00 0.  1.
          2   -1    0    0  501    0  0.00000000000E+00 -0.00000000000E+00 -0.12373686992E+04  0.12373686992E+04  0.00000000000E+00 0. -1.
         23    2    1    2    0    0  0.57814074961E+03 -0.57294955089E+03  0.11858475525E+03  0.82714793228E+03  0.87140366511E+02 0.  0.
         13    1    3    3    0    0  0.32034864309E+03 -0.31613279516E+03  0.10926921785E+03  0.46314464185E+03  0.00000000000E+00 0.  1.
        -13    1    3    3    0    0  0.25779210653E+03 -0.25681675572E+03  0.93155373979E+01  0.36400329043E+03  0.00000000000E+00 0. -1.
         22    1    1    2    0    0 -0.57814074961E+03  0.57294955089E+03 -0.69552976045E+03  0.10706444610E+04  0.00000000000E+00 0. -1.
<mgrwt>
<rscale>  0 0.18079686E+04</rscale>
<asrwt>0</asrwt>
<pdfrwt beam="1">  1        2 0.19036441E+00 0.18079686E+04</pdfrwt>
<pdfrwt beam="2">  1       -2 0.10160365E+00 0.18079686E+04</pdfrwt>
<totfact> 0.13504504E+01</totfact>
</mgrwt>
</event>
<event>
 6    1  0.9364335E-007  0.3564738E+04  0.7818608E-02  0.8098617E-01
         -2   -1    0    0    0  501 -0.00000000000E+00  0.00000000000E+00  0.97083941510E+03  0.97083941510E+03  0.00000000000E+00 0.  1.
          2   -1    0    0  501    0  0.00000000000E+00 -0.00000000000E+00 -0.32722608241E+04  0.32722608241E+04  0.00000000000E+00 0. -1.
         23    2    1    2    0    0  0.16584819569E+04  0.63803478047E+03 -0.10033758760E+04  0.20425155468E+04  0.86347135702E+02 0.  0.
         13    1    3    3    0    0  0.12774028365E+04  0.47086372301E+03 -0.80376314214E+03  0.15809825556E+04  0.00000000000E+00 0. -1.
        -13    1    3    3    0    0  0.38107912042E+03  0.16717105746E+03 -0.19961273384E+03  0.46153299122E+03  0.00000000000E+00 0.  1.
         22    1    1    2    0    0 -0.16584819569E+04 -0.63803478047E+03 -0.12980455330E+04  0.22005846924E+04  0.00000000000E+00 0.  1.
<mgrwt>
<rscale>  0 0.35647383E+04</rscale>
<asrwt>0</asrwt>
<pdfrwt beam="1">  1        2 0.50342475E+00 0.35647383E+04</pdfrwt>
<pdfrwt beam="2">  1       -2 0.14935991E+00 0.35647383E+04</pdfrwt>
<totfact> 0.28753822E-01</totfact>
</mgrwt>
</event>
<event>
 6    1  0.9364335E-007  0.2211873E+04  0.7818608E-02  0.8513503E-01
          2   -1    0    0  501    0  0.00000000000E+00  0.00000000000E+00  0.90643053705E+03  0.90643053705E+03  0.00000000000E+00 0. -1.
         -2   -1    0    0    0  501 -0.00000000000E+00 -0.00000000000E+00 -0.13493535375E+04  0.13493535375E+04  0.00000000000E+00 0.  1.
         23    2    1    2    0    0  0.47156057855E+03 -0.34889826045E+03  0.73257677502E+03  0.94204928491E+03  0.81784769455E+02 0.  0.
         11    1    3    3    0    0  0.10659167078E+03 -0.11907842732E+03  0.22487336024E+03  0.27587947418E+03  0.00000000000E+00 0. -1.
        -11    1    3    3    0    0  0.36496890777E+03 -0.22981983313E+03  0.50770341478E+03  0.66616981073E+03  0.00000000000E+00 0.  1.
         22    1    1    2    0    0 -0.47156057855E+03  0.34889826045E+03 -0.11754997755E+04  0.13137347896E+04  0.00000000000E+00 0.  1.
<mgrwt>
<rscale>  0 0.22118727E+04</rscale>
<asrwt>0</asrwt>
<pdfrwt beam="1">  1        2 0.13945085E+00 0.22118727E+04</pdfrwt>
<pdfrwt beam="2">  1       -2 0.20759285E+00 0.22118727E+04</pdfrwt>
<totfact> 0.31448626E+00</totfact>
</mgrwt>
</event>
<event>
 6    1  0.9364335E-007  0.2373948E+04  0.7818608E-02  0.8449322E-01
          1   -1    0    0  501    0  0.00000000000E+00  0.00000000000E+00  0.11193594182E+04  0.11193594182E+04  0.00000000000E+00 0. -1.
         -1   -1    0    0    0  501 -0.00000000000E+00 -0.00000000000E+00 -0.12586725400E+04  0.12586725400E+04  0.00000000000E+00 0.  1.
         23    2    1    2    0    0  0.64186603267E+03 -0.98061770899E+03  0.10702128106E+03  0.11804161045E+04  0.91244342853E+02 0.  0.
         13    1    3    3    0    0  0.24149235051E+03 -0.34362207065E+03 -0.32537507124E+01  0.42000627339E+03  0.00000000000E+00 0.  1.
        -13    1    3    3    0    0  0.40037368216E+03 -0.63699563834E+03  0.11027503177E+03  0.76040983112E+03  0.00000000000E+00 0. -1.
         22    1    1    2    0    0 -0.64186603267E+03  0.98061770899E+03 -0.24633440289E+03  0.11976158537E+04  0.00000000000E+00 0. -1.
<mgrwt>
<rscale>  0 0.23739477E+04</rscale>
<asrwt>0</asrwt>
<pdfrwt beam="1">  1        1 0.17220914E+00 0.23739477E+04</pdfrwt>
<pdfrwt beam="2">  1       -1 0.19364193E+00 0.23739477E+04</pdfrwt>
<totfact> 0.18347947E+00</totfact>
</mgrwt>
</event>
<event>
 6    1  0.9364335E-007  0.1416199E+04  0.7818608E-02  0.8942176E-01
          1   -1    0    0  501    0  0.00000000000E+00  0.00000000000E+00  0.13990789118E+04  0.13990789118E+04  0.00000000000E+00 0. -1.
         -1   -1    0    0    0  501 -0.00000000000E+00 -0.00000000000E+00 -0.35838193124E+03  0.35838193124E+03  0.00000000000E+00 0.  1.
         23    2    1    2    0    0 -0.79375718296E+02  0.46285533398E+03  0.11748883094E+04  0.12690523280E+04  0.97957678420E+02 0.  0.
         13    1    3    3    0    0 -0.49850909395E+02  0.10894348970E+03  0.22433949653E+03  0.25432657513E+03  0.00000000000E+00 0. -1.
        -13    1    3    3    0    0 -0.29524808901E+02  0.35391184429E+03  0.95054881285E+03  0.10147257528E+04  0.00000000000E+00 0.  1.
         22    1    1    2    0    0  0.79375718296E+02 -0.46285533398E+03 -0.13419132882E+03  0.48840851506E+03  0.00000000000E+00 0.  1.
<mgrwt>
<rscale>  0 0.14161986E+04</rscale>
<asrwt>0</asrwt>
<pdfrwt beam="1">  1        1 0.21524291E+00 0.14161986E+04</pdfrwt>
<pdfrwt beam="2">  1       -1 0.55135683E-01 0.14161986E+04</pdfrwt>
<totfact> 0.24912595E+01</totfact>
</mgrwt>
</event>
<event>
 6    1  0.9364335E-007  0.9790515E+03  0.7818608E-02  0.9331824E-01
          1   -1    0    0  501    0  0.00000000000E+00  0.00000000000E+00  0.30679231793E+03  0.30679231793E+03  0.00000000000E+00 0. -1.
         -1   -1    0    0    0  501 -0.00000000000E+00 -0.00000000000E+00 -0.78109989134E+03  0.78109989134E+03  0.00000000000E+00 0.  1.
         23    2    1    2    0    0 -0.37184859902E+03  0.29532695119E+03 -0.35215653352E+03  0.59757571430E+03  0.87138519238E+02 0.  0.
         11    1    3    3    0    0 -0.22609010009E+03  0.13179616233E+03 -0.21879282853E+03  0.34111180510E+03  0.00000000000E+00 0. -1.
        -11    1    3    3    0    0 -0.14575849893E+03  0.16353078886E+03 -0.13336370499E+03  0.25646390921E+03  0.00000000000E+00 0.  1.
         22    1    1    2    0    0  0.37184859902E+03 -0.29532695119E+03 -0.12215103989E+03  0.49031649497E+03  0.00000000000E+00 0. -1.
<mgrwt>
<rscale>  0 0.97905147E+03</rscale>
<asrwt>0</asrwt>
<pdfrwt beam="1">  1        1 0.47198819E-01 0.97905147E+03</pdfrwt>
<pdfrwt beam="2">  1       -1 0.12016921E+00 0.97905147E+03</pdfrwt>
<totfact> 0.52751200E+01</totfact>
</mgrwt>
</event>
<event>
 6    1  0.9364335E-007  0.2149396E+04  0.7818608E-02  0.8539791E-01
         -1   -1    0    0    0  501 -0.00000000000E+00  0.00000000000E+00  0.61616031262E+03  0.61616031262E+03  0.00000000000E+00 0.  1.
          1   -1    0    0  501    0  0.00000000000E+00 -0.00000000000E+00 -0.18744721521E+04  0.18744721521E+04  0.00000000000E+00 0. -1.
         23    2    1    2    0    0 -0.41885999731E+02  0.41864384493E+03  0.51299620844E+03  0.67004209166E+03  0.93670640261E+02 0.  0.
         11    1    3    3    0    0 -0.63631471801E+02  0.26042125148E+03  0.36020287291E+03  0.44901481276E+03  0.00000000000E+00 0. -1.
        -11    1    3    3    0    0  0.21745472069E+02  0.15822259346E+03  0.15279333553E+03  0.22102727890E+03  0.00000000000E+00 0.  1.
         22    1    1    2    0    0  0.41885999731E+02 -0.41864384493E+03 -0.17713080479E+04  0.18205903730E+04  0.00000000000E+00 0. -1.
<mgrwt>
<rscale>  0 0.21493956E+04</rscale>
<asrwt>0</asrwt>
<pdfrwt beam="1">  1        1 0.28838033E+00 0.21493956E+04</pdfrwt>
<pdfrwt beam="2">  1       -1 0.94793895E-01 0.21493956E+04</pdfrwt>
<totfact> 0.35722914E+00</totfact>
</mgrwt>
</event>
<event>
 6    1  0.9364335E-007  0.1219098E+04  0.7818608E-02  0.9096303E-01
          2   -1    0    0  501    0  0.00000000000E+00  0.00000000000E+00  0.32261392679E+04  0.32261392679E+04  0.00000000000E+00 0. -1.
         -2   -1    0    0    0  501 -0.00000000000E+00 -0.00000000000E+00 -0.11516854741E+03  0.11516854741E+03  0.00000000000E+00 0.  1.
         23    2    1    2    0    0 -0.48280994981E+03  0.32428449301E+03  0.20374694076E+04  0.21203774533E+04  0.80331050092E+02 0.  0.
         11    1    3    3    0    0 -0.23930822389E+03  0.11865079025E+03  0.85897307169E+03  0.89954498161E+03  0.00000000000E+00 0. -1.
        -11    1    3    3    0    0 -0.24350172591E+03  0.20563370276E+03  0.11784963359E+04  0.12208324717E+04  0.00000000000E+00 0.  1.
         22    1    1    2    0    0  0.48280994981E+03 -0.32428449301E+03  0.10735013128E+04  0.12209303619E+04  0.00000000000E+00 0.  1.
<mgrwt>
<rscale>  0 0.12190977E+04</rscale>
<asrwt>0</asrwt>
<pdfrwt beam="1">  1        2 0.49632905E+00 0.12190977E+04</pdfrwt>
<pdfrwt beam="2">  1       -2 0.17718241E-01 0.12190977E+04</pdfrwt>
<totfact> 0.33042064E+01</totfact>
</mgrwt>
</event>
<event>
 6    1  0.9364335E-007  0.9127940E+03  0.7818608E-02  0.9409728E-01
          1   -1    0    0  501    0  0.00000000000E+00  0.00000000000E+00  0.41649742927E+03  0.41649742927E+03  0.00000000000E+00 0. -1.
         -1   -1    0    0    0  501 -0.00000000000E+00 -0.00000000000E+00 -0.50011887012E+03  0.50011887012E+03  0.00000000000E+00 0.  1.
         23    2    1    2    0    0 -0.44718092063E+03  0.67859577811E+02 -0.24631089653E+02  0.46048522216E+03  0.82850776553E+02 0.  0.
         13    1    3    3    0    0 -0.20471403861E+03  0.36884964302E+02  0.29595349827E+02  0.21010526630E+03  0.00000000000E+00 0.  1.
        -13    1    3    3    0    0 -0.24246688203E+03  0.30974613509E+02 -0.54226439480E+02  0.25037995587E+03  0.00000000000E+00 0. -1.
         22    1    1    2    0    0  0.44718092063E+03 -0.67859577811E+02 -0.58990351195E+02  0.45613107723E+03  0.00000000000E+00 0.  1.
<mgrwt>
<rscale>  0 0.91279400E+03</rscale>
<asrwt>0</asrwt>
<pdfrwt beam="1">  1        1 0.64076528E-01 0.91279400E+03</pdfrwt>
<pdfrwt beam="2">  1       -1 0.76941364E-01 0.91279400E+03</pdfrwt>
<totfact> 0.97062992E+01</totfact>
</mgrwt>
</event>
<event>
 6    1  0.9364335E-007  0.1648669E+04  0.7818608E-02  0.8791194E-01
          2   -1    0    0  501    0  0.00000000000E+00  0.00000000000E+00  0.75844548606E+03  0.75844548606E+03  0.00000000000E+00 0. -1.
         -2   -1    0    0    0  501 -0.00000000000E+00 -0.00000000000E+00 -0.89594753454E+03  0.89594753454E+03  0.00000000000E+00 0.  1.
         23    2    1    2    0    0 -0.15041038646E+03  0.44436143331E+03 -0.74609233965E+03  0.88597743625E+03  0.90674530576E+02 0.  0.
         13    1    3    3    0    0 -0.54309502070E+02  0.13783696298E+03 -0.31748177582E+03  0.35034729678E+03  0.00000000000E+00 0.  1.
        -13    1    3    3    0    0 -0.96100884393E+02  0.30652447033E+03 -0.42861056382E+03  0.53563013948E+03  0.00000000000E+00 0. -1.
         22    1    1    2    0    0  0.15041038646E+03 -0.44436143331E+03  0.60859029116E+03  0.76841558435E+03  0.00000000000E+00 0. -1.
<mgrwt>
<rscale>  0 0.16486690E+04</rscale>
<asrwt>0</asrwt>
<pdfrwt beam="1">  1        2 0.11668392E+00 0.16486690E+04</pdfrwt>
<pdfrwt beam="2">  1       -2 0.13783808E+00 0.16486690E+04</pdfrwt>
<totfact> 0.13199102E+01</totfact>
</mgrwt>
</event>
<event>
 6    1  0.9364335E-007  0.2966415E+04  0.7818608E-02  0.8253387E-01
         -2   -1    0    0    0  501 -0.00000000000E+00  0.00000000000E+00  0.69267747564E+03  0.69267747564E+03  0.00000000000E+00 0.  1.
          2   -1    0    0  501    0  0.00000000000E+00 -0.00000000000E+00 -0.31759442264E+04  0.31759442264E+04  0.00000000000E+00 0. -1.
         23    2    1    2    0    0 -0.23897749985E+03 -0.14384796377E+04 -0.89940017878E+03  0.17157242982E+04  0.91952555169E+02 0.  0.
         13    1    3    3    0    0 -0.27797577013E+02 -0.41905286769E+03 -0.25228813959E+03  0.48992582763E+03  0.00000000000E+00 0.  1.
        -13    1    3    3    0    0 -0.21117992283E+03 -0.10194267700E+04 -0.64711203920E+03  0.12257984706E+04  0.00000000000E+00 0. -1.
         22    1    1    2    0    0  0.23897749985E+03  0.14384796377E+04 -0.15838665720E+04  0.21528974038E+04  0.00000000000E+00 0. -1.
<mgrwt>
<rscale>  0 0.29664154E+04</rscale>
<asrwt>0</asrwt>
<pdfrwt beam="1">  1        2 0.48860681E+00 0.29664154E+04</pdfrwt>
<pdfrwt beam="2">  1       -2 0.10656576E+00 0.29664154E+04</pdfrwt>
<totfact> 0.81807105E-01</totfact>
</mgrwt>
</event>
<event>
 6    1  0.9364335E-007  0.3602230E+04  0.7818608E-02  0.8089981E-01
          1   -1    0    0  501    0  0.00000000000E+00  0.00000000000E+00  0.22148322957E+04  0.22148322957E+04  0.00000000000E+00 0. -1.
         -1   -1    0    0    0  501 -0.00000000000E+00 -0.00000000000E+00 -0.14646778099E+04  0.14646778099E+04  0.00000000000E+00 0.  1.
         23    2    1    2    0    0 -0.32022627423E+03 -0.15981067566E+04 -0.40488319007E+03  0.16818609610E+04  0.90751431848E+02 0.  0.
         13    1    3    3    0    0 -0.32234139076E+03 -0.15122462495E+04 -0.39063681347E+03  0.15948008689E+04  0.00000000000E+00 0. -1.
        -13    1    3    3    0    0  0.21151165253E+01 -0.85860507086E+02 -0.14246376603E+02  0.87060092127E+02  0.00000000000E+00 0.  1.
         22    1    1    2    0    0  0.32022627423E+03  0.15981067566E+04  0.11550376759E+04  0.19976491446E+04  0.00000000000E+00 0. -1.
<mgrwt>
<rscale>  0 0.36022303E+04</rscale>
<asrwt>0</asrwt>
<pdfrwt beam="1">  1        1 0.34074343E+00 0.36022303E+04</pdfrwt>
<pdfrwt beam="2">  1       -1 0.22533505E+00 0.36022303E+04</pdfrwt>
<totfact> 0.17454355E-01</totfact>
</mgrwt>
</event>
<event>
 6    1  0.9364335E-007  0.3012730E+04  0.7818608E-02  0.8240105E-01
         -1   -1    0    0    0  501 -0.00000000000E+00  0.00000000000E+00  0.91338102677E+03  0.91338102677E+03  0.00000000000E+00 0.  1.
          1   -1    0    0  501    0  0.00000000000E+00 -0.00000000000E+00 -0.24843244622E+04  0.24843244622E+04  0.00000000000E+00 0. -1.
         23    2    1    2    0    0  0.13606966655E+04  0.61924328578E+03 -0.59073667409E+03  0.16100357887E+04  0.91037136815E+02 0.  0.
         13    1    3    3    0    0  0.67332520733E+03  0.35212045264E+03 -0.27991119331E+03  0.80975670675E+03  0.00000000000E+00 0. -1.
        -13    1    3    3    0    0  0.68737145815E+03  0.26712283314E+03 -0.31082548078E+03  0.80027908193E+03  0.00000000000E+00 0.  1.
         22    1    1    2    0    0 -0.13606966655E+04 -0.61924328578E+03 -0.98020676137E+03  0.17876697003E+04  0.00000000000E+00 0. -1.
<mgrwt>
<rscale>  0 0.30127295E+04</rscale>
<asrwt>0</asrwt>
<pdfrwt beam="1">  1        1 0.38220376E+00 0.30127295E+04</pdfrwt>
<pdfrwt beam="2">  1       -1 0.14052016E+00 0.30127295E+04</pdfrwt>
<totfact> 0.49002124E-01</totfact>
</mgrwt>
</event>
<event>
 6    1  0.9364335E-007  0.1427625E+04  0.7818608E-02  0.8934062E-01
         -2   -1    0    0    0  501 -0.00000000000E+00  0.00000000000E+00  0.22847801920E+03  0.22847801920E+03  0.00000000000E+00 0.  1.
          2   -1    0    0  501    0  0.00000000000E+00 -0.00000000000E+00 -0.22300970170E+04  0.22300970170E+04  0.00000000000E+00 0. -1.
         23    2    1    2    0    0  0.23568164616E+03 -0.23074132467E+03 -0.20895566900E+04  0.21172241391E+04  0.87198035198E+02 0.  0.
         13    1    3    3    0    0  0.16788891972E+03 -0.19474318932E+03 -0.14006772918E+04  0.14240816251E+04  0.00000000000E+00 0. -1.
        -13    1    3    3    0    0  0.67792726443E+02 -0.35998135351E+02 -0.68887939818E+03  0.69314251402E+03  0.00000000000E+00 0.  1.
         22    1    1    2    0    0 -0.23568164616E+03  0.23074132467E+03  0.87937692174E+02  0.34135089710E+03  0.00000000000E+00 0.  1.
<mgrwt>
<rscale>  0 0.14276248E+04</rscale>
<asrwt>0</asrwt>
<pdfrwt beam="1">  1        2 0.34309185E+00 0.14276248E+04</pdfrwt>
<pdfrwt beam="2">  1       -2 0.35150465E-01 0.14276248E+04</pdfrwt>
<totfact> 0.36709329E+01</totfact>
</mgrwt>
</event>
<event>
 6    1  0.9913369E-007  0.3644468E+04  0.7818608E-02  0.8080381E-01
          1   -1    0    0  501    0  0.00000000000E+00  0.00000000000E+00  0.20004479521E+04  0.20004479521E+04  0.00000000000E+00 0. -1.
         -1   -1    0    0    0  501 -0.00000000000E+00 -0.00000000000E+00 -0.16598964004E+04  0.16598964004E+04  0.00000000000E+00 0.  1.
         23    2    1    2    0    0 -0.34189599911E+03  0.67328285721E+03  0.18347720038E+04  0.19861587476E+04  0.90750123063E+02 0.  0.
         11    1    3    3    0    0 -0.21248857438E+03  0.44292711433E+03  0.12987406020E+04  0.13885470730E+04  0.00000000000E+00 0. -1.
        -11    1    3    3    0    0 -0.12940742473E+03  0.23035574288E+03  0.53603140180E+03  0.59761167456E+03  0.00000000000E+00 0.  1.
         22    1    1    2    0    0  0.34189599911E+03 -0.67328285721E+03 -0.14942204521E+04  0.16741856049E+04  0.00000000000E+00 0.  1.
<mgrwt>
<rscale>  0 0.36444678E+04</rscale>
<asrwt>0</asrwt>
<pdfrwt beam="1">  1        1 0.30776122E+00 0.36444678E+04</pdfrwt>
<pdfrwt beam="2">  1       -1 0.25536868E+00 0.36444678E+04</pdfrwt>
<totfact> 0.15438871E-01</totfact>
</mgrwt>
</event>
<event>
 6    1  0.9364335E-007  0.1934792E+04  0.7818608E-02  0.8637730E-01
          2   -1    0    0  501    0  0.00000000000E+00  0.00000000000E+00  0.12637572597E+04  0.12637572597E+04  0.00000000000E+00 0. -1.
         -2   -1    0    0    0  501 -0.00000000000E+00 -0.00000000000E+00 -0.74053355153E+03  0.74053355153E+03  0.00000000000E+00 0.  1.
         23    2    1    2    0    0 -0.42380910096E+03  0.30288802565E+03 -0.57960532755E+03  0.78462397468E+03  0.91307917398E+02 0.  0.
         13    1    3    3    0    0 -0.15610176830E+03  0.68443500719E+02 -0.15259494340E+03  0.22877388751E+03  0.00000000000E+00 0. -1.
        -13    1    3    3    0    0 -0.26770733266E+03  0.23444452493E+03 -0.42701038416E+03  0.55585008717E+03  0.00000000000E+00 0.  1.
         22    1    1    2    0    0  0.42380910096E+03 -0.30288802565E+03  0.11028290357E+04  0.12196668365E+04  0.00000000000E+00 0. -1.
<mgrwt>
<rscale>  0 0.19347916E+04</rscale>
<asrwt>0</asrwt>
<pdfrwt beam="1">  1        2 0.19442419E+00 0.19347916E+04</pdfrwt>
<pdfrwt beam="2">  1       -2 0.11392824E+00 0.19347916E+04</pdfrwt>
<totfact> 0.97832779E+00</totfact>
</mgrwt>
</event>
<event>
 6    1  0.9364335E-007  0.5000766E+03  0.7818608E-02  0.1013759E+00
         -1   -1    0    0    0  501 -0.00000000000E+00  0.00000000000E+00  0.46384367527E+03  0.46384367527E+03  0.00000000000E+00 0.  1.
          1   -1    0    0  501    0  0.00000000000E+00 -0.00000000000E+00 -0.13478493628E+03  0.13478493628E+03  0.00000000000E+00 0. -1.
         23    2    1    2    0    0  0.11723530334E+03 -0.20300709449E+03  0.23859450967E+03  0.34735232229E+03  0.93649874486E+02 0.  0.
         11    1    3    3    0    0  0.26845493360E+02 -0.13884671069E+03  0.14017802414E+03  0.19912048623E+03  0.00000000000E+00 0.  1.
        -11    1    3    3    0    0  0.90389809982E+02 -0.64160383795E+02  0.98416485532E+02  0.14823183606E+03  0.00000000000E+00 0. -1.
         22    1    1    2    0    0 -0.11723530334E+03  0.20300709449E+03  0.90464229314E+02  0.25127628926E+03  0.00000000000E+00 0. -1.
<mgrwt>
<rscale>  0 0.50007656E+03</rscale>
<asrwt>0</asrwt>
<pdfrwt beam="1">  1        1 0.20736144E-01 0.50007656E+03</pdfrwt>
<pdfrwt beam="2">  1       -1 0.71360565E-01 0.50007656E+03</pdfrwt>
<totfact> 0.50186869E+02</totfact>
</mgrwt>
</event>
<event>
 6    1  0.9364335E-007  0.2783575E+04  0.7818608E-02  0.8308386E-01
         -2   -1    0    0    0  501 -0.00000000000E+00  0.00000000000E+00  0.70482687755E+03  0.70482687755E+03  0.00000000000E+00 0.  1.
          2   -1    0    0  501    0  0.00000000000E+00 -0.00000000000E+00 -0.27482949067E+04  0.27482949067E+04  0.00000000000E+00 0. -1.
         23    2    1    2    0    0  0.33802180451E+03  0.10621398240E+04 -0.20536689816E+04  0.23384452367E+04  0.91488211851E+02 0.  0.
         13    1    3    3    0    0  0.26743521655E+03  0.70107696820E+03 -0.13614037605E+04  0.15544937149E+04  0.00000000000E+00 0.  1.
        -13    1    3    3    0    0  0.70586587953E+02  0.36106285585E+03 -0.69226522109E+03  0.78395152184E+03  0.00000000000E+00 0. -1.
         22    1    1    2    0    0 -0.33802180451E+03 -0.10621398240E+04  0.10200952486E+02  0.11146765475E+04  0.00000000000E+00 0.  1.
<mgrwt>
<rscale>  0 0.27835748E+04</rscale>
<asrwt>0</asrwt>
<pdfrwt beam="1">  1        2 0.42281459E+00 0.27835748E+04</pdfrwt>
<pdfrwt beam="2">  1       -2 0.10843491E+00 0.27835748E+04</pdfrwt>
<totfact> 0.14720363E+00</totfact>
</mgrwt>
</event>
<event>
 6    1  0.9364335E-007  0.2805260E+04  0.7818608E-02  0.8301637E-01
         -2   -1    0    0    0  501 -0.00000000000E+00  0.00000000000E+00  0.92640864776E+03  0.92640864776E+03  0.00000000000E+00 0.  1.
          2   -1    0    0  501    0  0.00000000000E+00 -0.00000000000E+00 -0.21236532218E+04  0.21236532218E+04  0.00000000000E+00 0. -1.
         23    2    1    2    0    0 -0.11113464238E+04 -0.20853446691E+03 -0.14990210717E+04  0.18797428736E+04  0.88270039513E+02 0.  0.
         11    1    3    3    0    0 -0.36276647228E+03 -0.89081151125E+02 -0.43630030770E+03  0.57436305888E+03  0.00000000000E+00 0.  1.
        -11    1    3    3    0    0 -0.74857995151E+03 -0.11945331579E+03 -0.10627207640E+04  0.13053798148E+04  0.00000000000E+00 0. -1.
         22    1    1    2    0    0  0.11113464238E+04  0.20853446691E+03  0.30177649773E+03  0.11703189959E+04  0.00000000000E+00 0.  1.
<mgrwt>
<rscale>  0 0.28052599E+04</rscale>
<asrwt>0</asrwt>
<pdfrwt beam="1">  1        2 0.32671588E+00 0.28052599E+04</pdfrwt>
<pdfrwt beam="2">  1       -2 0.14252441E+00 0.28052599E+04</pdfrwt>
<totfact> 0.16993968E+00</totfact>
</mgrwt>
</event>
<event>
 6    1  0.9364335E-007  0.1865959E+04  0.7818608E-02  0.8671989E-01
         -2   -1    0    0    0  501 -0.00000000000E+00  0.00000000000E+00  0.40919881212E+03  0.40919881212E+03  0.00000000000E+00 0.  1.
          2   -1    0    0  501    0  0.00000000000E+00 -0.00000000000E+00 -0.21272082016E+04  0.21272082016E+04  0.00000000000E+00 0. -1.
         23    2    1    2    0    0 -0.34125952112E+03 -0.41779161545E+03  0.16992899942E+03  0.57291032288E+03  0.91337169412E+02 0.  0.
         11    1    3    3    0    0 -0.67950614647E+02 -0.13783342299E+03  0.25054883980E+02  0.15570191307E+03  0.00000000000E+00 0.  1.
        -11    1    3    3    0    0 -0.27330890648E+03 -0.27995819247E+03  0.14487411544E+03  0.41720840981E+03  0.00000000000E+00 0. -1.
         22    1    1    2    0    0  0.34125952112E+03  0.41779161545E+03 -0.18879383889E+04  0.19634966909E+04  0.00000000000E+00 0. -1.
<mgrwt>
<rscale>  0 0.18659593E+04</rscale>
<asrwt>0</asrwt>
<pdfrwt beam="1">  1        2 0.32726280E+00 0.18659593E+04</pdfrwt>
<pdfrwt beam="2">  1       -2 0.62953664E-01 0.18659593E+04</pdfrwt>
<totfact> 0.12458914E+01</totfact>
</mgrwt>
</event>
<event>
 6    1  0.9364335E-007  0.3476823E+04  0.7818608E-02  0.8119305E-01
          1   -1    0    0  501    0  0.00000000000E+00  0.00000000000E+00  0.20625320517E+04  0.20625320517E+04  0.00000000000E+00 0. -1.
         -1   -1    0    0    0  501 -0.00000000000E+00 -0.00000000000E+00 -0.14652251430E+04  0.14652251430E+04  0.00000000000E+00 0.  1.
         23    2    1    2    0    0 -0.16684704923E+04  0.41992831485E+03  0.55226328663E+02  0.17238766752E+04  0.92559552736E+02 0.  0.
         13    1    3    3    0    0 -0.92468173852E+03  0.27843441492E+03  0.43033651402E+02  0.96665088637E+03  0.00000000000E+00 0. -1.
        -13    1    3    3    0    0 -0.74378875377E+03  0.14149389993E+03  0.12192677261E+02  0.75722578887E+03  0.00000000000E+00 0.  1.
         22    1    1    2    0    0  0.16684704923E+04 -0.41992831485E+03  0.54208058010E+03  0.18038805195E+04  0.00000000000E+00 0.  1.
<mgrwt>
<rscale>  0 0.34768226E+04</rscale>
<asrwt>0</asrwt>
<pdfrwt beam="1">  1        1 0.31731262E+00 0.34768226E+04</pdfrwt>
<pdfrwt beam="2">  1       -1 0.22541925E+00 0.34768226E+04</pdfrwt>
<totfact> 0.22366969E-01</totfact>
</mgrwt>
</event>
<event>
 6    1  0.9364335E-007  0.1731150E+04  0.7818608E-02  0.8743795E-01
         -1   -1    0    0    0  501 -0.00000000000E+00  0.00000000000E+00  0.68250470338E+03  0.68250470338E+03  0.00000000000E+00 0.  1.
          1   -1    0    0  501    0  0.00000000000E+00 -0.00000000000E+00 -0.10977507448E+04  0.10977507448E+04  0.00000000000E+00 0. -1.
         23    2    1    2    0    0  0.46841156801E+03  0.57265340346E+03 -0.66585451620E+03  0.99913706716E+03  0.87013359154E+02 0.  0.
         13    1    3    3    0    0  0.22971660287E+03  0.22183611113E+03 -0.31483574177E+03  0.44844455859E+03  0.00000000000E+00 0.  1.
        -13    1    3    3    0    0  0.23869496515E+03  0.35081729233E+03 -0.35101877443E+03  0.55069250856E+03  0.00000000000E+00 0. -1.
         22    1    1    2    0    0 -0.46841156801E+03 -0.57265340346E+03  0.25060847478E+03  0.78111838103E+03  0.00000000000E+00 0.  1.
<mgrwt>
<rscale>  0 0.17311500E+04</rscale>
<asrwt>0</asrwt>
<pdfrwt beam="1">  1        1 0.16888473E+00 0.17311500E+04</pdfrwt>
<pdfrwt beam="2">  1       -1 0.10500072E+00 0.17311500E+04</pdfrwt>
<totfact> 0.10286665E+01</totfact>
</mgrwt>
</event>
<event>
 6    1  0.9364335E-007  0.4394917E+04  0.7818608E-02  0.7929296E-01
          2   -1    0    0  501    0  0.00000000000E+00  0.00000000000E+00  0.19190907678E+04  0.19190907678E+04  0.00000000000E+00 0. -1.
         -2   -1    0    0    0  501 -0.00000000000E+00 -0.00000000000E+00 -0.25162044341E+04  0.25162044341E+04  0.00000000000E+00 0.  1.
         23    2    1    2    0    0 -0.12970150535E+04  0.12025107227E+04  0.10153423321E+04  0.20419096430E+04  0.10096955695E+03 0.  0.
         13    1    3    3    0    0 -0.45710115482E+03  0.39938523453E+03  0.29756226842E+03  0.67601282154E+03  0.00000000000E+00 0. -1.
        -13    1    3    3    0    0 -0.83991389869E+03  0.80312548821E+03  0.71778006364E+03  0.13658968214E+04  0.00000000000E+00 0.  1.
         22    1    1    2    0    0  0.12970150535E+04 -0.12025107227E+04 -0.16124559983E+04  0.23933855590E+04  0.00000000000E+00 0.  1.
<mgrwt>
<rscale>  0 0.43949174E+04</rscale>
<asrwt>0</asrwt>
<pdfrwt beam="1">  1        2 0.29524473E+00 0.43949174E+04</pdfrwt>
<pdfrwt beam="2">  1       -2 0.38710838E+00 0.43949174E+04</pdfrwt>
<totfact> 0.50994171E-02</totfact>
</mgrwt>
</event>
<event>
 6    1  0.9364335E-007  0.1687188E+04  0.7818608E-02  0.8768706E-01
          2   -1    0    0  501    0  0.00000000000E+00  0.00000000000E+00  0.88479797459E+03  0.88479797459E+03  0.00000000000E+00 0. -1.
         -2   -1    0    0    0  501 -0.00000000000E+00 -0.00000000000E+00 -0.80430854400E+03  0.80430854400E+03  0.00000000000E+00 0.  1.
         23    2    1    2    0    0 -0.22609151756E+03  0.54192084752E+03 -0.56250604672E+03  0.81833745441E+03  0.92019331688E+02 0.  0.
         13    1    3    3    0    0 -0.12682134863E+03  0.40651321907E+03 -0.38628313322E+03  0.57493591883E+03  0.00000000000E+00 0.  1.
        -13    1    3    3    0    0 -0.99270168930E+02  0.13540762845E+03 -0.17622291350E+03  0.24340153558E+03  0.00000000000E+00 0. -1.
         22    1    1    2    0    0  0.22609151756E+03 -0.54192084752E+03  0.64299547731E+03  0.87076906418E+03  0.00000000000E+00 0. -1.
<mgrwt>
<rscale>  0 0.16871877E+04</rscale>
<asrwt>0</asrwt>
<pdfrwt beam="1">  1        2 0.13612277E+00 0.16871877E+04</pdfrwt>
<pdfrwt beam="2">  1       -2 0.12373978E+00 0.16871877E+04</pdfrwt>
<totfact> 0.14066860E+01</totfact>
</mgrwt>
</event>
<event>
 6    1  0.9364335E-007  0.2510248E+04  0.7818608E-02  0.8399344E-01
          1   -1    0    0  501    0  0.00000000000E+00  0.00000000000E+00  0.91193955202E+03  0.91193955202E+03  0.00000000000E+00 0. -1.
         -1   -1    0    0    0  501 -0.00000000000E+00 -0.00000000000E+00 -0.17274565822E+04  0.17274565822E+04  0.00000000000E+00 0.  1.
         23    2    1    2    0    0  0.50059762080E+03 -0.10542254124E+04  0.72697981341E+02  0.11727962894E+04  0.90426443899E+02 0.  0.
         11    1    3    3    0    0  0.11461821762E+02 -0.51615366214E+02 -0.11330602077E+02  0.54073116527E+02  0.00000000000E+00 0. -1.
        -11    1    3    3    0    0  0.48913579903E+03 -0.10026100462E+04  0.84028583418E+02  0.11187231729E+04  0.00000000000E+00 0.  1.
         22    1    1    2    0    0 -0.50059762080E+03  0.10542254124E+04 -0.88821501153E+03  0.14665998448E+04  0.00000000000E+00 0.  1.
<mgrwt>
<rscale>  0 0.25102478E+04</rscale>
<asrwt>0</asrwt>
<pdfrwt beam="1">  1        1 0.14029839E+00 0.25102478E+04</pdfrwt>
<pdfrwt beam="2">  1       -1 0.26576255E+00 0.25102478E+04</pdfrwt>
<totfact> 0.86928407E-01</totfact>
</mgrwt>
</event>
<event>
 6    1  0.9364335E-007  0.2175015E+04  0.7818608E-02  0.8528900E-01
         -2   -1    0    0    0  501 -0.00000000000E+00  0.00000000000E+00  0.32438558046E+03  0.32438558046E+03  0.00000000000E+00 0.  1.
          2   -1    0    0  501    0  0.00000000000E+00 -0.00000000000E+00 -0.36458840957E+04  0.36458840957E+04  0.00000000000E+00 0. -1.
         23    2    1    2    0    0  0.76909501256E+03  0.40012343408E+03 -0.28564979711E+04  0.29864854483E+04  0.88931284982E+02 0.  0.
         11    1    3    3    0    0  0.43350051990E+03  0.17666320661E+03 -0.15027038255E+04  0.15739286440E+04  0.00000000000E+00 0.  1.
        -11    1    3    3    0    0  0.33559449266E+03  0.22346022747E+03 -0.13537941456E+04  0.14125568043E+04  0.00000000000E+00 0. -1.
         22    1    1    2    0    0 -0.76909501256E+03 -0.40012343408E+03 -0.46500054414E+03  0.98378422782E+03  0.00000000000E+00 0.  1.
<mgrwt>
<rscale>  0 0.21750147E+04</rscale>
<asrwt>0</asrwt>
<pdfrwt beam="1">  1        2 0.56090522E+00 0.21750147E+04</pdfrwt>
<pdfrwt beam="2">  1       -2 0.49905476E-01 0.21750147E+04</pdfrwt>
<totfact> 0.22359368E+00</totfact>
</mgrwt>
</event>
<event>
 6    1  0.9364335E-007  0.2077219E+04  0.7818608E-02  0.8571345E-01
          1   -1    0    0  501    0  0.00000000000E+00  0.00000000000E+00  0.19304835157E+04  0.19304835157E+04  0.00000000000E+00 0. -1.
         -1   -1    0    0    0  501 -0.00000000000E+00 -0.00000000000E+00 -0.55877714586E+03  0.55877714586E+03  0.00000000000E+00 0.  1.
         23    2    1    2    0    0 -0.40924391896E+03  0.41070296833E+03 -0.34259339040E+03  0.67956975387E+03  0.91034640789E+02 0.  0.
         11    1    3    3    0    0 -0.22207736408E+03  0.25600383460E+03 -0.15471441043E+03  0.37254914811E+03  0.00000000000E+00 0.  1.
        -11    1    3    3    0    0 -0.18716655489E+03  0.15469913374E+03 -0.18787897997E+03  0.30702060576E+03  0.00000000000E+00 0. -1.
         22    1    1    2    0    0  0.40924391896E+03 -0.41070296833E+03  0.17142997603E+04  0.18096909077E+04  0.00000000000E+00 0. -1.
<mgrwt>
<rscale>  0 0.20772194E+04</rscale>
<asrwt>0</asrwt>
<pdfrwt beam="1">  1        1 0.29699746E+00 0.20772194E+04</pdfrwt>
<pdfrwt beam="2">  1       -1 0.85965716E-01 0.20772194E+04</pdfrwt>
<totfact> 0.40887959E+00</totfact>
</mgrwt>
</event>
<event>
 6    1  0.9364335E-007  0.1977416E+04  0.7818608E-02  0.8617253E-01
          2   -1    0    0  501    0  0.00000000000E+00  0.00000000000E+00  0.18974223424E+04  0.18974223424E+04  0.00000000000E+00 0. -1.
         -2   -1    0    0    0  501 -0.00000000000E+00 -0.00000000000E+00 -0.51519555114E+03  0.51519555114E+03  0.00000000000E+00 0.  1.
         23    2    1    2    0    0 -0.74208085716E+03  0.14451049720E+03 -0.80900524040E+02  0.76570902444E+03  0.90543541744E+02 0.  0.
         13    1    3    3    0    0 -0.24263918028E+03  0.60426929728E+02 -0.67758687837E+02  0.25906837981E+03  0.00000000000E+00 0.  1.
        -13    1    3    3    0    0 -0.49944167689E+03  0.84083567476E+02 -0.13141836202E+02  0.50664064463E+03  0.00000000000E+00 0. -1.
         22    1    1    2    0    0  0.74208085716E+03 -0.14451049720E+03  0.14631273153E+04  0.16469088691E+04  0.00000000000E+00 0. -1.
<mgrwt>
<rscale>  0 0.19774160E+04</rscale>
<asrwt>0</asrwt>
<pdfrwt beam="1">  1        2 0.29191113E+00 0.19774160E+04</pdfrwt>
<pdfrwt beam="2">  1       -2 0.79260855E-01 0.19774160E+04</pdfrwt>
<totfact> 0.10007743E+01</totfact>
</mgrwt>
</event>
<event>
 6    1  0.9364335E-007  0.6915901E+03  0.7818608E-02  0.9731723E-01
          2   -1    0    0  501    0  0.00000000000E+00  0.00000000000E+00  0.12427382051E+04  0.12427382051E+04  0.00000000000E+00 0. -1.
         -2   -1    0    0    0  501 -0.00000000000E+00 -0.00000000000E+00 -0.96218335314E+02  0.96218335314E+02  0.00000000000E+00 0.  1.
         23    2    1    2    0    0 -0.25839847933E+03 -0.17328436121E+03  0.31903076684E+03  0.45491159842E+03  0.91469602764E+02 0.  0.
         13    1    3    3    0    0 -0.12228481470E+03 -0.56069618623E+02  0.19389692394E+03  0.23599448119E+03  0.00000000000E+00 0. -1.
        -13    1    3    3    0    0 -0.13611366463E+03 -0.11721474259E+03  0.12513384290E+03  0.21891711723E+03  0.00000000000E+00 0.  1.
         22    1    1    2    0    0  0.25839847933E+03  0.17328436121E+03  0.82748910294E+03  0.88404494198E+03  0.00000000000E+00 0. -1.
<mgrwt>
<rscale>  0 0.69159006E+03</rscale>
<asrwt>0</asrwt>
<pdfrwt beam="1">  1        2 0.19119048E+00 0.69159006E+03</pdfrwt>
<pdfrwt beam="2">  1       -2 0.14802822E-01 0.69159006E+03</pdfrwt>
<totfact> 0.64667825E+02</totfact>
</mgrwt>
</event>
<event>
 6    1  0.9364335E-007  0.2598612E+04  0.7818608E-02  0.8368673E-01
          2   -1    0    0  501    0  0.00000000000E+00  0.00000000000E+00  0.21696082045E+04  0.21696082045E+04  0.00000000000E+00 0. -1.
         -2   -1    0    0    0  501 -0.00000000000E+00 -0.00000000000E+00 -0.77811103114E+03  0.77811103114E+03  0.00000000000E+00 0.  1.
         23    2    1    2    0    0  0.12878455457E+04 -0.38954775966E+01  0.51506918376E+03  0.13899364057E+04  0.89808815319E+02 0.  0.
         11    1    3    3    0    0  0.10775859764E+04 -0.10219573758E+01  0.46586398080E+03  0.11739769289E+04  0.00000000000E+00 0. -1.
        -11    1    3    3    0    0  0.21025956928E+03 -0.28735202207E+01  0.49205202957E+02  0.21595947673E+03  0.00000000000E+00 0.  1.
         22    1    1    2    0    0 -0.12878455457E+04  0.38954775966E+01  0.87642798958E+03  0.15577828300E+04  0.00000000000E+00 0. -1.
<mgrwt>
<rscale>  0 0.25986120E+04</rscale>
<asrwt>0</asrwt>
<pdfrwt beam="1">  1        2 0.33378587E+00 0.25986120E+04</pdfrwt>
<pdfrwt beam="2">  1       -2 0.11970939E+00 0.25986120E+04</pdfrwt>
<totfact> 0.25381743E+00</totfact>
</mgrwt>
</event>
<event>
 6    1  0.9364335E-007  0.2337976E+04  0.7818608E-02  0.8463096E-01
          1   -1    0    0  501    0  0.00000000000E+00  0.00000000000E+00  0.14608496681E+04  0.14608496681E+04  0.00000000000E+00 0. -1.
         -1   -1    0    0    0  501 -0.00000000000E+00 -0.00000000000E+00 -0.93543730195E+03  0.93543730195E+03  0.00000000000E+00 0.  1.
         23    2    1    2    0    0 -0.64722351743E+03 -0.91519777398E+03  0.59707987066E+03  0.12730677225E+04  0.87816894751E+02 0.  0.
         13    1    3    3    0    0 -0.49972509164E+03 -0.72176399933E+03  0.42673443188E+03  0.97609974557E+03  0.00000000000E+00 0. -1.
        -13    1    3    3    0    0 -0.14749842579E+03 -0.19343377465E+03  0.17034543878E+03  0.29696797689E+03  0.00000000000E+00 0.  1.
         22    1    1    2    0    0  0.64722351743E+03  0.91519777398E+03 -0.71667504476E+02  0.11232192476E+04  0.00000000000E+00 0. -1.
<mgrwt>
<rscale>  0 0.23379763E+04</rscale>
<asrwt>0</asrwt>
<pdfrwt beam="1">  1        1 0.22474610E+00 0.23379763E+04</pdfrwt>
<pdfrwt beam="2">  1       -1 0.14391343E+00 0.23379763E+04</pdfrwt>
<totfact> 0.24460123E+00</totfact>
</mgrwt>
</event>
<event>
 6    1  0.9364335E-007  0.1065219E+04  0.7818608E-02  0.9239771E-01
          1   -1    0    0  501    0  0.00000000000E+00  0.00000000000E+00  0.16113139801E+04  0.16113139801E+04  0.00000000000E+00 0. -1.
         -1   -1    0    0    0  501 -0.00000000000E+00 -0.00000000000E+00 -0.17605057551E+03  0.17605057551E+03  0.00000000000E+00 0.  1.
         23    2    1    2    0    0  0.45773273635E+03 -0.14305695082E+03  0.35036625234E+03  0.60119998858E+03  0.93275754566E+02 0.  0.
         11    1    3    3    0    0  0.19654637933E+03 -0.57783994430E+02  0.93941478260E+02  0.22537628663E+03  0.00000000000E+00 0. -1.
        -11    1    3    3    0    0  0.26118635703E+03 -0.85272956392E+02  0.25642477408E+03  0.37582370195E+03  0.00000000000E+00 0.  1.
         22    1    1    2    0    0 -0.45773273635E+03  0.14305695082E+03  0.10848971522E+04  0.11861645670E+04  0.00000000000E+00 0. -1.
<mgrwt>
<rscale>  0 0.10652188E+04</rscale>
<asrwt>0</asrwt>
<pdfrwt beam="1">  1        1 0.24789445E+00 0.10652188E+04</pdfrwt>
<pdfrwt beam="2">  1       -1 0.27084705E-01 0.10652188E+04</pdfrwt>
<totfact> 0.66795427E+01</totfact>
</mgrwt>
</event>
<event>
 6    1  0.9364335E-007  0.1764188E+04  0.7818608E-02  0.8725579E-01
         -2   -1    0    0    0  501 -0.00000000000E+00  0.00000000000E+00  0.31231103473E+03  0.31231103473E+03  0.00000000000E+00 0.  1.
          2   -1    0    0  501    0  0.00000000000E+00 -0.00000000000E+00 -0.24913949031E+04  0.24913949031E+04  0.00000000000E+00 0. -1.
         23    2    1    2    0    0 -0.47600414039E+03 -0.21556345322E+03  0.32324518389E+02  0.53139992916E+03  0.91068469789E+02 0.  0.
         11    1    3    3    0    0 -0.27965015545E+03 -0.12031558126E+03 -0.25889672426E+02  0.30553285204E+03  0.00000000000E+00 0.  1.
        -11    1    3    3    0    0 -0.19635398494E+03 -0.95247871960E+02  0.58214190815E+02  0.22586707712E+03  0.00000000000E+00 0. -1.
         22    1    1    2    0    0  0.47600414039E+03  0.21556345322E+03 -0.22114083868E+04  0.22723060087E+04  0.00000000000E+00 0. -1.
<mgrwt>
<rscale>  0 0.17641883E+04</rscale>
<asrwt>0</asrwt>
<pdfrwt beam="1">  1        2 0.38329152E+00 0.17641883E+04</pdfrwt>
<pdfrwt beam="2">  1       -2 0.48047852E-01 0.17641883E+04</pdfrwt>
<totfact> 0.13699246E+01</totfact>
</mgrwt>
</event>
<event>
 6    1  0.9364335E-007  0.2514299E+04  0.7818608E-02  0.8397909E-01
          2   -1    0    0  501    0  0.00000000000E+00  0.00000000000E+00  0.45423621023E+04  0.45423621023E+04  0.00000000000E+00 0. -1.
         -2   -1    0    0    0  501 -0.00000000000E+00 -0.00000000000E+00 -0.34793015598E+03  0.34793015598E+03  0.00000000000E+00 0.  1.
         23    2    1    2    0    0 -0.46372326797E+03  0.10952232609E+04  0.28822134978E+04  0.31192839248E+04  0.90687906721E+02 0.  0.
         13    1    3    3    0    0 -0.33159073966E+03  0.67199344806E+03  0.18276246710E+04  0.19752821447E+04  0.00000000000E+00 0. -1.
        -13    1    3    3    0    0 -0.13213252831E+03  0.42322981285E+03  0.10545888268E+04  0.11440017802E+04  0.00000000000E+00 0.  1.
         22    1    1    2    0    0  0.46372326797E+03 -0.10952232609E+04  0.13122184486E+04  0.17710083335E+04  0.00000000000E+00 0.  1.
<mgrwt>
<rscale>  0 0.25142989E+04</rscale>
<asrwt>0</asrwt>
<pdfrwt beam="1">  1        2 0.69882490E+00 0.25142989E+04</pdfrwt>
<pdfrwt beam="2">  1       -2 0.53527719E-01 0.25142989E+04</pdfrwt>
<totfact> 0.32941447E-01</totfact>
</mgrwt>
</event>
<event>
 6    1  0.9364335E-007  0.1653404E+04  0.7818608E-02  0.8788395E-01
          2   -1    0    0  501    0  0.00000000000E+00  0.00000000000E+00  0.10626647716E+04  0.10626647716E+04  0.00000000000E+00 0. -1.
         -2   -1    0    0    0  501 -0.00000000000E+00 -0.00000000000E+00 -0.64313461001E+03  0.64313461001E+03  0.00000000000E+00 0.  1.
         23    2    1    2    0    0 -0.44473806354E+03  0.21372514829E+03  0.89126216181E+03  0.10231563825E+04  0.95028195252E+02 0.  0.
         13    1    3    3    0    0 -0.25513734622E+03  0.10334867088E+03  0.40501160898E+03  0.48970441760E+03  0.00000000000E+00 0. -1.
        -13    1    3    3    0    0 -0.18960071732E+03  0.11037647742E+03  0.48625055283E+03  0.53345196494E+03  0.00000000000E+00 0.  1.
         22    1    1    2    0    0  0.44473806354E+03 -0.21372514829E+03 -0.47173200021E+03  0.68264299908E+03  0.00000000000E+00 0.  1.
<mgrwt>
<rscale>  0 0.16534044E+04</rscale>
<asrwt>0</asrwt>
<pdfrwt beam="1">  1        2 0.16348689E+00 0.16534044E+04</pdfrwt>
<pdfrwt beam="2">  1       -2 0.98943786E-01 0.16534044E+04</pdfrwt>
<totfact> 0.18595055E+01</totfact>
</mgrwt>
</event>
<event>
 6    1  0.9364335E-007  0.2279517E+04  0.7818608E-02  0.8486041E-01
         -2   -1    0    0    0  501 -0.00000000000E+00  0.00000000000E+00  0.48660406484E+03  0.48660406484E+03  0.00000000000E+00 0.  1.
          2   -1    0    0  501    0  0.00000000000E+00 -0.00000000000E+00 -0.26696233762E+04  0.26696233762E+04  0.00000000000E+00 0. -1.
         23    2    1    2    0    0  0.55930156707E+03 -0.85139945263E+03 -0.39098727478E+03  0.10948982361E+04  0.90729419645E+02 0.  0.
         13    1    3    3    0    0  0.34415637590E+03 -0.60069709987E+03 -0.25989124013E+03  0.73947553953E+03  0.00000000000E+00 0.  1.
        -13    1    3    3    0    0  0.21514519117E+03 -0.25070235276E+03 -0.13109603465E+03  0.35542269661E+03  0.00000000000E+00 0. -1.
         22    1    1    2    0    0 -0.55930156707E+03  0.85139945263E+03 -0.17920320366E+04  0.20613292049E+04  0.00000000000E+00 0. -1.
<mgrwt>
<rscale>  0 0.22795171E+04</rscale>
<asrwt>0</asrwt>
<pdfrwt beam="1">  1        2 0.41071129E+00 0.22795171E+04</pdfrwt>
<pdfrwt beam="2">  1       -2 0.74862164E-01 0.22795171E+04</pdfrwt>
<totfact> 0.40315722E+00</totfact>
</mgrwt>
</event>
<event>
 6    1  0.9364335E-007  0.4199559E+04  0.7818608E-02  0.7965456E-01
          1   -1    0    0  501    0  0.00000000000E+00  0.00000000000E+00  0.21756070265E+04  0.21756070265E+04  0.00000000000E+00 0. -1.
         -1   -1    0    0    0  501 -0.00000000000E+00 -0.00000000000E+00 -0.20265951299E+04  0.20265951299E+04  0.00000000000E+00 0.  1.
         23    2    1    2    0    0 -0.13000323842E+04 -0.10142795450E+04  0.13736475529E+04  0.21482840262E+04  0.96795982090E+02 0.  0.
         13    1    3    3    0    0 -0.87707302912E+03 -0.63811422582E+03  0.86587820971E+03  0.13878731706E+04  0.00000000000E+00 0.  1.
        -13    1    3    3    0    0 -0.42295935510E+03 -0.37616531916E+03  0.50776934315E+03  0.76041085556E+03  0.00000000000E+00 0. -1.
         22    1    1    2    0    0  0.13000323842E+04  0.10142795450E+04 -0.12246356562E+04  0.20539181303E+04  0.00000000000E+00 0.  1.
<mgrwt>
<rscale>  0 0.41995593E+04</rscale>
<asrwt>0</asrwt>
<pdfrwt beam="1">  1        1 0.33470877E+00 0.41995593E+04</pdfrwt>
<pdfrwt beam="2">  1       -1 0.31178387E+00 0.41995593E+04</pdfrwt>
<totfact> 0.48257480E-02</totfact>
</mgrwt>
</event>
<event>
 6    1  0.9364335E-007  0.2525443E+04  0.7818608E-02  0.8393977E-01
          2   -1    0    0  501    0  0.00000000000E+00  0.00000000000E+00  0.27702103111E+04  0.27702103111E+04  0.00000000000E+00 0. -1.
         -2   -1    0    0    0  501 -0.00000000000E+00 -0.00000000000E+00 -0.57557567292E+03  0.57557567292E+03  0.00000000000E+00 0.  1.
         23    2    1    2    0    0  0.41987044597E+03  0.69150813881E+03  0.23803698059E+04  0.25157424611E+04  0.91241548297E+02 0.  0.
         11    1    3    3    0    0  0.22913102262E+03  0.36520099033E+03  0.14067389582E+04  0.14713216118E+04  0.00000000000E+00 0.  1.
        -11    1    3    3    0    0  0.19073942335E+03  0.32630714849E+03  0.97363084775E+03  0.10444208493E+04  0.00000000000E+00 0. -1.
         22    1    1    2    0    0 -0.41987044597E+03 -0.69150813881E+03 -0.18573516773E+03  0.83004352294E+03  0.00000000000E+00 0.  1.
<mgrwt>
<rscale>  0 0.25254431E+04</rscale>
<asrwt>0</asrwt>
<pdfrwt beam="1">  1        2 0.42618619E+00 0.25254431E+04</pdfrwt>
<pdfrwt beam="2">  1       -2 0.88550105E-01 0.25254431E+04</pdfrwt>
<totfact> 0.23532578E+00</totfact>
</mgrwt>
</event>
<event>
 6    1  0.9364335E-007  0.8853071E+03  0.7818608E-02  0.9444137E-01
         -2   -1    0    0    0  501 -0.00000000000E+00  0.00000000000E+00  0.30305801307E+03  0.30305801307E+03  0.00000000000E+00 0.  1.
          2   -1    0    0  501    0  0.00000000000E+00 -0.00000000000E+00 -0.64655000190E+03  0.64655000190E+03  0.00000000000E+00 0. -1.
         23    2    1    2    0    0  0.39168181606E+03 -0.13450529154E+03 -0.32609033850E+03  0.53510935886E+03  0.92199775438E+02 0.  0.
         13    1    3    3    0    0  0.21442815989E+03 -0.94629330434E+02 -0.23487392754E+03  0.33181306148E+03  0.00000000000E+00 0. -1.
        -13    1    3    3    0    0  0.17725365616E+03 -0.39875961106E+02 -0.91216410969E+02  0.20329629738E+03  0.00000000000E+00 0.  1.
         22    1    1    2    0    0 -0.39168181606E+03  0.13450529154E+03 -0.17401650335E+02  0.41449865611E+03  0.00000000000E+00 0.  1.
<mgrwt>
<rscale>  0 0.88530709E+03</rscale>
<asrwt>0</asrwt>
<pdfrwt beam="1">  1        2 0.99469231E-01 0.88530709E+03</pdfrwt>
<pdfrwt beam="2">  1       -2 0.46624310E-01 0.88530709E+03</pdfrwt>
<totfact> 0.19810294E+02</totfact>
</mgrwt>
</event>
<event>
 6    1  0.9364335E-007  0.3723595E+04  0.7818608E-02  0.8062753E-01
          1   -1    0    0  501    0  0.00000000000E+00  0.00000000000E+00  0.32151133697E+04  0.32151133697E+04  0.00000000000E+00 0. -1.
         -1   -1    0    0    0  501 -0.00000000000E+00 -0.00000000000E+00 -0.10781238464E+04  0.10781238464E+04  0.00000000000E+00 0.  1.
         23    2    1    2    0    0 -0.53380808625E+03  0.17025206131E+04  0.16778374170E+04  0.24508615303E+04  0.89757072109E+02 0.  0.
         13    1    3    3    0    0 -0.39257222024E+03  0.13315972139E+04  0.12646452547E+04  0.18779221784E+04  0.00000000000E+00 0. -1.
        -13    1    3    3    0    0 -0.14123586601E+03  0.37092339923E+03  0.41319216231E+03  0.57293935188E+03  0.00000000000E+00 0.  1.
         22    1    1    2    0    0  0.53380808625E+03 -0.17025206131E+04  0.45915210633E+03  0.18423756858E+04  0.00000000000E+00 0.  1.
<mgrwt>
<rscale>  0 0.37235952E+04</rscale>
<asrwt>0</asrwt>
<pdfrwt beam="1">  1        1 0.49463282E+00 0.37235952E+04</pdfrwt>
<pdfrwt beam="2">  1       -1 0.16586521E+00 0.37235952E+04</pdfrwt>
<totfact> 0.87462157E-02</totfact>
</mgrwt>
</event>
<event>
 6    1  0.9364335E-007  0.2866229E+04  0.7818608E-02  0.8282997E-01
         -1   -1    0    0    0  501 -0.00000000000E+00  0.00000000000E+00  0.17713276870E+04  0.17713276870E+04  0.00000000000E+00 0.  1.
          1   -1    0    0  501    0  0.00000000000E+00 -0.00000000000E+00 -0.11594792557E+04  0.11594792557E+04  0.00000000000E+00 0. -1.
         23    2    1    2    0    0  0.65347773906E+03 -0.79303361823E+03 -0.71310160162E+03  0.12540755793E+04  0.90863575709E+02 0.  0.
         11    1    3    3    0    0  0.16994633367E+03 -0.15836773426E+03 -0.13378750577E+03  0.26806937961E+03  0.00000000000E+00 0. -1.
        -11    1    3    3    0    0  0.48353140538E+03 -0.63466588398E+03 -0.57931409585E+03  0.98600619974E+03  0.00000000000E+00 0.  1.
         22    1    1    2    0    0 -0.65347773906E+03  0.79303361823E+03  0.13249500330E+04  0.16767313634E+04  0.00000000000E+00 0.  1.
<mgrwt>
<rscale>  0 0.28662294E+04</rscale>
<asrwt>0</asrwt>
<pdfrwt beam="1">  1        1 0.17838142E+00 0.28662294E+04</pdfrwt>
<pdfrwt beam="2">  1       -1 0.27251195E+00 0.28662294E+04</pdfrwt>
<totfact> 0.49030887E-01</totfact>
</mgrwt>
</event>
<event>
 6    1  0.9364335E-007  0.4769352E+03  0.7818608E-02  0.1019981E+00
         -1   -1    0    0    0  501 -0.00000000000E+00  0.00000000000E+00  0.11980738647E+03  0.11980738647E+03  0.00000000000E+00 0.  1.
          1   -1    0    0  501    0  0.00000000000E+00 -0.00000000000E+00 -0.47465190618E+03  0.47465190618E+03  0.00000000000E+00 0. -1.
         23    2    1    2    0    0  0.25922287078E+02  0.55550719311E+02 -0.45986087650E+03  0.47286043337E+03  0.91471942840E+02 0.  0.
         13    1    3    3    0    0 -0.28238175818E+02  0.16869616650E+02 -0.69800744200E+02  0.77162960222E+02  0.00000000000E+00 0. -1.
        -13    1    3    3    0    0  0.54160462896E+02  0.38681102662E+02 -0.39006013230E+03  0.39569747315E+03  0.00000000000E+00 0.  1.
         22    1    1    2    0    0 -0.25922287078E+02 -0.55550719311E+02  0.10501635679E+03  0.12159885928E+03  0.00000000000E+00 0.  1.
<mgrwt>
<rscale>  0 0.47693523E+03</rscale>
<asrwt>0</asrwt>
<pdfrwt beam="1">  1        1 0.73023370E-01 0.47693523E+03</pdfrwt>
<pdfrwt beam="2">  1       -1 0.18431906E-01 0.47693523E+03</pdfrwt>
<totfact> 0.11181904E+03</totfact>
</mgrwt>
</event>
<event>
 6    1  0.9364335E-007  0.2805661E+04  0.7818608E-02  0.8301513E-01
          2   -1    0    0  501    0  0.00000000000E+00  0.00000000000E+00  0.19259120908E+04  0.19259120908E+04  0.00000000000E+00 0. -1.
         -2   -1    0    0    0  501 -0.00000000000E+00 -0.00000000000E+00 -0.10218186668E+04  0.10218186668E+04  0.00000000000E+00 0.  1.
         23    2    1    2    0    0  0.47014529361E+03  0.42106178385E+03  0.17670565154E+04  0.18786026455E+04  0.91266359144E+02 0.  0.
         11    1    3    3    0    0  0.13873720322E+03  0.13904653404E+03  0.67627041461E+03  0.70421844897E+03  0.00000000000E+00 0.  1.
        -11    1    3    3    0    0  0.33140809039E+03  0.28201524981E+03  0.10907861008E+04  0.11743841966E+04  0.00000000000E+00 0. -1.
         22    1    1    2    0    0 -0.47014529361E+03 -0.42106178385E+03 -0.86296309139E+03  0.10691281121E+04  0.00000000000E+00 0.  1.
<mgrwt>
<rscale>  0 0.28056607E+04</rscale>
<asrwt>0</asrwt>
<pdfrwt beam="1">  1        2 0.29629417E+00 0.28056607E+04</pdfrwt>
<pdfrwt beam="2">  1       -2 0.15720287E+00 0.28056607E+04</pdfrwt>
<totfact> 0.16885640E+00</totfact>
</mgrwt>
</event>
<event>
 6    1  0.9364335E-007  0.1301689E+04  0.7818608E-02  0.9028227E-01
          2   -1    0    0  501    0  0.00000000000E+00  0.00000000000E+00  0.94931149993E+03  0.94931149993E+03  0.00000000000E+00 0. -1.
         -2   -1    0    0    0  501 -0.00000000000E+00 -0.00000000000E+00 -0.44621689760E+03  0.44621689760E+03  0.00000000000E+00 0.  1.
         23    2    1    2    0    0 -0.27869577442E+03 -0.58333267183E+03  0.21029068782E+03  0.68582249150E+03  0.90454274411E+02 0.  0.
         11    1    3    3    0    0 -0.80977419076E+02 -0.88793945312E+02  0.40487465785E+02  0.12681065417E+03  0.00000000000E+00 0. -1.
        -11    1    3    3    0    0 -0.19771835535E+03 -0.49453872652E+03  0.16980322204E+03  0.55901183734E+03  0.00000000000E+00 0.  1.
         22    1    1    2    0    0  0.27869577442E+03  0.58333267183E+03  0.29280391451E+03  0.70970590603E+03  0.00000000000E+00 0. -1.
<mgrwt>
<rscale>  0 0.13016894E+04</rscale>
<asrwt>0</asrwt>
<pdfrwt beam="1">  1        2 0.14604792E+00 0.13016894E+04</pdfrwt>
<pdfrwt beam="2">  1       -2 0.68648754E-01 0.13016894E+04</pdfrwt>
<totfact> 0.51680750E+01</totfact>
</mgrwt>
</event>
<event>
 6    1  0.9364335E-007  0.1227825E+04  0.7818608E-02  0.9088844E-01
          1   -1    0    0  501    0  0.00000000000E+00  0.00000000000E+00  0.69176100521E+03  0.69176100521E+03  0.00000000000E+00 0. -1.
         -1   -1    0    0    0  501 -0.00000000000E+00 -0.00000000000E+00 -0.54482473119E+03  0.54482473119E+03  0.00000000000E+00 0.  1.
         23    2    1    2    0    0  0.10561298091E+03  0.51066123345E+03  0.39329139698E+03  0.65985369836E+03  0.93807159711E+02 0.  0.
         13    1    3    3    0    0  0.73086361028E+02  0.26943260014E+03  0.26403118589E+03  0.38424993078E+03  0.00000000000E+00 0. -1.
        -13    1    3    3    0    0  0.32526619884E+02  0.24122863331E+03  0.12926021110E+03  0.27560376758E+03  0.00000000000E+00 0.  1.
         22    1    1    2    0    0 -0.10561298091E+03 -0.51066123345E+03 -0.24635512296E+03  0.57673203804E+03  0.00000000000E+00 0.  1.
<mgrwt>
<rscale>  0 0.12278249E+04</rscale>
<asrwt>0</asrwt>
<pdfrwt beam="1">  1        1 0.10642477E+00 0.12278249E+04</pdfrwt>
<pdfrwt beam="2">  1       -1 0.83819189E-01 0.12278249E+04</pdfrwt>
<totfact> 0.38686364E+01</totfact>
</mgrwt>
</event>
<event>
 6    1  0.9364335E-007  0.1397838E+04  0.7818608E-02  0.8955385E-01
         -1   -1    0    0    0  501 -0.00000000000E+00  0.00000000000E+00  0.73607707475E+03  0.73607707475E+03  0.00000000000E+00 0.  1.
          1   -1    0    0  501    0  0.00000000000E+00 -0.00000000000E+00 -0.66363657367E+03  0.66363657367E+03  0.00000000000E+00 0. -1.
         23    2    1    2    0    0  0.27811623535E+02 -0.42475104309E+03 -0.51489995694E+03  0.67434770723E+03  0.91847316684E+02 0.  0.
         11    1    3    3    0    0  0.23348266747E+02 -0.93028239883E+02 -0.17388820250E+03  0.19858625820E+03  0.00000000000E+00 0.  1.
        -11    1    3    3    0    0  0.44633567888E+01 -0.33172280321E+03 -0.34101175444E+03  0.47576144904E+03  0.00000000000E+00 0. -1.
         22    1    1    2    0    0 -0.27811623535E+02  0.42475104309E+03  0.58734045801E+03  0.72536594118E+03  0.00000000000E+00 0.  1.
<mgrwt>
<rscale>  0 0.13978379E+04</rscale>
<asrwt>0</asrwt>
<pdfrwt beam="1">  1        1 0.10209793E+00 0.13978379E+04</pdfrwt>
<pdfrwt beam="2">  1       -1 0.11324263E+00 0.13978379E+04</pdfrwt>
<totfact> 0.20517771E+01</totfact>
</mgrwt>
</event>
<event>
 6    1  0.9364335E-007  0.2133915E+04  0.7818608E-02  0.8546449E-01
          1   -1    0    0  501    0  0.00000000000E+00  0.00000000000E+00  0.55375730668E+03  0.55375730668E+03  0.00000000000E+00 0. -1.
         -1   -1    0    0    0  501 -0.00000000000E+00 -0.00000000000E+00 -0.20557713524E+04  0.20557713524E+04  0.00000000000E+00 0.  1.
         23    2    1    2    0    0  0.69106885612E+03 -0.66802767705E+03 -0.13132649977E+04  0.16300066612E+04  0.91758487297E+02 0.  0.
         11    1    3    3    0    0  0.21836509679E+03 -0.26393310752E+03 -0.42975427476E+03  0.54957505167E+03  0.00000000000E+00 0. -1.
        -11    1    3    3    0    0  0.47270375933E+03 -0.40409456954E+03 -0.88351072297E+03  0.10804316095E+04  0.00000000000E+00 0.  1.
         22    1    1    2    0    0 -0.69106885612E+03  0.66802767705E+03 -0.18874904794E+03  0.97952199786E+03  0.00000000000E+00 0. -1.
<mgrwt>
<rscale>  0 0.21339151E+04</rscale>
<asrwt>0</asrwt>
<pdfrwt beam="1">  1        1 0.85193431E-01 0.21339151E+04</pdfrwt>
<pdfrwt beam="2">  1       -1 0.31627252E+00 0.21339151E+04</pdfrwt>
<totfact> 0.91250744E-01</totfact>
</mgrwt>
</event>
<event>
 6    1  0.9364335E-007  0.3288353E+04  0.7818608E-02  0.8165865E-01
          2   -1    0    0  501    0  0.00000000000E+00  0.00000000000E+00  0.31593438381E+04  0.31593438381E+04  0.00000000000E+00 0. -1.
         -2   -1    0    0    0  501 -0.00000000000E+00 -0.00000000000E+00 -0.85565749837E+03  0.85565749837E+03  0.00000000000E+00 0.  1.
         23    2    1    2    0    0 -0.15682743955E+03  0.15527393086E+04  0.17795373277E+04  0.23686944413E+04  0.91466109939E+02 0.  0.
         11    1    3    3    0    0 -0.96644498399E+02  0.55165972781E+03  0.66246312038E+03  0.86748256479E+03  0.00000000000E+00 0. -1.
        -11    1    3    3    0    0 -0.60182941147E+02  0.10010795808E+04  0.11170742073E+04  0.15012118765E+04  0.00000000000E+00 0.  1.
         22    1    1    2    0    0  0.15682743955E+03 -0.15527393086E+04  0.52414901208E+03  0.16463068952E+04  0.00000000000E+00 0.  1.
<mgrwt>
<rscale>  0 0.32883529E+04</rscale>
<asrwt>0</asrwt>
<pdfrwt beam="1">  1        2 0.48605289E+00 0.32883529E+04</pdfrwt>
<pdfrwt beam="2">  1       -2 0.13163962E+00 0.32883529E+04</pdfrwt>
<totfact> 0.48425268E-01</totfact>
</mgrwt>
</event>
<event>
 6    1  0.9364335E-007  0.2133832E+04  0.7818608E-02  0.8546485E-01
         -2   -1    0    0    0  501 -0.00000000000E+00  0.00000000000E+00  0.41619020555E+03  0.41619020555E+03  0.00000000000E+00 0.  1.
          2   -1    0    0  501    0  0.00000000000E+00 -0.00000000000E+00 -0.27350705129E+04  0.27350705129E+04  0.00000000000E+00 0. -1.
         23    2    1    2    0    0  0.83507840976E+03 -0.42670331552E+03 -0.19068782611E+04  0.21269671297E+04  0.91502995677E+02 0.  0.
         13    1    3    3    0    0  0.59993202339E+03 -0.35002488854E+03 -0.13812559993E+04  0.15460607979E+04  0.00000000000E+00 0.  1.
        -13    1    3    3    0    0  0.23514638636E+03 -0.76678426988E+02 -0.52562226179E+03  0.58090633176E+03  0.00000000000E+00 0. -1.
         22    1    1    2    0    0 -0.83507840976E+03  0.42670331552E+03 -0.41200204633E+03  0.10242935888E+04  0.00000000000E+00 0.  1.
<mgrwt>
<rscale>  0 0.21338318E+04</rscale>
<asrwt>0</asrwt>
<pdfrwt beam="1">  1        2 0.42078007E+00 0.21338318E+04</pdfrwt>
<pdfrwt beam="2">  1       -2 0.64029263E-01 0.21338318E+04</pdfrwt>
<totfact> 0.52474604E+00</totfact>
</mgrwt>
</event>
<event>
 6    1  0.1622719E-006  0.2665187E+04  0.7818608E-02  0.8346390E-01
         -2   -1    0    0    0  501 -0.00000000000E+00  0.00000000000E+00  0.11549880732E+04  0.11549880732E+04  0.00000000000E+00 0.  1.
          2   -1    0    0  501    0  0.00000000000E+00 -0.00000000000E+00 -0.15375097501E+04  0.15375097501E+04  0.00000000000E+00 0. -1.
         23    2    1    2    0    0 -0.81838975797E+03  0.18957131339E+02 -0.12515729019E+04  0.14986087161E+04  0.96292192642E+02 0.  0.
         13    1    3    3    0    0 -0.26583103286E+03 -0.28611363085E+01 -0.48961125953E+03  0.55712970625E+03  0.00000000000E+00 0. -1.
        -13    1    3    3    0    0 -0.55255872511E+03  0.21818267648E+02 -0.76196164234E+03  0.94147900980E+03  0.00000000000E+00 0.  1.
         22    1    1    2    0    0  0.81838975797E+03 -0.18957131339E+02  0.86905122494E+03  0.11938891072E+04  0.00000000000E+00 0.  1.
<mgrwt>
<rscale>  0 0.26651870E+04</rscale>
<asrwt>0</asrwt>
<pdfrwt beam="1">  1        2 0.23653996E+00 0.26651870E+04</pdfrwt>
<pdfrwt beam="2">  1       -2 0.17769047E+00 0.26651870E+04</pdfrwt>
<totfact> 0.20016189E+00</totfact>
</mgrwt>
</event>
<event>
 6    1  0.9364335E-007  0.3216463E+04  0.7818608E-02  0.8184483E-01
         -2   -1    0    0    0  501 -0.00000000000E+00  0.00000000000E+00  0.10057450252E+04  0.10057450252E+04  0.00000000000E+00 0.  1.
          2   -1    0    0  501    0  0.00000000000E+00 -0.00000000000E+00 -0.25716342661E+04  0.25716342661E+04  0.00000000000E+00 0. -1.
         23    2    1    2    0    0 -0.56812629929E+03  0.33730343524E+02  0.88768926075E+03  0.10586588439E+04  0.94133395514E+02 0.  0.
         13    1    3    3    0    0 -0.35458038216E+03  0.29872514846E+02  0.46975406769E+03  0.58931188574E+03  0.00000000000E+00 0.  1.
        -13    1    3    3    0    0 -0.21354591713E+03  0.38578286783E+01  0.41793519306E+03  0.46934695819E+03  0.00000000000E+00 0. -1.
         22    1    1    2    0    0  0.56812629929E+03 -0.33730343524E+02 -0.24535785017E+04  0.25187204473E+04  0.00000000000E+00 0. -1.
<mgrwt>
<rscale>  0 0.32164629E+04</rscale>
<asrwt>0</asrwt>
<pdfrwt beam="1">  1        2 0.39563604E+00 0.32164629E+04</pdfrwt>
<pdfrwt beam="2">  1       -2 0.15473001E+00 0.32164629E+04</pdfrwt>
<totfact> 0.73321341E-01</totfact>
</mgrwt>
</event>
<event>
 6    1  0.9364335E-007  0.1779390E+04  0.7818608E-02  0.8717337E-01
          1   -1    0    0  501    0  0.00000000000E+00  0.00000000000E+00  0.11080969684E+04  0.11080969684E+04  0.00000000000E+00 0. -1.
         -1   -1    0    0    0  501 -0.00000000000E+00 -0.00000000000E+00 -0.71433936207E+03  0.71433936207E+03  0.00000000000E+00 0.  1.
         23    2    1    2    0    0  0.28115178985E+03  0.19425189657E+03 -0.64128502735E+03  0.73243936635E+03  0.91873885420E+02 0.  0.
         11    1    3    3    0    0  0.79060038882E+01 -0.88320488614E+01 -0.36965476224E+02  0.38819536539E+02  0.00000000000E+00 0.  1.
        -11    1    3    3    0    0  0.27324578596E+03  0.20308394544E+03 -0.60431955112E+03  0.69361982981E+03  0.00000000000E+00 0. -1.
         22    1    1    2    0    0 -0.28115178985E+03 -0.19425189657E+03  0.10350426336E+04  0.10899969641E+04  0.00000000000E+00 0. -1.
<mgrwt>
<rscale>  0 0.17793901E+04</rscale>
<asrwt>0</asrwt>
<pdfrwt beam="1">  1        1 0.17047646E+00 0.17793901E+04</pdfrwt>
<pdfrwt beam="2">  1       -1 0.10989836E+00 0.17793901E+04</pdfrwt>
<totfact> 0.90401197E+00</totfact>
</mgrwt>
</event>
<event>
 6    1  0.9364335E-007  0.3565611E+04  0.7818608E-02  0.8098415E-01
          2   -1    0    0  501    0  0.00000000000E+00  0.00000000000E+00  0.18273369098E+04  0.18273369098E+04  0.00000000000E+00 0. -1.
         -2   -1    0    0    0  501 -0.00000000000E+00 -0.00000000000E+00 -0.17393589144E+04  0.17393589144E+04  0.00000000000E+00 0.  1.
         23    2    1    2    0    0  0.44182641698E+03  0.17192454165E+04 -0.10859816492E+03  0.17807345784E+04  0.90590795920E+02 0.  0.
         11    1    3    3    0    0  0.21650692881E+03  0.74376155397E+03 -0.85066435640E+02  0.77928993183E+03  0.00000000000E+00 0. -1.
        -11    1    3    3    0    0  0.22531948817E+03  0.97548386250E+03 -0.23531729285E+02  0.10014446465E+04  0.00000000000E+00 0.  1.
         22    1    1    2    0    0 -0.44182641698E+03 -0.17192454165E+04  0.19657616026E+03  0.17859612458E+04  0.00000000000E+00 0. -1.
<mgrwt>
<rscale>  0 0.35656106E+04</rscale>
<asrwt>0</asrwt>
<pdfrwt beam="1">  1        2 0.28112875E+00 0.35656106E+04</pdfrwt>
<pdfrwt beam="2">  1       -2 0.26759368E+00 0.35656106E+04</pdfrwt>
<totfact> 0.34145428E-01</totfact>
</mgrwt>
</event>
<event>
 6    1  0.9364335E-007  0.1897282E+04  0.7818608E-02  0.8656210E-01
          1   -1    0    0  501    0  0.00000000000E+00  0.00000000000E+00  0.11427076946E+04  0.11427076946E+04  0.00000000000E+00 0. -1.
         -1   -1    0    0    0  501 -0.00000000000E+00 -0.00000000000E+00 -0.78753294522E+03  0.78753294522E+03  0.00000000000E+00 0.  1.
         23    2    1    2    0    0  0.33681473825E+03 -0.80244487239E+03 -0.20000458428E+03  0.89796837260E+03  0.94780922823E+02 0.  0.
         11    1    3    3    0    0  0.16001363156E+03 -0.42840521035E+03 -0.60164574734E+02  0.46125390252E+03  0.00000000000E+00 0. -1.
        -11    1    3    3    0    0  0.17680110668E+03 -0.37403966205E+03 -0.13984000955E+03  0.43671447008E+03  0.00000000000E+00 0.  1.
         22    1    1    2    0    0 -0.33681473825E+03  0.80244487239E+03  0.55517933365E+03  0.10322722672E+04  0.00000000000E+00 0. -1.
<mgrwt>
<rscale>  0 0.18972822E+04</rscale>
<asrwt>0</asrwt>
<pdfrwt beam="1">  1        1 0.17580118E+00 0.18972822E+04</pdfrwt>
<pdfrwt beam="2">  1       -1 0.12115891E+00 0.18972822E+04</pdfrwt>
<totfact> 0.66653433E+00</totfact>
</mgrwt>
</event>
<event>
 6    1  0.9364335E-007  0.2153470E+04  0.7818608E-02  0.8538048E-01
          3   -1    0    0  501    0  0.00000000000E+00  0.00000000000E+00  0.11708010118E+04  0.11708010118E+04  0.00000000000E+00 0. -1.
         -3   -1    0    0    0  501 -0.00000000000E+00 -0.00000000000E+00 -0.99022670706E+03  0.99022670706E+03  0.00000000000E+00 0.  1.
         23    2    1    2    0    0 -0.91092715047E+02  0.91829578423E+03 -0.46265928438E+03  0.10361657361E+04  0.89558858715E+02 0.  0.
         13    1    3    3    0    0 -0.83045083373E+02  0.45961212705E+03 -0.26113564171E+03  0.53509963238E+03  0.00000000000E+00 0. -1.
        -13    1    3    3    0    0 -0.80476316745E+01  0.45868365718E+03 -0.20152364267E+03  0.50106610372E+03  0.00000000000E+00 0.  1.
         22    1    1    2    0    0  0.91092715047E+02 -0.91829578423E+03  0.64323358911E+03  0.11248619827E+04  0.00000000000E+00 0. -1.
<mgrwt>
<rscale>  0 0.21534702E+04</rscale>
<asrwt>0</asrwt>
<pdfrwt beam="1">  1        3 0.18012323E+00 0.21534702E+04</pdfrwt>
<pdfrwt beam="2">  1       -3 0.15234257E+00 0.21534702E+04</pdfrwt>
<totfact> 0.14706812E-01</totfact>
</mgrwt>
</event>
<event>
 6    1  0.9364335E-007  0.2014613E+04  0.7818608E-02  0.8599819E-01
         -2   -1    0    0    0  501 -0.00000000000E+00  0.00000000000E+00  0.48604797593E+03  0.48604797593E+03  0.00000000000E+00 0.  1.
          2   -1    0    0  501    0  0.00000000000E+00 -0.00000000000E+00 -0.20875855736E+04  0.20875855736E+04  0.00000000000E+00 0. -1.
         23    2    1    2    0    0  0.16565338531E+03  0.84466122712E+03 -0.14661924856E+04  0.17023058661E+04  0.85036604464E+02 0.  0.
         11    1    3    3    0    0  0.85801000765E+02  0.60811445855E+03 -0.10812786806E+04  0.12435146125E+04  0.00000000000E+00 0. -1.
        -11    1    3    3    0    0  0.79852384550E+02  0.23654676857E+03 -0.38491380504E+03  0.45879125357E+03  0.00000000000E+00 0.  1.
         22    1    1    2    0    0 -0.16565338531E+03 -0.84466122712E+03 -0.13534511209E+03  0.87132768350E+03  0.00000000000E+00 0.  1.
<mgrwt>
<rscale>  0 0.20146134E+04</rscale>
<asrwt>0</asrwt>
<pdfrwt beam="1">  1        2 0.32116701E+00 0.20146134E+04</pdfrwt>
<pdfrwt beam="2">  1       -2 0.74776611E-01 0.20146134E+04</pdfrwt>
<totfact> 0.89051813E+00</totfact>
</mgrwt>
</event>
<event>
 6    1  0.9364335E-007  0.1251218E+04  0.7818608E-02  0.9069170E-01
          1   -1    0    0  501    0  0.00000000000E+00  0.00000000000E+00  0.57451049879E+03  0.57451049879E+03  0.00000000000E+00 0. -1.
         -1   -1    0    0    0  501 -0.00000000000E+00 -0.00000000000E+00 -0.68125270259E+03  0.68125270259E+03  0.00000000000E+00 0.  1.
         23    2    1    2    0    0 -0.48451121006E+03  0.32498544566E+03  0.16305157422E+03  0.61299159714E+03  0.93841513913E+02 0.  0.
         11    1    3    3    0    0 -0.20961859541E+03  0.19148637929E+03  0.99616079321E+02  0.30088262206E+03  0.00000000000E+00 0. -1.
        -11    1    3    3    0    0 -0.27489261465E+03  0.13349906638E+03  0.63435494898E+02  0.31210897508E+03  0.00000000000E+00 0.  1.
         22    1    1    2    0    0  0.48451121006E+03 -0.32498544566E+03 -0.26979377801E+03  0.64277160425E+03  0.00000000000E+00 0. -1.
<mgrwt>
<rscale>  0 0.12512183E+04</rscale>
<asrwt>0</asrwt>
<pdfrwt beam="1">  1        1 0.88386231E-01 0.12512183E+04</pdfrwt>
<pdfrwt beam="2">  1       -1 0.10480811E+00 0.12512183E+04</pdfrwt>
<totfact> 0.30752801E+01</totfact>
</mgrwt>
</event>
<event>
 6    1  0.9364335E-007  0.2842835E+04  0.7818608E-02  0.8290092E-01
         -2   -1    0    0    0  501 -0.00000000000E+00  0.00000000000E+00  0.17737834323E+04  0.17737834323E+04  0.00000000000E+00 0.  1.
          2   -1    0    0  501    0  0.00000000000E+00 -0.00000000000E+00 -0.11390495620E+04  0.11390495620E+04  0.00000000000E+00 0. -1.
         23    2    1    2    0    0  0.10909483147E+02  0.57575445791E+03  0.16476146022E+04  0.17476979851E+04  0.90565759839E+02 0.  0.
         13    1    3    3    0    0 -0.12019455589E+02  0.47363486156E+03  0.12576910880E+04  0.13439722178E+04  0.00000000000E+00 0.  1.
        -13    1    3    3    0    0  0.22928938736E+02  0.10211959635E+03  0.38992351427E+03  0.40372576729E+03  0.00000000000E+00 0. -1.
         22    1    1    2    0    0 -0.10909483147E+02 -0.57575445791E+03 -0.10128807320E+04  0.11651350093E+04  0.00000000000E+00 0. -1.
<mgrwt>
<rscale>  0 0.28428347E+04</rscale>
<asrwt>0</asrwt>
<pdfrwt beam="1">  1        2 0.17523839E+00 0.28428347E+04</pdfrwt>
<pdfrwt beam="2">  1       -2 0.27288976E+00 0.28428347E+04</pdfrwt>
<totfact> 0.83190507E-01</totfact>
</mgrwt>
</event>
<event>
 6    1  0.9364335E-007  0.1427594E+04  0.7818608E-02  0.8934084E-01
         -1   -1    0    0    0  501 -0.00000000000E+00  0.00000000000E+00  0.52176693663E+03  0.52176693663E+03  0.00000000000E+00 0.  1.
          1   -1    0    0  501    0  0.00000000000E+00 -0.00000000000E+00 -0.97650083671E+03  0.97650083671E+03  0.00000000000E+00 0. -1.
         23    2    1    2    0    0  0.47074213971E+03  0.15953226841E+03 -0.76170265981E+03  0.91407728539E+03  0.91091354970E+02 0.  0.
         11    1    3    3    0    0  0.25059328938E+03  0.12824276469E+03 -0.39087567148E+03  0.48169180389E+03  0.00000000000E+00 0. -1.
        -11    1    3    3    0    0  0.22014885032E+03  0.31289503723E+02 -0.37082698833E+03  0.43238548150E+03  0.00000000000E+00 0.  1.
         22    1    1    2    0    0 -0.47074213971E+03 -0.15953226841E+03  0.30696875972E+03  0.58419048795E+03  0.00000000000E+00 0.  1.
<mgrwt>
<rscale>  0 0.14275936E+04</rscale>
<asrwt>0</asrwt>
<pdfrwt beam="1">  1        1 0.15023090E+00 0.14275936E+04</pdfrwt>
<pdfrwt beam="2">  1       -1 0.80271838E-01 0.14275936E+04</pdfrwt>
<totfact> 0.23796512E+01</totfact>
</mgrwt>
</event>
<event>
 6    1  0.9364335E-007  0.2797980E+04  0.7818608E-02  0.8303896E-01
         -2   -1    0    0    0  501 -0.00000000000E+00  0.00000000000E+00  0.72481473335E+03  0.72481473335E+03  0.00000000000E+00 0.  1.
          2   -1    0    0  501    0  0.00000000000E+00 -0.00000000000E+00 -0.27002385173E+04  0.27002385173E+04  0.00000000000E+00 0. -1.
         23    2    1    2    0    0 -0.28119080658E+03 -0.10172044319E+04 -0.21101760782E+04  0.23611306469E+04  0.91223489405E+02 0.  0.
         13    1    3    3    0    0 -0.21909696544E+03 -0.70887262126E+03 -0.14010994730E+04  0.15854285247E+04  0.00000000000E+00 0.  1.
        -13    1    3    3    0    0 -0.62093841137E+02 -0.30833181061E+03 -0.70907660515E+03  0.77570212228E+03  0.00000000000E+00 0. -1.
         22    1    1    2    0    0  0.28119080658E+03  0.10172044319E+04  0.13475229422E+03  0.10639226037E+04  0.00000000000E+00 0.  1.
<mgrwt>
<rscale>  0 0.27979797E+04</rscale>
<asrwt>0</asrwt>
<pdfrwt beam="1">  1        2 0.41542132E+00 0.27979797E+04</pdfrwt>
<pdfrwt beam="2">  1       -2 0.11150996E+00 0.27979797E+04</pdfrwt>
<totfact> 0.14680321E+00</totfact>
</mgrwt>
</event>
<event>
 6    1  0.9364335E-007  0.2887281E+04  0.7818608E-02  0.8276672E-01
         -1   -1    0    0    0  501 -0.00000000000E+00  0.00000000000E+00  0.10664352794E+04  0.10664352794E+04  0.00000000000E+00 0.  1.
          1   -1    0    0  501    0  0.00000000000E+00 -0.00000000000E+00 -0.19542658404E+04  0.19542658404E+04  0.00000000000E+00 0. -1.
         23    2    1    2    0    0  0.64930409862E+03 -0.12465644462E+04 -0.78195467559E+03  0.16111875746E+04  0.94623225327E+02 0.  0.
         11    1    3    3    0    0  0.73521405438E+02 -0.19540713154E+03 -0.14219330853E+03  0.25260301087E+03  0.00000000000E+00 0. -1.
        -11    1    3    3    0    0  0.57578269318E+03 -0.10511573147E+04 -0.63976136707E+03  0.13585845637E+04  0.00000000000E+00 0.  1.
         22    1    1    2    0    0 -0.64930409862E+03  0.12465644462E+04 -0.10587588547E+03  0.14095135452E+04  0.00000000000E+00 0.  1.
<mgrwt>
<rscale>  0 0.28872811E+04</rscale>
<asrwt>0</asrwt>
<pdfrwt beam="1">  1        1 0.30065628E+00 0.28872811E+04</pdfrwt>
<pdfrwt beam="2">  1       -1 0.16406697E+00 0.28872811E+04</pdfrwt>
<totfact> 0.74898589E-01</totfact>
</mgrwt>
</event>
<event>
 6    1  0.9364335E-007  0.2864901E+04  0.7818608E-02  0.8283398E-01
          2   -1    0    0  501    0  0.00000000000E+00  0.00000000000E+00  0.32629048769E+04  0.32629048769E+04  0.00000000000E+00 0. -1.
         -2   -1    0    0    0  501 -0.00000000000E+00 -0.00000000000E+00 -0.62886108745E+03  0.62886108745E+03  0.00000000000E+00 0.  1.
         23    2    1    2    0    0 -0.45077343763E+03  0.75712535501E+03 -0.21320259416E+03  0.91128824019E+03  0.92495487958E+02 0.  0.
         13    1    3    3    0    0 -0.15948203660E+03  0.19340334483E+03 -0.43169313785E+02  0.25436777202E+03  0.00000000000E+00 0.  1.
        -13    1    3    3    0    0 -0.29129140103E+03  0.56372201018E+03 -0.17003328037E+03  0.65692046818E+03  0.00000000000E+00 0. -1.
         22    1    1    2    0    0  0.45077343763E+03 -0.75712535501E+03  0.28472463836E+04  0.29804777241E+04  0.00000000000E+00 0. -1.
<mgrwt>
<rscale>  0 0.28649006E+04</rscale>
<asrwt>0</asrwt>
<pdfrwt beam="1">  1        2 0.50198536E+00 0.28649006E+04</pdfrwt>
<pdfrwt beam="2">  1       -2 0.96747862E-01 0.28649006E+04</pdfrwt>
<totfact> 0.91081491E-01</totfact>
</mgrwt>
</event>
<event>
 6    1  0.9364335E-007  0.2998570E+04  0.7818608E-02  0.8244139E-01
         -2   -1    0    0    0  501 -0.00000000000E+00  0.00000000000E+00  0.12518579482E+04  0.12518579482E+04  0.00000000000E+00 0.  1.
          2   -1    0    0  501    0  0.00000000000E+00 -0.00000000000E+00 -0.17956156372E+04  0.17956156372E+04  0.00000000000E+00 0. -1.
         23    2    1    2    0    0 -0.30406858490E+03 -0.57230391552E+03  0.11003370061E+04  0.12802619844E+04  0.91322207575E+02 0.  0.
         11    1    3    3    0    0 -0.24613694061E+03 -0.38278155076E+03  0.80140328749E+03  0.92160313494E+03  0.00000000000E+00 0. -1.
        -11    1    3    3    0    0 -0.57931644298E+02 -0.18952236476E+03  0.29893371862E+03  0.35865884944E+03  0.00000000000E+00 0.  1.
         22    1    1    2    0    0  0.30406858490E+03  0.57230391552E+03 -0.16440946951E+04  0.17672116010E+04  0.00000000000E+00 0. -1.
<mgrwt>
<rscale>  0 0.29985701E+04</rscale>
<asrwt>0</asrwt>
<pdfrwt beam="1">  1        2 0.27624856E+00 0.29985701E+04</pdfrwt>
<pdfrwt beam="2">  1       -2 0.19259353E+00 0.29985701E+04</pdfrwt>
<totfact> 0.11064437E+00</totfact>
</mgrwt>
</event>
<event>
 6    1  0.9364335E-007  0.1694732E+04  0.7818608E-02  0.8764375E-01
          2   -1    0    0  501    0  0.00000000000E+00  0.00000000000E+00  0.76356806761E+03  0.76356806761E+03  0.00000000000E+00 0. -1.
         -2   -1    0    0    0  501 -0.00000000000E+00 -0.00000000000E+00 -0.94036016944E+03  0.94036016944E+03  0.00000000000E+00 0.  1.
         23    2    1    2    0    0  0.59716503286E+03  0.56821315682E+03 -0.27427436605E+03  0.87388302149E+03  0.94725072333E+02 0.  0.
         13    1    3    3    0    0  0.18298749870E+03  0.19352015769E+03 -0.13340330496E+03  0.29787735376E+03  0.00000000000E+00 0.  1.
        -13    1    3    3    0    0  0.41417753416E+03  0.37469299913E+03 -0.14087106109E+03  0.57600566773E+03  0.00000000000E+00 0. -1.
         22    1    1    2    0    0 -0.59716503286E+03 -0.56821315682E+03  0.97482264217E+02  0.83004521557E+03  0.00000000000E+00 0. -1.
<mgrwt>
<rscale>  0 0.16947318E+04</rscale>
<asrwt>0</asrwt>
<pdfrwt beam="1">  1        2 0.11747201E+00 0.16947318E+04</pdfrwt>
<pdfrwt beam="2">  1       -2 0.14467079E+00 0.16947318E+04</pdfrwt>
<totfact> 0.11490860E+01</totfact>
</mgrwt>
</event>
<event>
 6    1  0.9364335E-007  0.3387947E+04  0.7818608E-02  0.8140871E-01
         -1   -1    0    0    0  501 -0.00000000000E+00  0.00000000000E+00  0.18699986516E+04  0.18699986516E+04  0.00000000000E+00 0.  1.
          1   -1    0    0  501    0  0.00000000000E+00 -0.00000000000E+00 -0.15345174228E+04  0.15345174228E+04  0.00000000000E+00 0. -1.
         23    2    1    2    0    0  0.54068570217E+03  0.97733096470E+03  0.14463996801E+04  0.18291886009E+04  0.79637052718E+02 0.  0.
         11    1    3    3    0    0  0.28234508390E+03  0.54869494964E+03  0.74121394218E+03  0.96445995368E+03  0.00000000000E+00 0. -1.
        -11    1    3    3    0    0  0.25834061827E+03  0.42863601506E+03  0.70518573788E+03  0.86472864724E+03  0.00000000000E+00 0.  1.
         22    1    1    2    0    0 -0.54068570217E+03 -0.97733096470E+03 -0.11109184513E+04  0.15753274734E+04  0.00000000000E+00 0. -1.
<mgrwt>
<rscale>  0 0.33879466E+04</rscale>
<asrwt>0</asrwt>
<pdfrwt beam="1">  1        1 0.23607960E+00 0.33879466E+04</pdfrwt>
<pdfrwt beam="2">  1       -1 0.28769210E+00 0.33879466E+04</pdfrwt>
<totfact> 0.20231593E-01</totfact>
</mgrwt>
</event>
<event>
 6    1  0.9364335E-007  0.2926389E+04  0.7818608E-02  0.8265069E-01
         -2   -1    0    0    0  501 -0.00000000000E+00  0.00000000000E+00  0.56788450860E+03  0.56788450860E+03  0.00000000000E+00 0.  1.
          2   -1    0    0  501    0  0.00000000000E+00 -0.00000000000E+00 -0.37700249810E+04  0.37700249810E+04  0.00000000000E+00 0. -1.
         23    2    1    2    0    0 -0.11201411770E+03  0.13674164821E+04 -0.85372388303E+03  0.16180867977E+04  0.83578815926E+02 0.  0.
         11    1    3    3    0    0 -0.96641942169E+02  0.10816031018E+04 -0.71365079293E+03  0.12994238681E+04  0.00000000000E+00 0. -1.
        -11    1    3    3    0    0 -0.15372175528E+02  0.28581338026E+03 -0.14007309011E+03  0.31866292958E+03  0.00000000000E+00 0.  1.
         22    1    1    2    0    0  0.11201411770E+03 -0.13674164821E+04 -0.23484165893E+04  0.27198226918E+04  0.00000000000E+00 0. -1.
<mgrwt>
<rscale>  0 0.29263894E+04</rscale>
<asrwt>0</asrwt>
<pdfrwt beam="1">  1        2 0.58000384E+00 0.29263894E+04</pdfrwt>
<pdfrwt beam="2">  1       -2 0.87366849E-01 0.29263894E+04</pdfrwt>
<totfact> 0.50409135E-01</totfact>
</mgrwt>
</event>
<event>
 6    1  0.9364335E-007  0.1565206E+04  0.7818608E-02  0.8842213E-01
         -2   -1    0    0    0  501 -0.00000000000E+00  0.00000000000E+00  0.50873750391E+03  0.50873750391E+03  0.00000000000E+00 0.  1.
          2   -1    0    0  501    0  0.00000000000E+00 -0.00000000000E+00 -0.12038963656E+04  0.12038963656E+04  0.00000000000E+00 0. -1.
         23    2    1    2    0    0  0.65361262993E+02  0.25074984542E+03 -0.11537474383E+04  0.11858976335E+04  0.89846902774E+02 0.  0.
         11    1    3    3    0    0  0.12947482583E+02  0.32949243791E+02 -0.61924802187E+02  0.71330015404E+02  0.00000000000E+00 0. -1.
        -11    1    3    3    0    0  0.52413780410E+02  0.21780060163E+03 -0.10918226361E+04  0.11145676181E+04  0.00000000000E+00 0.  1.
         22    1    1    2    0    0 -0.65361262993E+02 -0.25074984542E+03  0.45858857667E+03  0.52673623601E+03  0.00000000000E+00 0.  1.
<mgrwt>
<rscale>  0 0.15652057E+04</rscale>
<asrwt>0</asrwt>
<pdfrwt beam="1">  1        2 0.18521482E+00 0.15652057E+04</pdfrwt>
<pdfrwt beam="2">  1       -2 0.78267309E-01 0.15652057E+04</pdfrwt>
<totfact> 0.26303611E+01</totfact>
</mgrwt>
</event>
<event>
 6    1  0.9364335E-007  0.3597697E+04  0.7818608E-02  0.8091019E-01
          1   -1    0    0  501    0  0.00000000000E+00  0.00000000000E+00  0.18900739290E+04  0.18900739290E+04  0.00000000000E+00 0. -1.
         -1   -1    0    0    0  501 -0.00000000000E+00 -0.00000000000E+00 -0.17120260101E+04  0.17120260101E+04  0.00000000000E+00 0.  1.
         23    2    1    2    0    0 -0.80921443106E+03  0.14661446500E+04 -0.56545747287E+03  0.17698312912E+04  0.90291282707E+02 0.  0.
         13    1    3    3    0    0 -0.12716191587E+03  0.28442748360E+03 -0.13013637182E+03  0.33764570417E+03  0.00000000000E+00 0. -1.
        -13    1    3    3    0    0 -0.68205251519E+03  0.11817171664E+04 -0.43532110105E+03  0.14321855871E+04  0.00000000000E+00 0.  1.
         22    1    1    2    0    0  0.80921443106E+03 -0.14661446500E+04  0.74350539178E+03  0.18322686478E+04  0.00000000000E+00 0. -1.
<mgrwt>
<rscale>  0 0.35976969E+04</rscale>
<asrwt>0</asrwt>
<pdfrwt beam="1">  1        1 0.29078060E+00 0.35976969E+04</pdfrwt>
<pdfrwt beam="2">  1       -1 0.26338862E+00 0.35976969E+04</pdfrwt>
<totfact> 0.16332555E-01</totfact>
</mgrwt>
</event>
<event>
 6    1  0.9364335E-007  0.4216267E+04  0.7818608E-02  0.7962285E-01
         -2   -1    0    0    0  501 -0.00000000000E+00  0.00000000000E+00  0.11844132672E+04  0.11844132672E+04  0.00000000000E+00 0.  1.
          2   -1    0    0  501    0  0.00000000000E+00 -0.00000000000E+00 -0.37522611496E+04  0.37522611496E+04  0.00000000000E+00 0. -1.
         23    2    1    2    0    0  0.16597397997E+04 -0.24149632683E+03 -0.27779982313E+04  0.32463431334E+04  0.91721796701E+02 0.  0.
         11    1    3    3    0    0  0.11947853176E+04 -0.16538500613E+03 -0.20739821605E+04  0.23992219901E+04  0.00000000000E+00 0.  1.
        -11    1    3    3    0    0  0.46495448206E+03 -0.76111320691E+02 -0.70401607076E+03  0.84712114330E+03  0.00000000000E+00 0. -1.
         22    1    1    2    0    0 -0.16597397997E+04  0.24149632683E+03  0.21015034899E+03  0.16903312834E+04  0.00000000000E+00 0.  1.
<mgrwt>
<rscale>  0 0.42162675E+04</rscale>
<asrwt>0</asrwt>
<pdfrwt beam="1">  1        2 0.57727094E+00 0.42162675E+04</pdfrwt>
<pdfrwt beam="2">  1       -2 0.18221743E+00 0.42162675E+04</pdfrwt>
<totfact> 0.72223583E-02</totfact>
</mgrwt>
</event>
<event>
 6    1  0.9364335E-007  0.1411625E+04  0.7818608E-02  0.8945447E-01
         -1   -1    0    0    0  501 -0.00000000000E+00  0.00000000000E+00  0.10149316625E+04  0.10149316625E+04  0.00000000000E+00 0.  1.
          1   -1    0    0  501    0  0.00000000000E+00 -0.00000000000E+00 -0.49084207872E+03  0.49084207872E+03  0.00000000000E+00 0. -1.
         23    2    1    2    0    0  0.63137036258E+03  0.14209773152E+03  0.55526115707E+03  0.85786019213E+03  0.93748902119E+02 0.  0.
         11    1    3    3    0    0  0.38084052877E+03  0.90266584655E+02  0.27471973791E+03  0.47818249556E+03  0.00000000000E+00 0.  1.
        -11    1    3    3    0    0  0.25052983381E+03  0.51831146868E+02  0.28054141916E+03  0.37967769657E+03  0.00000000000E+00 0. -1.
         22    1    1    2    0    0 -0.63137036258E+03 -0.14209773152E+03 -0.31171573339E+02  0.64791354904E+03  0.00000000000E+00 0. -1.
<mgrwt>
<rscale>  0 0.14116248E+04</rscale>
<asrwt>0</asrwt>
<pdfrwt beam="1">  1        1 0.75514166E-01 0.14116248E+04</pdfrwt>
<pdfrwt beam="2">  1       -1 0.15614333E+00 0.14116248E+04</pdfrwt>
<totfact> 0.13852339E+01</totfact>
</mgrwt>
</event>
<event>
 6    1  0.9364335E-007  0.3789416E+04  0.7818608E-02  0.8048430E-01
          2   -1    0    0  501    0  0.00000000000E+00  0.00000000000E+00  0.30303847744E+04  0.30303847744E+04  0.00000000000E+00 0. -1.
         -2   -1    0    0    0  501 -0.00000000000E+00 -0.00000000000E+00 -0.11846411041E+04  0.11846411041E+04  0.00000000000E+00 0.  1.
         23    2    1    2    0    0 -0.10179427009E+04  0.57404839494E+03 -0.73397640776E+03  0.13829427965E+04  0.89836012758E+02 0.  0.
         11    1    3    3    0    0 -0.49192830159E+03  0.24394780375E+03 -0.30431725448E+03  0.62778417966E+03  0.00000000000E+00 0. -1.
        -11    1    3    3    0    0 -0.52601439934E+03  0.33010059119E+03 -0.42965915328E+03  0.75515861686E+03  0.00000000000E+00 0.  1.
         22    1    1    2    0    0  0.10179427009E+04 -0.57404839494E+03  0.25797200780E+04  0.28320830820E+04  0.00000000000E+00 0. -1.
<mgrwt>
<rscale>  0 0.37894160E+04</rscale>
<asrwt>0</asrwt>
<pdfrwt beam="1">  1        2 0.46621304E+00 0.37894160E+04</pdfrwt>
<pdfrwt beam="2">  1       -2 0.18225248E+00 0.37894160E+04</pdfrwt>
<totfact> 0.23377860E-01</totfact>
</mgrwt>
</event>
<event>
 6    1  0.9364335E-007  0.3159717E+04  0.7818608E-02  0.8199537E-01
         -2   -1    0    0    0  501 -0.00000000000E+00  0.00000000000E+00  0.33169120957E+04  0.33169120957E+04  0.00000000000E+00 0.  1.
          2   -1    0    0  501    0  0.00000000000E+00 -0.00000000000E+00 -0.75249313819E+03  0.75249313819E+03  0.00000000000E+00 0. -1.
         23    2    1    2    0    0  0.24601566826E+03 -0.88909710649E+03  0.29329750317E+04  0.30760015126E+04  0.91789949553E+02 0.  0.
         13    1    3    3    0    0  0.71906492599E+02 -0.39827618455E+03  0.13716419458E+04  0.14301035243E+04  0.00000000000E+00 0. -1.
        -13    1    3    3    0    0  0.17410917566E+03 -0.49082092194E+03  0.15613330859E+04  0.16458979882E+04  0.00000000000E+00 0.  1.
         22    1    1    2    0    0 -0.24601566826E+03  0.88909710649E+03 -0.36855607417E+03  0.99340372135E+03  0.00000000000E+00 0. -1.
<mgrwt>
<rscale>  0 0.31597175E+04</rscale>
<asrwt>0</asrwt>
<pdfrwt beam="1">  1        2 0.11576818E+00 0.31597175E+04</pdfrwt>
<pdfrwt beam="2">  1       -2 0.51029416E+00 0.31597175E+04</pdfrwt>
<totfact> 0.44861521E-02</totfact>
</mgrwt>
</event>
<event>
 6    1  0.9364335E-007  0.3682375E+04  0.7818608E-02  0.8071879E-01
          2   -1    0    0  501    0  0.00000000000E+00  0.00000000000E+00  0.26858832644E+04  0.26858832644E+04  0.00000000000E+00 0. -1.
         -2   -1    0    0    0  501 -0.00000000000E+00 -0.00000000000E+00 -0.12621443197E+04  0.12621443197E+04  0.00000000000E+00 0.  1.
         23    2    1    2    0    0  0.15181760878E+04 -0.10197180342E+04  0.49474745105E+03  0.18967575633E+04  0.90723263747E+02 0.  0.
         11    1    3    3    0    0  0.27426106634E+03 -0.17907943640E+03  0.12478486482E+03  0.35051367953E+03  0.00000000000E+00 0. -1.
        -11    1    3    3    0    0  0.12439150215E+04 -0.84063859777E+03  0.36996258623E+03  0.15462438837E+04  0.00000000000E+00 0.  1.
         22    1    1    2    0    0 -0.15181760878E+04  0.10197180342E+04  0.92899149369E+03  0.20512700208E+04  0.00000000000E+00 0.  1.
<mgrwt>
<rscale>  0 0.36823755E+04</rscale>
<asrwt>0</asrwt>
<pdfrwt beam="1">  1        2 0.41321281E+00 0.36823755E+04</pdfrwt>
<pdfrwt beam="2">  1       -2 0.19417605E+00 0.36823755E+04</pdfrwt>
<totfact> 0.31849227E-01</totfact>
</mgrwt>
</event>
<event>
 6    1  0.9364335E-007  0.4431095E+03  0.7818608E-02  0.1029797E+00
          1   -1    0    0  501    0  0.00000000000E+00  0.00000000000E+00  0.15185429197E+03  0.15185429197E+03  0.00000000000E+00 0. -1.
         -1   -1    0    0    0  501 -0.00000000000E+00 -0.00000000000E+00 -0.32324734978E+03  0.32324734978E+03  0.00000000000E+00 0.  1.
         23    2    1    2    0    0  0.12432382683E+03  0.11230078350E+03 -0.22899119099E+03  0.29794232126E+03  0.90910842871E+02 0.  0.
         11    1    3    3    0    0  0.69310541413E+02  0.43164167351E+02 -0.43576819797E+02  0.92552880656E+02  0.00000000000E+00 0. -1.
        -11    1    3    3    0    0  0.55013285418E+02  0.69136616152E+02 -0.18541437120E+03  0.20538944060E+03  0.00000000000E+00 0.  1.
         22    1    1    2    0    0 -0.12432382683E+03 -0.11230078350E+03  0.57598133182E+02  0.17715932050E+03  0.00000000000E+00 0.  1.
<mgrwt>
<rscale>  0 0.44310946E+03</rscale>
<asrwt>0</asrwt>
<pdfrwt beam="1">  1        1 0.23362199E-01 0.44310946E+03</pdfrwt>
<pdfrwt beam="2">  1       -1 0.49730361E-01 0.44310946E+03</pdfrwt>
<totfact> 0.86949081E+02</totfact>
</mgrwt>
</event>
<event>
 6    1  0.9364335E-007  0.2635714E+03  0.7818608E-02  0.1105016E+00
          1   -1    0    0  501    0  0.00000000000E+00  0.00000000000E+00  0.38167009692E+02  0.38167009692E+02  0.00000000000E+00 0. -1.
         -1   -1    0    0    0  501 -0.00000000000E+00 -0.00000000000E+00 -0.45503877756E+03  0.45503877756E+03  0.00000000000E+00 0.  1.
         23    2    1    2    0    0 -0.11881838847E+01  0.37742603242E+02 -0.43901614120E+03  0.44943034722E+03  0.88467784460E+02 0.  0.
         13    1    3    3    0    0  0.17209756872E+02  0.23507587906E+02 -0.38707477587E+02  0.48446374909E+02  0.00000000000E+00 0.  1.
        -13    1    3    3    0    0 -0.18397940757E+02  0.14235015336E+02 -0.40030866361E+03  0.40098397231E+03  0.00000000000E+00 0. -1.
         22    1    1    2    0    0  0.11881838847E+01 -0.37742603242E+02  0.22144373327E+02  0.43775440038E+02  0.00000000000E+00 0. -1.
<mgrwt>
<rscale>  0 0.26357139E+03</rscale>
<asrwt>0</asrwt>
<pdfrwt beam="1">  1        1 0.58718473E-02 0.26357139E+03</pdfrwt>
<pdfrwt beam="2">  1       -1 0.70005969E-01 0.26357139E+03</pdfrwt>
<totfact> 0.28420583E+03</totfact>
</mgrwt>
</event>
<event>
 6    1  0.9364335E-007  0.2924402E+04  0.7818608E-02  0.8265654E-01
         -1   -1    0    0    0  501 -0.00000000000E+00  0.00000000000E+00  0.16095132046E+04  0.16095132046E+04  0.00000000000E+00 0.  1.
          1   -1    0    0  501    0  0.00000000000E+00 -0.00000000000E+00 -0.13283718831E+04  0.13283718831E+04  0.00000000000E+00 0. -1.
         23    2    1    2    0    0 -0.42495038881E+02  0.78379108435E+03 -0.10969344623E+04  0.13519383174E+04  0.91311046317E+02 0.  0.
         11    1    3    3    0    0 -0.54148854129E+02  0.29498631238E+03 -0.45622523625E+03  0.54597663786E+03  0.00000000000E+00 0. -1.
        -11    1    3    3    0    0  0.11653815248E+02  0.48880477197E+03 -0.64070922605E+03  0.80596167952E+03  0.00000000000E+00 0.  1.
         22    1    1    2    0    0  0.42495038881E+02 -0.78379108435E+03  0.13780757838E+04  0.15859467703E+04  0.00000000000E+00 0.  1.
<mgrwt>
<rscale>  0 0.29244022E+04</rscale>
<asrwt>0</asrwt>
<pdfrwt beam="1">  1        1 0.20436490E+00 0.29244022E+04</pdfrwt>
<pdfrwt beam="2">  1       -1 0.24761742E+00 0.29244022E+04</pdfrwt>
<totfact> 0.53442063E-01</totfact>
</mgrwt>
</event>
<event>
 6    1  0.9364335E-007  0.3999068E+04  0.7818608E-02  0.8004735E-01
          2   -1    0    0  501    0  0.00000000000E+00  0.00000000000E+00  0.25048032853E+04  0.25048032853E+04  0.00000000000E+00 0. -1.
         -2   -1    0    0    0  501 -0.00000000000E+00 -0.00000000000E+00 -0.15961873784E+04  0.15961873784E+04  0.00000000000E+00 0.  1.
         23    2    1    2    0    0  0.18872194755E+04 -0.58030683447E+03  0.77142093099E+03  0.21218050150E+04  0.92805701926E+02 0.  0.
         13    1    3    3    0    0  0.89607055475E+03 -0.26524732776E+03  0.31653482477E+03  0.98665742751E+03  0.00000000000E+00 0. -1.
        -13    1    3    3    0    0  0.99114892072E+03 -0.31505950670E+03  0.45488610623E+03  0.11351475875E+04  0.00000000000E+00 0.  1.
         22    1    1    2    0    0 -0.18872194755E+04  0.58030683447E+03  0.13719497592E+03  0.19791856487E+04  0.00000000000E+00 0.  1.
<mgrwt>
<rscale>  0 0.39990676E+04</rscale>
<asrwt>0</asrwt>
<pdfrwt beam="1">  1        2 0.38535435E+00 0.39990676E+04</pdfrwt>
<pdfrwt beam="2">  1       -2 0.24556729E+00 0.39990676E+04</pdfrwt>
<totfact> 0.18674265E-01</totfact>
</mgrwt>
</event>
<event>
 6    1  0.9364335E-007  0.1197311E+04  0.7818608E-02  0.9115213E-01
          1   -1    0    0  501    0  0.00000000000E+00  0.00000000000E+00  0.39699499935E+03  0.39699499935E+03  0.00000000000E+00 0. -1.
         -1   -1    0    0    0  501 -0.00000000000E+00 -0.00000000000E+00 -0.90275303313E+03  0.90275303313E+03  0.00000000000E+00 0.  1.
         23    2    1    2    0    0  0.72358708681E+02 -0.59030624798E+03 -0.23031613026E+03  0.64433557354E+03  0.91790861985E+02 0.  0.
         13    1    3    3    0    0  0.16818955973E+02 -0.21016109285E+03 -0.12844452227E+03  0.24687761650E+03  0.00000000000E+00 0. -1.
        -13    1    3    3    0    0  0.55539752709E+02 -0.38014515512E+03 -0.10187160799E+03  0.39745795704E+03  0.00000000000E+00 0.  1.
         22    1    1    2    0    0 -0.72358708681E+02  0.59030624798E+03 -0.27544190351E+03  0.65541245894E+03  0.00000000000E+00 0. -1.
<mgrwt>
<rscale>  0 0.11973111E+04</rscale>
<asrwt>0</asrwt>
<pdfrwt beam="1">  1        1 0.61076155E-01 0.11973111E+04</pdfrwt>
<pdfrwt beam="2">  1       -1 0.13888508E+00 0.11973111E+04</pdfrwt>
<totfact> 0.25681864E+01</totfact>
</mgrwt>
</event>
<event>
 6    1  0.9364335E-007  0.7583823E+03  0.7818608E-02  0.9622291E-01
          1   -1    0    0  501    0  0.00000000000E+00  0.00000000000E+00  0.90834820242E+03  0.90834820242E+03  0.00000000000E+00 0. -1.
         -1   -1    0    0    0  501 -0.00000000000E+00 -0.00000000000E+00 -0.15829383830E+03  0.15829383830E+03  0.00000000000E+00 0.  1.
         23    2    1    2    0    0 -0.32213322532E+03 -0.31740699698E+02  0.64322903749E+03  0.72577705678E+03  0.90727364175E+02 0.  0.
         13    1    3    3    0    0 -0.64524503845E+02  0.12371444778E+02  0.71268122085E+02  0.96930952063E+02  0.00000000000E+00 0. -1.
        -13    1    3    3    0    0 -0.25760872147E+03 -0.44112144476E+02  0.57196091541E+03  0.62884610472E+03  0.00000000000E+00 0.  1.
         22    1    1    2    0    0  0.32213322532E+03  0.31740699698E+02  0.10682532663E+03  0.34086498394E+03  0.00000000000E+00 0.  1.
<mgrwt>
<rscale>  0 0.75838229E+03</rscale>
<asrwt>0</asrwt>
<pdfrwt beam="1">  1        1 0.13974587E+00 0.75838229E+03</pdfrwt>
<pdfrwt beam="2">  1       -1 0.24352899E-01 0.75838229E+03</pdfrwt>
<totfact> 0.26522187E+02</totfact>
</mgrwt>
</event>
<event>
 6    1  0.9364335E-007  0.1517178E+04  0.7818608E-02  0.8873110E-01
          2   -1    0    0  501    0  0.00000000000E+00  0.00000000000E+00  0.20953252162E+04  0.20953252162E+04  0.00000000000E+00 0. -1.
         -2   -1    0    0    0  501 -0.00000000000E+00 -0.00000000000E+00 -0.27463860139E+03  0.27463860139E+03  0.00000000000E+00 0.  1.
         23    2    1    2    0    0  0.24045518602E+03 -0.35339266988E+03 -0.60197766800E+02  0.44112190271E+03  0.90882816396E+02 0.  0.
         11    1    3    3    0    0  0.52699201539E+02 -0.12871135374E+03  0.11845078861E+02  0.13958554480E+03  0.00000000000E+00 0.  1.
        -11    1    3    3    0    0  0.18775598448E+03 -0.22468131614E+03 -0.72042845661E+02  0.30153635791E+03  0.00000000000E+00 0. -1.
         22    1    1    2    0    0 -0.24045518602E+03  0.35339266988E+03  0.18808843816E+04  0.19288419149E+04  0.00000000000E+00 0.  1.
<mgrwt>
<rscale>  0 0.15171779E+04</rscale>
<asrwt>0</asrwt>
<pdfrwt beam="1">  1        2 0.32235772E+00 0.15171779E+04</pdfrwt>
<pdfrwt beam="2">  1       -2 0.42252094E-01 0.15171779E+04</pdfrwt>
<totfact> 0.30303635E+01</totfact>
</mgrwt>
</event>
<event>
 6    1  0.9364335E-007  0.9213253E+03  0.7818608E-02  0.9399309E-01
         -1   -1    0    0    0  501 -0.00000000000E+00  0.00000000000E+00  0.11064294757E+03  0.11064294757E+03  0.00000000000E+00 0.  1.
          1   -1    0    0  501    0  0.00000000000E+00 -0.00000000000E+00 -0.19179719705E+04  0.19179719705E+04  0.00000000000E+00 0. -1.
         23    2    1    2    0    0 -0.43560389564E+03  0.80820684137E+02 -0.11501617139E+04  0.12360547570E+04  0.93148576052E+02 0.  0.
         13    1    3    3    0    0 -0.16561933634E+03  0.52434805691E+00 -0.52169544667E+03  0.54735379654E+03  0.00000000000E+00 0. -1.
        -13    1    3    3    0    0 -0.26998455931E+03  0.80296336080E+02 -0.62846626725E+03  0.68870096045E+03  0.00000000000E+00 0.  1.
         22    1    1    2    0    0  0.43560389564E+03 -0.80820684137E+02 -0.65716730897E+03  0.79256016104E+03  0.00000000000E+00 0.  1.
<mgrwt>
<rscale>  0 0.92132529E+03</rscale>
<asrwt>0</asrwt>
<pdfrwt beam="1">  1        1 0.29507259E+00 0.92132529E+03</pdfrwt>
<pdfrwt beam="2">  1       -1 0.17021993E-01 0.92132529E+03</pdfrwt>
<totfact> 0.91746766E+01</totfact>
</mgrwt>
</event>
<event>
 6    1  0.9364335E-007  0.3811794E+04  0.7818608E-02  0.8043629E-01
         -2   -1    0    0    0  501 -0.00000000000E+00  0.00000000000E+00  0.12059523631E+04  0.12059523631E+04  0.00000000000E+00 0.  1.
          2   -1    0    0  501    0  0.00000000000E+00 -0.00000000000E+00 -0.30120956328E+04  0.30120956328E+04  0.00000000000E+00 0. -1.
         23    2    1    2    0    0  0.11183793064E+04 -0.36657736210E+03  0.75368310587E+03  0.14006267798E+04  0.92552237611E+02 0.  0.
         11    1    3    3    0    0  0.87730669212E+03 -0.31382997140E+03  0.62857337822E+03  0.11239487421E+04  0.00000000000E+00 0.  1.
        -11    1    3    3    0    0  0.24107261432E+03 -0.52747390706E+02  0.12510972766E+03  0.27667803772E+03  0.00000000000E+00 0. -1.
         22    1    1    2    0    0 -0.11183793064E+04  0.36657736210E+03 -0.25598263756E+04  0.28174212160E+04  0.00000000000E+00 0. -1.
<mgrwt>
<rscale>  0 0.38117942E+04</rscale>
<asrwt>0</asrwt>
<pdfrwt beam="1">  1        2 0.46339933E+00 0.38117942E+04</pdfrwt>
<pdfrwt beam="2">  1       -2 0.18553113E+00 0.38117942E+04</pdfrwt>
<totfact> 0.22758284E-01</totfact>
</mgrwt>
</event>
<event>
 6    1  0.9364335E-007  0.5654420E+04  0.7818608E-02  0.7734791E-01
         -2   -1    0    0    0  501 -0.00000000000E+00  0.00000000000E+00  0.32598850870E+04  0.32598850870E+04  0.00000000000E+00 0.  1.
          2   -1    0    0  501    0  0.00000000000E+00 -0.00000000000E+00 -0.24519624320E+04  0.24519624320E+04  0.00000000000E+00 0. -1.
         23    2    1    2    0    0  0.92627729182E+03 -0.26692956152E+04  0.48137242792E+03  0.28675965186E+04  0.90893764309E+02 0.  0.
         11    1    3    3    0    0  0.15500035092E+03 -0.36636701932E+03  0.50071584234E+02  0.40094521469E+03  0.00000000000E+00 0. -1.
        -11    1    3    3    0    0  0.77127694090E+03 -0.23029285959E+04  0.43130084368E+03  0.24666513039E+04  0.00000000000E+00 0.  1.
         22    1    1    2    0    0 -0.92627729182E+03  0.26692956152E+04  0.32655022706E+03  0.28442510004E+04  0.00000000000E+00 0. -1.
<mgrwt>
<rscale>  0 0.56544198E+04</rscale>
<asrwt>0</asrwt>
<pdfrwt beam="1">  1        2 0.37722499E+00 0.56544198E+04</pdfrwt>
<pdfrwt beam="2">  1       -2 0.50152079E+00 0.56544198E+04</pdfrwt>
<totfact> 0.41841890E-03</totfact>
</mgrwt>
</event>
<event>
 6    1  0.9364335E-007  0.1490713E+04  0.7818608E-02  0.8890653E-01
         -2   -1    0    0    0  501 -0.00000000000E+00  0.00000000000E+00  0.32074817226E+03  0.32074817226E+03  0.00000000000E+00 0.  1.
          2   -1    0    0  501    0  0.00000000000E+00 -0.00000000000E+00 -0.17320629382E+04  0.17320629382E+04  0.00000000000E+00 0. -1.
         23    2    1    2    0    0 -0.32652777493E+03  0.22751889385E+03  0.15550917048E+03  0.43623371280E+03  0.87929035133E+02 0.  0.
         13    1    3    3    0    0 -0.18663211236E+03  0.13794198670E+03  0.44134519780E+02  0.23623588401E+03  0.00000000000E+00 0.  1.
        -13    1    3    3    0    0 -0.13989566257E+03  0.89576907147E+02  0.11137465070E+03  0.19999782879E+03  0.00000000000E+00 0. -1.
         22    1    1    2    0    0  0.32652777493E+03 -0.22751889385E+03 -0.15668239365E+04  0.16165773977E+04  0.00000000000E+00 0. -1.
<mgrwt>
<rscale>  0 0.14907126E+04</rscale>
<asrwt>0</asrwt>
<pdfrwt beam="1">  1        2 0.26647122E+00 0.14907126E+04</pdfrwt>
<pdfrwt beam="2">  1       -2 0.49345872E-01 0.14907126E+04</pdfrwt>
<totfact> 0.35372523E+01</totfact>
</mgrwt>
</event>
<event>
 6    1  0.9364335E-007  0.1347083E+04  0.7818608E-02  0.8993039E-01
          2   -1    0    0  501    0  0.00000000000E+00  0.00000000000E+00  0.26723803978E+04  0.26723803978E+04  0.00000000000E+00 0. -1.
         -2   -1    0    0    0  501 -0.00000000000E+00 -0.00000000000E+00 -0.16975813245E+03  0.16975813245E+03  0.00000000000E+00 0.  1.
         23    2    1    2    0    0  0.35940814932E+03  0.55668342166E+03  0.10401244630E+04  0.12365325787E+04  0.89907007037E+02 0.  0.
         13    1    3    3    0    0  0.14719103778E+03  0.29764593700E+03  0.56290950999E+03  0.65354833169E+03  0.00000000000E+00 0. -1.
        -13    1    3    3    0    0  0.21221711154E+03  0.25903748466E+03  0.47721495297E+03  0.58298424698E+03  0.00000000000E+00 0.  1.
         22    1    1    2    0    0 -0.35940814932E+03 -0.55668342166E+03  0.14624978023E+04  0.16056059515E+04  0.00000000000E+00 0.  1.
<mgrwt>
<rscale>  0 0.13470832E+04</rscale>
<asrwt>0</asrwt>
<pdfrwt beam="1">  1        2 0.41113542E+00 0.13470832E+04</pdfrwt>
<pdfrwt beam="2">  1       -2 0.26116638E-01 0.13470832E+04</pdfrwt>
<totfact> 0.35912253E+01</totfact>
</mgrwt>
</event>
<event>
 6    1  0.9364335E-007  0.4902053E+04  0.7818608E-02  0.7843797E-01
          2   -1    0    0  501    0  0.00000000000E+00  0.00000000000E+00  0.28304660228E+04  0.28304660228E+04  0.00000000000E+00 0. -1.
         -2   -1    0    0    0  501 -0.00000000000E+00 -0.00000000000E+00 -0.21224526882E+04  0.21224526882E+04  0.00000000000E+00 0.  1.
         23    2    1    2    0    0  0.84623707525E+03  0.22896438746E+04  0.14082363102E+03  0.24468679494E+04  0.93515810137E+02 0.  0.
         11    1    3    3    0    0  0.35859207356E+03  0.84835237620E+03  0.69522428564E+02  0.92364679261E+03  0.00000000000E+00 0. -1.
        -11    1    3    3    0    0  0.48764500169E+03  0.14412914984E+04  0.71301202451E+02  0.15232211568E+04  0.00000000000E+00 0.  1.
         22    1    1    2    0    0 -0.84623707525E+03 -0.22896438746E+04  0.56718970358E+03  0.25060507617E+04  0.00000000000E+00 0. -1.
<mgrwt>
<rscale>  0 0.49020527E+04</rscale>
<asrwt>0</asrwt>
<pdfrwt beam="1">  1        2 0.43545631E+00 0.49020527E+04</pdfrwt>
<pdfrwt beam="2">  1       -2 0.32653118E+00 0.49020527E+04</pdfrwt>
<totfact> 0.35460192E-02</totfact>
</mgrwt>
</event>
<event>
 6    1  0.9364335E-007  0.2510901E+04  0.7818608E-02  0.8399112E-01
         -2   -1    0    0    0  501 -0.00000000000E+00  0.00000000000E+00  0.16598470720E+04  0.16598470720E+04  0.00000000000E+00 0.  1.
          2   -1    0    0  501    0  0.00000000000E+00 -0.00000000000E+00 -0.94957873394E+03  0.94957873394E+03  0.00000000000E+00 0. -1.
         23    2    1    2    0    0  0.94443206406E+02 -0.31522192678E+03 -0.90164314129E+03  0.96426836678E+03  0.92567524441E+02 0.  0.
         13    1    3    3    0    0  0.33792559281E+02 -0.68642297416E+02 -0.33017736071E+03  0.33892593820E+03  0.00000000000E+00 0. -1.
        -13    1    3    3    0    0  0.60650647125E+02 -0.24657962936E+03 -0.57146578058E+03  0.62534242858E+03  0.00000000000E+00 0.  1.
         22    1    1    2    0    0 -0.94443206406E+02  0.31522192678E+03  0.16119114793E+04  0.16451574391E+04  0.00000000000E+00 0.  1.
<mgrwt>
<rscale>  0 0.25109006E+04</rscale>
<asrwt>0</asrwt>
<pdfrwt beam="1">  1        2 0.14608904E+00 0.25109006E+04</pdfrwt>
<pdfrwt beam="2">  1       -2 0.25536109E+00 0.25109006E+04</pdfrwt>
<totfact> 0.14418641E+00</totfact>
</mgrwt>
</event>
<event>
 6    1  0.9364335E-007  0.1384593E+04  0.7818608E-02  0.8965047E-01
          1   -1    0    0  501    0  0.00000000000E+00  0.00000000000E+00  0.17214988852E+04  0.17214988852E+04  0.00000000000E+00 0. -1.
         -1   -1    0    0    0  501 -0.00000000000E+00 -0.00000000000E+00 -0.27840544793E+03  0.27840544793E+03  0.00000000000E+00 0.  1.
         23    2    1    2    0    0 -0.17587859911E+03 -0.62598754918E+03  0.39392345030E+03  0.76558210822E+03  0.90258442159E+02 0.  0.
         11    1    3    3    0    0 -0.12135418130E+03 -0.30172329656E+03  0.16297540042E+03  0.36376471262E+03  0.00000000000E+00 0.  1.
        -11    1    3    3    0    0 -0.54524417810E+02 -0.32426425262E+03  0.23094804988E+03  0.40181739560E+03  0.00000000000E+00 0. -1.
         22    1    1    2    0    0  0.17587859911E+03  0.62598754918E+03  0.10491699870E+04  0.12343222249E+04  0.00000000000E+00 0.  1.
<mgrwt>
<rscale>  0 0.13845933E+04</rscale>
<asrwt>0</asrwt>
<pdfrwt beam="1">  1        1 0.26484598E+00 0.13845933E+04</pdfrwt>
<pdfrwt beam="2">  1       -1 0.42831608E-01 0.13845933E+04</pdfrwt>
<totfact> 0.24155988E+01</totfact>
</mgrwt>
</event>
<event>
 6    1  0.9364335E-007  0.7342664E+03  0.7818608E-02  0.9660362E-01
         -1   -1    0    0    0  501 -0.00000000000E+00  0.00000000000E+00  0.16033532667E+03  0.16033532667E+03  0.00000000000E+00 0.  1.
          1   -1    0    0  501    0  0.00000000000E+00 -0.00000000000E+00 -0.84065563312E+03  0.84065563312E+03  0.00000000000E+00 0. -1.
         23    2    1    2    0    0 -0.22348713879E+03 -0.11145561312E+03  0.11134615539E+02  0.26581835145E+03  0.90369029002E+02 0.  0.
         11    1    3    3    0    0 -0.13418793289E+03 -0.59222333576E+02  0.50503973473E+02  0.15512684314E+03  0.00000000000E+00 0.  1.
        -11    1    3    3    0    0 -0.89299205907E+02 -0.52233279546E+02 -0.39369357934E+02  0.11069150831E+03  0.00000000000E+00 0. -1.
         22    1    1    2    0    0  0.22348713879E+03  0.11145561312E+03 -0.69145492199E+03  0.73517260833E+03  0.00000000000E+00 0. -1.
<mgrwt>
<rscale>  0 0.73426642E+03</rscale>
<asrwt>0</asrwt>
<pdfrwt beam="1">  1        1 0.12933164E+00 0.73426642E+03</pdfrwt>
<pdfrwt beam="2">  1       -1 0.24666973E-01 0.73426642E+03</pdfrwt>
<totfact> 0.29552267E+02</totfact>
</mgrwt>
</event>
<event>
 6    1  0.9364335E-007  0.2532006E+04  0.7818608E-02  0.8391671E-01
          1   -1    0    0  501    0  0.00000000000E+00  0.00000000000E+00  0.12074797141E+04  0.12074797141E+04  0.00000000000E+00 0. -1.
         -1   -1    0    0    0  501 -0.00000000000E+00 -0.00000000000E+00 -0.13273628278E+04  0.13273628278E+04  0.00000000000E+00 0.  1.
         23    2    1    2    0    0  0.39169957649E+03 -0.71028322197E+03  0.91095912958E+03  0.12231388619E+04  0.91056719471E+02 0.  0.
         13    1    3    3    0    0  0.20351889728E+03 -0.37679299962E+03  0.54850454966E+03  0.69588084261E+03  0.00000000000E+00 0.  1.
        -13    1    3    3    0    0  0.18818067922E+03 -0.33349022236E+03  0.36245457992E+03  0.52725801933E+03  0.00000000000E+00 0. -1.
         22    1    1    2    0    0 -0.39169957649E+03  0.71028322197E+03 -0.10308422432E+04  0.13117036800E+04  0.00000000000E+00 0. -1.
<mgrwt>
<rscale>  0 0.25320061E+04</rscale>
<asrwt>0</asrwt>
<pdfrwt beam="1">  1        1 0.18576611E+00 0.25320061E+04</pdfrwt>
<pdfrwt beam="2">  1       -1 0.20420967E+00 0.25320061E+04</pdfrwt>
<totfact> 0.13162471E+00</totfact>
</mgrwt>
</event>
<event>
 6    1  0.1082959E-006  0.3141396E+04  0.7818608E-02  0.8204468E-01
          2   -1    0    0  501    0  0.00000000000E+00  0.00000000000E+00  0.29017459058E+04  0.29017459058E+04  0.00000000000E+00 0. -1.
         -2   -1    0    0    0  501 -0.00000000000E+00 -0.00000000000E+00 -0.85020982319E+03  0.85020982319E+03  0.00000000000E+00 0.  1.
         23    2    1    2    0    0 -0.89732765595E+03 -0.11715919886E+02 -0.51104974228E+03  0.10367798056E+04  0.91686102223E+02 0.  0.
         13    1    3    3    0    0 -0.38136042090E+03 -0.43600959936E+02 -0.24517144577E+03  0.45546224010E+03  0.00000000000E+00 0.  1.
        -13    1    3    3    0    0 -0.51596723505E+03  0.31885040050E+02 -0.26587829652E+03  0.58131756552E+03  0.00000000000E+00 0. -1.
         22    1    1    2    0    0  0.89732765595E+03  0.11715919886E+02  0.25625858249E+04  0.27151759233E+04  0.00000000000E+00 0. -1.
<mgrwt>
<rscale>  0 0.31413964E+04</rscale>
<asrwt>0</asrwt>
<pdfrwt beam="1">  1        2 0.44642244E+00 0.31413964E+04</pdfrwt>
<pdfrwt beam="2">  1       -2 0.13080151E+00 0.31413964E+04</pdfrwt>
<totfact> 0.72464120E-01</totfact>
</mgrwt>
</event>
<event>
 6    1  0.2193483E-006  0.3751523E+04  0.7818608E-02  0.8056639E-01
         -2   -1    0    0    0  501 -0.00000000000E+00  0.00000000000E+00  0.14543753043E+04  0.14543753043E+04  0.00000000000E+00 0.  1.
          2   -1    0    0  501    0  0.00000000000E+00 -0.00000000000E+00 -0.24192389284E+04  0.24192389284E+04  0.00000000000E+00 0. -1.
         23    2    1    2    0    0  0.12599718076E+03  0.33623214549E+03 -0.23828917925E+04  0.24108322149E+04  0.70790736387E+02 0.  0.
         11    1    3    3    0    0  0.42878007228E+02  0.74380460125E+02 -0.40900543892E+03  0.41791916134E+03  0.00000000000E+00 0.  1.
        -11    1    3    3    0    0  0.83119173527E+02  0.26185168536E+03 -0.19738863536E+04  0.19929130536E+04  0.00000000000E+00 0. -1.
         22    1    1    2    0    0 -0.12599718076E+03 -0.33623214549E+03  0.14180281684E+04  0.14627820178E+04  0.00000000000E+00 0.  1.
<mgrwt>
<rscale>  0 0.37515231E+04</rscale>
<asrwt>0</asrwt>
<pdfrwt beam="1">  1        2 0.37219060E+00 0.37515231E+04</pdfrwt>
<pdfrwt beam="2">  1       -2 0.22375005E+00 0.37515231E+04</pdfrwt>
<totfact> 0.29197624E-01</totfact>
</mgrwt>
</event>
<event>
 6    1  0.9364335E-007  0.1732909E+04  0.7818608E-02  0.8742815E-01
         -1   -1    0    0    0  501 -0.00000000000E+00  0.00000000000E+00  0.69724355330E+03  0.69724355330E+03  0.00000000000E+00 0.  1.
          1   -1    0    0  501    0  0.00000000000E+00 -0.00000000000E+00 -0.10767303228E+04  0.10767303228E+04  0.00000000000E+00 0. -1.
         23    2    1    2    0    0 -0.23555612000E+03  0.51173141686E+03  0.48023195996E+03  0.74612562735E+03  0.93407642839E+02 0.  0.
         11    1    3    3    0    0 -0.14743730457E+03  0.24179630992E+03  0.28321163698E+03  0.40051472581E+03  0.00000000000E+00 0.  1.
        -11    1    3    3    0    0 -0.88118815429E+02  0.26993510694E+03  0.19702032299E+03  0.34561090154E+03  0.00000000000E+00 0. -1.
         22    1    1    2    0    0  0.23555612000E+03 -0.51173141686E+03 -0.85971872947E+03  0.10278482488E+04  0.00000000000E+00 0. -1.
<mgrwt>
<rscale>  0 0.17329089E+04</rscale>
<asrwt>0</asrwt>
<pdfrwt beam="1">  1        1 0.16565082E+00 0.17329089E+04</pdfrwt>
<pdfrwt beam="2">  1       -1 0.10726824E+00 0.17329089E+04</pdfrwt>
<totfact> 0.10148789E+01</totfact>
</mgrwt>
</event>
<event>
 6    1  0.9364335E-007  0.1668076E+04  0.7818608E-02  0.8779784E-01
          2   -1    0    0  501    0  0.00000000000E+00  0.00000000000E+00  0.22849599450E+04  0.22849599450E+04  0.00000000000E+00 0. -1.
         -2   -1    0    0    0  501 -0.00000000000E+00 -0.00000000000E+00 -0.30443409831E+03  0.30443409831E+03  0.00000000000E+00 0.  1.
         23    2    1    2    0    0 -0.42228398893E+03  0.44112496304E+02 -0.11652054358E+03  0.44979752933E+03  0.92038582553E+02 0.  0.
         11    1    3    3    0    0 -0.15060525408E+03  0.58802021894E+02 -0.31224828832E+02  0.16466514589E+03  0.00000000000E+00 0.  1.
        -11    1    3    3    0    0 -0.27167873485E+03 -0.14689525591E+02 -0.85295714749E+02  0.28513238344E+03  0.00000000000E+00 0. -1.
         22    1    1    2    0    0  0.42228398893E+03 -0.44112496304E+02  0.20970463903E+04  0.21395965140E+04  0.00000000000E+00 0. -1.
<mgrwt>
<rscale>  0 0.16680764E+04</rscale>
<asrwt>0</asrwt>
<pdfrwt beam="1">  1        2 0.35153229E+00 0.16680764E+04</pdfrwt>
<pdfrwt beam="2">  1       -2 0.46836017E-01 0.16680764E+04</pdfrwt>
<totfact> 0.19076182E+01</totfact>
</mgrwt>
</event>
<event>
 6    1  0.9364335E-007  0.3126641E+04  0.7818608E-02  0.8208464E-01
         -1   -1    0    0    0  501 -0.00000000000E+00  0.00000000000E+00  0.65583259720E+03  0.65583259720E+03  0.00000000000E+00 0.  1.
          1   -1    0    0  501    0  0.00000000000E+00 -0.00000000000E+00 -0.37265155691E+04  0.37265155691E+04  0.00000000000E+00 0. -1.
         23    2    1    2    0    0 -0.10938217449E+04 -0.64510396084E+03 -0.26184782460E+03  0.12997907841E+04  0.91031144580E+02 0.  0.
         11    1    3    3    0    0 -0.39618847537E+03 -0.20581650607E+03 -0.55123361923E+02  0.44984922720E+03  0.00000000000E+00 0. -1.
        -11    1    3    3    0    0 -0.69763326952E+03 -0.43928745477E+03 -0.20672446267E+03  0.84994155689E+03  0.00000000000E+00 0.  1.
         22    1    1    2    0    0  0.10938217449E+04  0.64510396084E+03 -0.28088351473E+04  0.30825573822E+04  0.00000000000E+00 0. -1.
<mgrwt>
<rscale>  0 0.31266406E+04</rscale>
<asrwt>0</asrwt>
<pdfrwt beam="1">  1        1 0.57331009E+00 0.31266406E+04</pdfrwt>
<pdfrwt beam="2">  1       -1 0.10089732E+00 0.31266406E+04</pdfrwt>
<totfact> 0.12882524E-01</totfact>
</mgrwt>
</event>
<event>
 6    1  0.9364335E-007  0.2635780E+04  0.7818608E-02  0.8356148E-01
         -2   -1    0    0    0  501 -0.00000000000E+00  0.00000000000E+00  0.57698483711E+03  0.57698483711E+03  0.00000000000E+00 0.  1.
          2   -1    0    0  501    0  0.00000000000E+00 -0.00000000000E+00 -0.30101904682E+04  0.30101904682E+04  0.00000000000E+00 0. -1.
         23    2    1    2    0    0  0.11922756535E+04  0.55563712832E+03 -0.11499981533E+04  0.17495476816E+04  0.90374141796E+02 0.  0.
         11    1    3    3    0    0  0.95908311487E+03  0.41903661775E+03 -0.94806138290E+03  0.14121800501E+04  0.00000000000E+00 0.  1.
        -11    1    3    3    0    0  0.23319253859E+03  0.13660051057E+03 -0.20193677036E+03  0.33736763148E+03  0.00000000000E+00 0. -1.
         22    1    1    2    0    0 -0.11922756535E+04 -0.55563712832E+03 -0.12832074778E+04  0.18376276237E+04  0.00000000000E+00 0.  1.
<mgrwt>
<rscale>  0 0.26357802E+04</rscale>
<asrwt>0</asrwt>
<pdfrwt beam="1">  1        2 0.46310623E+00 0.26357802E+04</pdfrwt>
<pdfrwt beam="2">  1       -2 0.88766898E-01 0.26357802E+04</pdfrwt>
<totfact> 0.16505440E+00</totfact>
</mgrwt>
</event>
<event>
 6    1  0.9364335E-007  0.1754612E+04  0.7818608E-02  0.8730816E-01
          1   -1    0    0  501    0  0.00000000000E+00  0.00000000000E+00  0.19639194940E+04  0.19639194940E+04  0.00000000000E+00 0. -1.
         -1   -1    0    0    0  501 -0.00000000000E+00 -0.00000000000E+00 -0.39190278975E+03  0.39190278975E+03  0.00000000000E+00 0.  1.
         23    2    1    2    0    0 -0.43895166121E+03 -0.54181326106E+03  0.78613665295E+02  0.70764365037E+03  0.91319531291E+02 0.  0.
         13    1    3    3    0    0 -0.18934530918E+03 -0.28739545284E+03  0.69513220842E+02  0.35111234711E+03  0.00000000000E+00 0. -1.
        -13    1    3    3    0    0 -0.24960635203E+03 -0.25441780823E+03  0.91004444528E+01  0.35653130327E+03  0.00000000000E+00 0.  1.
         22    1    1    2    0    0  0.43895166121E+03  0.54181326106E+03  0.14934030390E+04  0.16481786334E+04  0.00000000000E+00 0. -1.
<mgrwt>
<rscale>  0 0.17546117E+04</rscale>
<asrwt>0</asrwt>
<pdfrwt beam="1">  1        1 0.30214146E+00 0.17546117E+04</pdfrwt>
<pdfrwt beam="2">  1       -1 0.60292738E-01 0.17546117E+04</pdfrwt>
<totfact> 0.83320491E+00</totfact>
</mgrwt>
</event>
<event>
 6    1  0.1225052E-006  0.2631732E+04  0.7818608E-02  0.8357502E-01
         -2   -1    0    0    0  501 -0.00000000000E+00  0.00000000000E+00  0.75819550971E+03  0.75819550971E+03  0.00000000000E+00 0.  1.
          2   -1    0    0  501    0  0.00000000000E+00 -0.00000000000E+00 -0.22837158171E+04  0.22837158171E+04  0.00000000000E+00 0. -1.
         23    2    1    2    0    0  0.86987864319E+03  0.13486049481E+03 -0.18918932704E+04  0.20884411621E+04  0.86314157986E+02 0.  0.
         13    1    3    3    0    0  0.54352986876E+03  0.11343614135E+03 -0.11182721961E+04  0.12485292071E+04  0.00000000000E+00 0.  1.
        -13    1    3    3    0    0  0.32634877443E+03  0.21424353460E+02 -0.77362107432E+03  0.83991195498E+03  0.00000000000E+00 0. -1.
         22    1    1    2    0    0 -0.86987864319E+03 -0.13486049481E+03  0.36637296305E+03  0.95347016471E+03  0.00000000000E+00 0.  1.
<mgrwt>
<rscale>  0 0.26317318E+04</rscale>
<asrwt>0</asrwt>
<pdfrwt beam="1">  1        2 0.35134089E+00 0.26317318E+04</pdfrwt>
<pdfrwt beam="2">  1       -2 0.11664546E+00 0.26317318E+04</pdfrwt>
<totfact> 0.23265191E+00</totfact>
</mgrwt>
</event>
<event>
 6    1  0.9364335E-007  0.3778815E+04  0.7818608E-02  0.8050717E-01
          1   -1    0    0  501    0  0.00000000000E+00  0.00000000000E+00  0.18779211290E+04  0.18779211290E+04  0.00000000000E+00 0. -1.
         -1   -1    0    0    0  501 -0.00000000000E+00 -0.00000000000E+00 -0.19009636404E+04  0.19009636404E+04  0.00000000000E+00 0.  1.
         23    2    1    2    0    0  0.14920604769E+04  0.11383952322E+04  0.19546048728E+03  0.18894584724E+04  0.98287054953E+02 0.  0.
         13    1    3    3    0    0  0.72407576937E+03  0.53688816569E+03  0.14165997840E+03  0.91247036759E+03  0.00000000000E+00 0. -1.
        -13    1    3    3    0    0  0.76798470753E+03  0.60150706655E+03  0.53800508881E+02  0.97698810477E+03  0.00000000000E+00 0.  1.
         22    1    1    2    0    0 -0.14920604769E+04 -0.11383952322E+04 -0.21850299869E+03  0.18894262970E+04  0.00000000000E+00 0.  1.
<mgrwt>
<rscale>  0 0.37788145E+04</rscale>
<asrwt>0</asrwt>
<pdfrwt beam="1">  1        1 0.28891094E+00 0.37788145E+04</pdfrwt>
<pdfrwt beam="2">  1       -1 0.29245594E+00 0.37788145E+04</pdfrwt>
<totfact> 0.10624530E-01</totfact>
</mgrwt>
</event>
<event>
 6    1  0.9364335E-007  0.2625764E+04  0.7818608E-02  0.8359502E-01
         -1   -1    0    0    0  501 -0.00000000000E+00  0.00000000000E+00  0.12150834680E+04  0.12150834680E+04  0.00000000000E+00 0.  1.
          1   -1    0    0  501    0  0.00000000000E+00 -0.00000000000E+00 -0.14185525202E+04  0.14185525202E+04  0.00000000000E+00 0. -1.
         23    2    1    2    0    0  0.11931199177E+04 -0.47375241741E+03 -0.36930302274E+03  0.13392336563E+04  0.95841391560E+02 0.  0.
         13    1    3    3    0    0  0.39805951704E+03 -0.17587144480E+03 -0.16938206476E+03  0.46698225669E+03  0.00000000000E+00 0. -1.
        -13    1    3    3    0    0  0.79506040070E+03 -0.29788097261E+03 -0.19992095798E+03  0.87225139956E+03  0.00000000000E+00 0.  1.
         22    1    1    2    0    0 -0.11931199177E+04  0.47375241741E+03  0.16583397059E+03  0.12944023319E+04  0.00000000000E+00 0.  1.
<mgrwt>
<rscale>  0 0.26257644E+04</rscale>
<asrwt>0</asrwt>
<pdfrwt beam="1">  1        1 0.21823885E+00 0.26257644E+04</pdfrwt>
<pdfrwt beam="2">  1       -1 0.18693592E+00 0.26257644E+04</pdfrwt>
<totfact> 0.12168352E+00</totfact>
</mgrwt>
</event>
<event>
 6    1  0.9364335E-007  0.2058562E+04  0.7818608E-02  0.8579720E-01
         -2   -1    0    0    0  501 -0.00000000000E+00  0.00000000000E+00  0.29912466993E+03  0.29912466993E+03  0.00000000000E+00 0.  1.
          2   -1    0    0  501    0  0.00000000000E+00 -0.00000000000E+00 -0.35417311231E+04  0.35417311231E+04  0.00000000000E+00 0. -1.
         23    2    1    2    0    0 -0.86313333359E+03  0.32337070903E+03 -0.77852166129E+03  0.12100229157E+04  0.92150487572E+02 0.  0.
         11    1    3    3    0    0 -0.67353175045E+03  0.23742873516E+03 -0.55398702853E+03  0.90383574333E+03  0.00000000000E+00 0.  1.
        -11    1    3    3    0    0 -0.18960158314E+03  0.85941973870E+02 -0.22453463276E+03  0.30618717235E+03  0.00000000000E+00 0. -1.
         22    1    1    2    0    0  0.86313333359E+03 -0.32337070903E+03 -0.24640847919E+04  0.26308328774E+04  0.00000000000E+00 0. -1.
<mgrwt>
<rscale>  0 0.20585618E+04</rscale>
<asrwt>0</asrwt>
<pdfrwt beam="1">  1        2 0.54488175E+00 0.20585618E+04</pdfrwt>
<pdfrwt beam="2">  1       -2 0.46019177E-01 0.20585618E+04</pdfrwt>
<totfact> 0.31621794E+00</totfact>
</mgrwt>
</event>
<event>
 6    1  0.9364335E-007  0.1520803E+04  0.7818608E-02  0.8870736E-01
         -2   -1    0    0    0  501 -0.00000000000E+00  0.00000000000E+00  0.25937451992E+03  0.25937451992E+03  0.00000000000E+00 0.  1.
          2   -1    0    0  501    0  0.00000000000E+00 -0.00000000000E+00 -0.22292491505E+04  0.22292491505E+04  0.00000000000E+00 0. -1.
         23    2    1    2    0    0  0.48744709440E+03  0.16175712517E+03 -0.19000756286E+04  0.19703168712E+04  0.89950771395E+02 0.  0.
         11    1    3    3    0    0  0.43481686929E+03  0.13000893268E+03 -0.17555682707E+04  0.18132810001E+04  0.00000000000E+00 0.  1.
        -11    1    3    3    0    0  0.52630225109E+02  0.31748192487E+02 -0.14450735795E+03  0.15703587113E+03  0.00000000000E+00 0. -1.
         22    1    1    2    0    0 -0.48744709440E+03 -0.16175712517E+03 -0.69799001953E+02  0.51830679916E+03  0.00000000000E+00 0.  1.
<mgrwt>
<rscale>  0 0.15208030E+04</rscale>
<asrwt>0</asrwt>
<pdfrwt beam="1">  1        2 0.34296140E+00 0.15208030E+04</pdfrwt>
<pdfrwt beam="2">  1       -2 0.39903774E-01 0.15208030E+04</pdfrwt>
<totfact> 0.28530784E+01</totfact>
</mgrwt>
</event>
<event>
 6    1  0.9364335E-007  0.2028288E+04  0.7818608E-02  0.8593508E-01
          1   -1    0    0  501    0  0.00000000000E+00  0.00000000000E+00  0.54513395745E+03  0.54513395745E+03  0.00000000000E+00 0. -1.
         -1   -1    0    0    0  501 -0.00000000000E+00 -0.00000000000E+00 -0.18866697000E+04  0.18866697000E+04  0.00000000000E+00 0.  1.
         23    2    1    2    0    0  0.24213941257E+03 -0.49369931092E+03 -0.16908756252E+04  0.17803369596E+04  0.90381442212E+02 0.  0.
         13    1    3    3    0    0  0.18852377605E+03 -0.31264586545E+03 -0.10188138294E+04  0.10822524060E+04  0.00000000000E+00 0. -1.
        -13    1    3    3    0    0  0.53615636520E+02 -0.18105344547E+03 -0.67206179587E+03  0.69808455366E+03  0.00000000000E+00 0.  1.
         22    1    1    2    0    0 -0.24213941257E+03  0.49369931092E+03  0.34933988269E+03  0.65146669781E+03  0.00000000000E+00 0. -1.
<mgrwt>
<rscale>  0 0.20282877E+04</rscale>
<asrwt>0</asrwt>
<pdfrwt beam="1">  1        1 0.83866764E-01 0.20282877E+04</pdfrwt>
<pdfrwt beam="2">  1       -1 0.29025687E+00 0.20282877E+04</pdfrwt>
<totfact> 0.13890343E+00</totfact>
</mgrwt>
</event>
<event>
 6    1  0.9364335E-007  0.4115947E+04  0.7818608E-02  0.7981556E-01
          2   -1    0    0  501    0  0.00000000000E+00  0.00000000000E+00  0.18680915215E+04  0.18680915215E+04  0.00000000000E+00 0. -1.
         -2   -1    0    0    0  501 -0.00000000000E+00 -0.00000000000E+00 -0.22671561277E+04  0.22671561277E+04  0.00000000000E+00 0.  1.
         23    2    1    2    0    0 -0.19083880127E+03 -0.12155813070E+04  0.14563982019E+04  0.19088605323E+04  0.92711634649E+02 0.  0.
         11    1    3    3    0    0 -0.22994977083E+02 -0.22488946874E+03  0.21745011755E+03  0.31366956458E+03  0.00000000000E+00 0. -1.
        -11    1    3    3    0    0 -0.16784382419E+03 -0.99069183825E+03  0.12389480844E+04  0.15951909677E+04  0.00000000000E+00 0.  1.
         22    1    1    2    0    0  0.19083880127E+03  0.12155813070E+04 -0.18554628082E+04  0.22263871169E+04  0.00000000000E+00 0.  1.
<mgrwt>
<rscale>  0 0.41159471E+04</rscale>
<asrwt>0</asrwt>
<pdfrwt beam="1">  1        2 0.28739870E+00 0.41159471E+04</pdfrwt>
<pdfrwt beam="2">  1       -2 0.34879325E+00 0.41159471E+04</pdfrwt>
<totfact> 0.97856852E-02</totfact>
</mgrwt>
</event>
<event>
 6    1  0.9364335E-007  0.2714951E+04  0.7818608E-02  0.8330170E-01
         -2   -1    0    0    0  501 -0.00000000000E+00  0.00000000000E+00  0.56391249339E+03  0.56391249339E+03  0.00000000000E+00 0.  1.
          2   -1    0    0  501    0  0.00000000000E+00 -0.00000000000E+00 -0.32677748523E+04  0.32677748523E+04  0.00000000000E+00 0. -1.
         23    2    1    2    0    0  0.32171713270E+03 -0.12615652639E+04 -0.18880108016E+04  0.22952425558E+04  0.92221334827E+02 0.  0.
         13    1    3    3    0    0  0.34999087404E+02 -0.24251770785E+03 -0.31244308018E+03  0.39706479710E+03  0.00000000000E+00 0. -1.
        -13    1    3    3    0    0  0.28671804529E+03 -0.10190475561E+04 -0.15755677214E+04  0.18981777587E+04  0.00000000000E+00 0.  1.
         22    1    1    2    0    0 -0.32171713270E+03  0.12615652639E+04 -0.81585155735E+03  0.15364447899E+04  0.00000000000E+00 0. -1.
<mgrwt>
<rscale>  0 0.27149505E+04</rscale>
<asrwt>0</asrwt>
<pdfrwt beam="1">  1        2 0.50273459E+00 0.27149505E+04</pdfrwt>
<pdfrwt beam="2">  1       -2 0.86755769E-01 0.27149505E+04</pdfrwt>
<totfact> 0.11789308E+00</totfact>
</mgrwt>
</event>
<event>
 6    1  0.9364335E-007  0.2435793E+04  0.7818608E-02  0.8426223E-01
         -2   -1    0    0    0  501 -0.00000000000E+00  0.00000000000E+00  0.90788328389E+03  0.90788328389E+03  0.00000000000E+00 0.  1.
          2   -1    0    0  501    0  0.00000000000E+00 -0.00000000000E+00 -0.16337696426E+04  0.16337696426E+04  0.00000000000E+00 0. -1.
         23    2    1    2    0    0 -0.23286207637E+02 -0.99005872122E+03 -0.11002480400E+04  0.14829248276E+04  0.88100942325E+02 0.  0.
         11    1    3    3    0    0  0.15416456324E+02 -0.48169735603E+03 -0.58691205854E+03  0.75943121768E+03  0.00000000000E+00 0. -1.
        -11    1    3    3    0    0 -0.38702663961E+02 -0.50836136519E+03 -0.51333598142E+03  0.72349360995E+03  0.00000000000E+00 0.  1.
         22    1    1    2    0    0  0.23286207637E+02  0.99005872122E+03  0.37436168125E+03  0.10587280989E+04  0.00000000000E+00 0.  1.
<mgrwt>
<rscale>  0 0.24357932E+04</rscale>
<asrwt>0</asrwt>
<pdfrwt beam="1">  1        2 0.25134917E+00 0.24357932E+04</pdfrwt>
<pdfrwt beam="2">  1       -2 0.13967435E+00 0.24357932E+04</pdfrwt>
<totfact> 0.34597816E+00</totfact>
</mgrwt>
</event>
<event>
 6    1  0.9364335E-007  0.2643352E+04  0.7818608E-02  0.8353623E-01
         -1   -1    0    0    0  501 -0.00000000000E+00  0.00000000000E+00  0.64758135284E+03  0.64758135284E+03  0.00000000000E+00 0.  1.
          1   -1    0    0  501    0  0.00000000000E+00 -0.00000000000E+00 -0.26974634864E+04  0.26974634864E+04  0.00000000000E+00 0. -1.
         23    2    1    2    0    0 -0.70685232145E+03  0.75753629768E+03 -0.20613473473E+04  0.23088822565E+04  0.91010667184E+02 0.  0.
         11    1    3    3    0    0 -0.73254229233E+02  0.12419788606E+03 -0.29259966502E+03  0.32619911247E+03  0.00000000000E+00 0. -1.
        -11    1    3    3    0    0 -0.63359809221E+03  0.63333841162E+03 -0.17687476823E+04  0.19826831440E+04  0.00000000000E+00 0.  1.
         22    1    1    2    0    0  0.70685232145E+03 -0.75753629768E+03  0.11465213782E+02  0.10361625827E+04  0.00000000000E+00 0.  1.
<mgrwt>
<rscale>  0 0.26433517E+04</rscale>
<asrwt>0</asrwt>
<pdfrwt beam="1">  1        1 0.41499438E+00 0.26433517E+04</pdfrwt>
<pdfrwt beam="2">  1       -1 0.99627901E-01 0.26433517E+04</pdfrwt>
<totfact> 0.83082411E-01</totfact>
</mgrwt>
</event>
<event>
 6    1  0.9364335E-007  0.1120999E+04  0.7818608E-02  0.9184963E-01
          1   -1    0    0  501    0  0.00000000000E+00  0.00000000000E+00  0.13623005168E+04  0.13623005168E+04  0.00000000000E+00 0. -1.
         -1   -1    0    0    0  501 -0.00000000000E+00 -0.00000000000E+00 -0.23060972719E+03  0.23060972719E+03  0.00000000000E+00 0.  1.
         23    2    1    2    0    0 -0.28026777470E+03  0.15415196012E+03  0.12172432365E+04  0.12618028996E+04  0.90291795046E+02 0.  0.
         11    1    3    3    0    0 -0.13883720041E+03  0.12688728745E+03  0.71315316934E+03  0.73753887686E+03  0.00000000000E+00 0. -1.
        -11    1    3    3    0    0 -0.14143057429E+03  0.27264672674E+02  0.50409006718E+03  0.52426402275E+03  0.00000000000E+00 0.  1.
         22    1    1    2    0    0  0.28026777470E+03 -0.15415196012E+03 -0.85552446894E+02  0.33110734440E+03  0.00000000000E+00 0.  1.
<mgrwt>
<rscale>  0 0.11209991E+04</rscale>
<asrwt>0</asrwt>
<pdfrwt beam="1">  1        1 0.20958469E+00 0.11209991E+04</pdfrwt>
<pdfrwt beam="2">  1       -1 0.35478420E-01 0.11209991E+04</pdfrwt>
<totfact> 0.61517199E+01</totfact>
</mgrwt>
</event>
<event>
 6    1  0.9364335E-007  0.2301261E+04  0.7818608E-02  0.8477424E-01
         -1   -1    0    0    0  501 -0.00000000000E+00  0.00000000000E+00  0.40913787240E+03  0.40913787240E+03  0.00000000000E+00 0.  1.
          1   -1    0    0  501    0  0.00000000000E+00 -0.00000000000E+00 -0.32359510314E+04  0.32359510314E+04  0.00000000000E+00 0. -1.
         23    2    1    2    0    0  0.30355871243E+03  0.71963231314E+03 -0.80722906496E+02  0.79008798735E+03  0.87774040143E+02 0.  0.
         11    1    3    3    0    0  0.22820730243E+02  0.11091473186E+03  0.98257994555E+01  0.11366358172E+03  0.00000000000E+00 0. -1.
        -11    1    3    3    0    0  0.28073798219E+03  0.60871758127E+03 -0.90548705952E+02  0.67642440564E+03  0.00000000000E+00 0.  1.
         22    1    1    2    0    0 -0.30355871243E+03 -0.71963231314E+03 -0.27460902525E+04  0.28550009164E+04  0.00000000000E+00 0. -1.
<mgrwt>
<rscale>  0 0.23012606E+04</rscale>
<asrwt>0</asrwt>
<pdfrwt beam="1">  1        1 0.49783862E+00 0.23012606E+04</pdfrwt>
<pdfrwt beam="2">  1       -1 0.62944288E-01 0.23012606E+04</pdfrwt>
<totfact> 0.92514061E-01</totfact>
</mgrwt>
</event>
<event>
 6    1  0.9364335E-007  0.2728523E+04  0.7818608E-02  0.8325809E-01
          2   -1    0    0  501    0  0.00000000000E+00  0.00000000000E+00  0.18860921964E+04  0.18860921964E+04  0.00000000000E+00 0. -1.
         -2   -1    0    0    0  501 -0.00000000000E+00 -0.00000000000E+00 -0.98680714897E+03  0.98680714897E+03  0.00000000000E+00 0.  1.
         23    2    1    2    0    0 -0.10586866457E+04 -0.95156625760E+01  0.13535643505E+04  0.17208239803E+04  0.90502809152E+02 0.  0.
         13    1    3    3    0    0 -0.64805768348E+03  0.63755518415E+01  0.89596877491E+03  0.11057935858E+04  0.00000000000E+00 0.  1.
        -13    1    3    3    0    0 -0.41062896222E+03 -0.15891214417E+02  0.45759557561E+03  0.61503039447E+03  0.00000000000E+00 0. -1.
         22    1    1    2    0    0  0.10586866457E+04  0.95156625760E+01 -0.45427930311E+03  0.11520753651E+04  0.00000000000E+00 0.  1.
<mgrwt>
<rscale>  0 0.27285229E+04</rscale>
<asrwt>0</asrwt>
<pdfrwt beam="1">  1        2 0.29016803E+00 0.27285229E+04</pdfrwt>
<pdfrwt beam="2">  1       -2 0.15181648E+00 0.27285229E+04</pdfrwt>
<totfact> 0.19634280E+00</totfact>
</mgrwt>
</event>
<event>
 6    1  0.9364335E-007  0.2073962E+04  0.7818608E-02  0.8572801E-01
         -1   -1    0    0    0  501 -0.00000000000E+00  0.00000000000E+00  0.60461689200E+03  0.60461689200E+03  0.00000000000E+00 0.  1.
          1   -1    0    0  501    0  0.00000000000E+00 -0.00000000000E+00 -0.17785306794E+04  0.17785306794E+04  0.00000000000E+00 0. -1.
         23    2    1    2    0    0  0.31570204067E+02  0.51807667613E+03 -0.16169411686E+04  0.17007449185E+04  0.92921552450E+02 0.  0.
         13    1    3    3    0    0  0.15522826520E+02  0.40560565259E+03 -0.11289097858E+04  0.11996642063E+04  0.00000000000E+00 0.  1.
        -13    1    3    3    0    0  0.16047377547E+02  0.11247102354E+03 -0.48803138283E+03  0.50108071215E+03  0.00000000000E+00 0. -1.
         22    1    1    2    0    0 -0.31570204067E+02 -0.51807667613E+03  0.44302738123E+03  0.68240265288E+03  0.00000000000E+00 0.  1.
<mgrwt>
<rscale>  0 0.20739621E+04</rscale>
<asrwt>0</asrwt>
<pdfrwt beam="1">  1        1 0.27362010E+00 0.20739621E+04</pdfrwt>
<pdfrwt beam="2">  1       -1 0.93017985E-01 0.20739621E+04</pdfrwt>
<totfact> 0.43592192E+00</totfact>
</mgrwt>
</event>
<event>
 6    1  0.9364335E-007  0.2937679E+04  0.7818608E-02  0.8261754E-01
         -2   -1    0    0    0  501 -0.00000000000E+00  0.00000000000E+00  0.10333997688E+04  0.10333997688E+04  0.00000000000E+00 0.  1.
          2   -1    0    0  501    0  0.00000000000E+00 -0.00000000000E+00 -0.20877586353E+04  0.20877586353E+04  0.00000000000E+00 0. -1.
         23    2    1    2    0    0 -0.17814808561E+03 -0.94914650015E+03 -0.17015095745E+04  0.19586525513E+04  0.92569786274E+02 0.  0.
         13    1    3    3    0    0 -0.92604163193E+02 -0.64379680713E+03 -0.10747407562E+04  0.12562314886E+04  0.00000000000E+00 0. -1.
        -13    1    3    3    0    0 -0.85543922419E+02 -0.30534969302E+03 -0.62676881832E+03  0.70242106269E+03  0.00000000000E+00 0.  1.
         22    1    1    2    0    0  0.17814808561E+03  0.94914650015E+03  0.64715070789E+03  0.11625058528E+04  0.00000000000E+00 0.  1.
<mgrwt>
<rscale>  0 0.29376789E+04</rscale>
<asrwt>0</asrwt>
<pdfrwt beam="1">  1        2 0.32119363E+00 0.29376789E+04</pdfrwt>
<pdfrwt beam="2">  1       -2 0.15898458E+00 0.29376789E+04</pdfrwt>
<totfact> 0.13163655E+00</totfact>
</mgrwt>
</event>
<event>
 6    1  0.9364335E-007  0.2958849E+04  0.7818608E-02  0.8255580E-01
          2   -1    0    0  501    0  0.00000000000E+00  0.00000000000E+00  0.14778366259E+04  0.14778366259E+04  0.00000000000E+00 0. -1.
         -2   -1    0    0    0  501 -0.00000000000E+00 -0.00000000000E+00 -0.14810136934E+04  0.14810136934E+04  0.00000000000E+00 0.  1.
         23    2    1    2    0    0  0.38873759434E+03 -0.43030640636E+03  0.13578822332E+04  0.14794034832E+04  0.92249586759E+02 0.  0.
         13    1    3    3    0    0  0.66266962754E+02 -0.41639899461E+02  0.13030457250E+03  0.15200155656E+03  0.00000000000E+00 0.  1.
        -13    1    3    3    0    0  0.32247063159E+03 -0.38866650690E+03  0.12275776607E+04  0.13274019267E+04  0.00000000000E+00 0. -1.
         22    1    1    2    0    0 -0.38873759434E+03  0.43030640636E+03 -0.13610593007E+04  0.14794468360E+04  0.00000000000E+00 0.  1.
<mgrwt>
<rscale>  0 0.29588486E+04</rscale>
<asrwt>0</asrwt>
<pdfrwt beam="1">  1        2 0.22735948E+00 0.29588486E+04</pdfrwt>
<pdfrwt beam="2">  1       -2 0.22784826E+00 0.29588486E+04</pdfrwt>
<totfact> 0.98982034E-01</totfact>
</mgrwt>
</event>
<event>
 6    1  0.9774584E-007  0.4205090E+04  0.7818608E-02  0.7964405E-01
          2   -1    0    0  501    0  0.00000000000E+00  0.00000000000E+00  0.25427473805E+04  0.25427473805E+04  0.00000000000E+00 0. -1.
         -2   -1    0    0    0  501 -0.00000000000E+00 -0.00000000000E+00 -0.17385505205E+04  0.17385505205E+04  0.00000000000E+00 0.  1.
         23    2    1    2    0    0 -0.95538489469E+03 -0.72814517813E+03  0.21579501097E+04  0.24714350447E+04  0.91031897548E+02 0.  0.
         13    1    3    3    0    0 -0.21853638323E+03 -0.12030359161E+03  0.44314455938E+03  0.50853535320E+03  0.00000000000E+00 0.  1.
        -13    1    3    3    0    0 -0.73684851146E+03 -0.60784158652E+03  0.17148055504E+04  0.19628996915E+04  0.00000000000E+00 0. -1.
         22    1    1    2    0    0  0.95538489469E+03  0.72814517813E+03 -0.13537532498E+04  0.18098628564E+04  0.00000000000E+00 0.  1.
<mgrwt>
<rscale>  0 0.42050897E+04</rscale>
<asrwt>0</asrwt>
<pdfrwt beam="1">  1        2 0.39119190E+00 0.42050897E+04</pdfrwt>
<pdfrwt beam="2">  1       -2 0.26746931E+00 0.42050897E+04</pdfrwt>
<totfact> 0.12811226E-01</totfact>
</mgrwt>
</event>
<event>
 6    1  0.9364335E-007  0.1211165E+04  0.7818608E-02  0.9103140E-01
         -2   -1    0    0    0  501 -0.00000000000E+00  0.00000000000E+00  0.25306824959E+03  0.25306824959E+03  0.00000000000E+00 0.  1.
          2   -1    0    0  501    0  0.00000000000E+00 -0.00000000000E+00 -0.14491354740E+04  0.14491354740E+04  0.00000000000E+00 0. -1.
         23    2    1    2    0    0 -0.38464093040E+03 -0.76597369006E+02  0.40864047180E+02  0.40458483773E+03  0.90571619690E+02 0.  0.
         13    1    3    3    0    0 -0.20655642311E+03 -0.84336256561E+02  0.37908303588E+02  0.22630775413E+03  0.00000000000E+00 0.  1.
        -13    1    3    3    0    0 -0.17808450729E+03  0.77388875543E+01  0.29557435917E+01  0.17827708361E+03  0.00000000000E+00 0. -1.
         22    1    1    2    0    0  0.38464093040E+03  0.76597369006E+02 -0.12369312716E+04  0.12976188859E+04  0.00000000000E+00 0. -1.
<mgrwt>
<rscale>  0 0.12111650E+04</rscale>
<asrwt>0</asrwt>
<pdfrwt beam="1">  1        2 0.22294392E+00 0.12111650E+04</pdfrwt>
<pdfrwt beam="2">  1       -2 0.38933576E-01 0.12111650E+04</pdfrwt>
<totfact> 0.83354180E+01</totfact>
</mgrwt>
</event>
<event>
 6    1  0.9364335E-007  0.2721297E+04  0.7818608E-02  0.8328128E-01
         -2   -1    0    0    0  501 -0.00000000000E+00  0.00000000000E+00  0.10970051068E+04  0.10970051068E+04  0.00000000000E+00 0.  1.
          2   -1    0    0  501    0  0.00000000000E+00 -0.00000000000E+00 -0.16876531773E+04  0.16876531773E+04  0.00000000000E+00 0. -1.
         23    2    1    2    0    0 -0.25061421002E+03  0.11247755814E+04  0.44128048690E+03  0.12377891435E+04  0.97292881450E+02 0.  0.
         13    1    3    3    0    0 -0.18738907751E+03  0.64561567981E+03  0.28052496439E+03  0.72844253585E+03  0.00000000000E+00 0. -1.
        -13    1    3    3    0    0 -0.63225132513E+02  0.47915990158E+03  0.16075552250E+03  0.50934660761E+03  0.00000000000E+00 0.  1.
         22    1    1    2    0    0  0.25061421002E+03 -0.11247755814E+04 -0.10319285574E+04  0.15468691407E+04  0.00000000000E+00 0. -1.
<mgrwt>
<rscale>  0 0.27212969E+04</rscale>
<asrwt>0</asrwt>
<pdfrwt beam="1">  1        2 0.25963895E+00 0.27212969E+04</pdfrwt>
<pdfrwt beam="2">  1       -2 0.16877002E+00 0.27212969E+04</pdfrwt>
<totfact> 0.18980095E+00</totfact>
</mgrwt>
</event>
<event>
 6    1  0.9364335E-007  0.1860529E+04  0.7818608E-02  0.8674757E-01
         -2   -1    0    0    0  501 -0.00000000000E+00  0.00000000000E+00  0.49172637917E+03  0.49172637917E+03  0.00000000000E+00 0.  1.
          2   -1    0    0  501    0  0.00000000000E+00 -0.00000000000E+00 -0.17599048619E+04  0.17599048619E+04  0.00000000000E+00 0. -1.
         23    2    1    2    0    0  0.61938679266E+03  0.69035568539E+03 -0.67333895825E+03  0.11497850489E+04  0.91593311972E+02 0.  0.
         11    1    3    3    0    0  0.20562661387E+03  0.18945057742E+03 -0.24355239329E+03  0.37079858939E+03  0.00000000000E+00 0. -1.
        -11    1    3    3    0    0  0.41376017878E+03  0.50090510797E+03 -0.42978656496E+03  0.77898645954E+03  0.00000000000E+00 0.  1.
         22    1    1    2    0    0 -0.61938679266E+03 -0.69035568539E+03 -0.59483952454E+03  0.11018461922E+04  0.00000000000E+00 0.  1.
<mgrwt>
<rscale>  0 0.18605286E+04</rscale>
<asrwt>0</asrwt>
<pdfrwt beam="1">  1        2 0.27075460E+00 0.18605286E+04</pdfrwt>
<pdfrwt beam="2">  1       -2 0.75650212E-01 0.18605286E+04</pdfrwt>
<totfact> 0.13366162E+01</totfact>
</mgrwt>
</event>
<event>
 6    1  0.9364335E-007  0.8597410E+03  0.7818608E-02  0.9477355E-01
          2   -1    0    0  501    0  0.00000000000E+00  0.00000000000E+00  0.14296396352E+04  0.14296396352E+04  0.00000000000E+00 0. -1.
         -2   -1    0    0    0  501 -0.00000000000E+00 -0.00000000000E+00 -0.12925541205E+03  0.12925541205E+03  0.00000000000E+00 0.  1.
         23    2    1    2    0    0 -0.36442158184E+03  0.21438903075E+03  0.73516157473E+03  0.85303217948E+03  0.91845590196E+02 0.  0.
         11    1    3    3    0    0 -0.13154043025E+03  0.96910514895E+02  0.20468813226E+03  0.26190029434E+03  0.00000000000E+00 0.  1.
        -11    1    3    3    0    0 -0.23288115159E+03  0.11747851586E+03  0.53047344247E+03  0.59113188513E+03  0.00000000000E+00 0. -1.
         22    1    1    2    0    0  0.36442158184E+03 -0.21438903075E+03  0.56522264841E+03  0.70586286777E+03  0.00000000000E+00 0.  1.
<mgrwt>
<rscale>  0 0.85974103E+03</rscale>
<asrwt>0</asrwt>
<pdfrwt beam="1">  1        2 0.21994455E+00 0.85974103E+03</pdfrwt>
<pdfrwt beam="2">  1       -2 0.19885449E-01 0.85974103E+03</pdfrwt>
<totfact> 0.30166722E+02</totfact>
</mgrwt>
</event>
<event>
 6    1  0.9364335E-007  0.1941072E+03  0.7818608E-02  0.1154808E+00
         -1   -1    0    0    0  501 -0.00000000000E+00  0.00000000000E+00  0.14698210286E+02  0.14698210286E+02  0.00000000000E+00 0.  1.
          1   -1    0    0  501    0  0.00000000000E+00 -0.00000000000E+00 -0.64085368880E+03  0.64085368880E+03  0.00000000000E+00 0. -1.
         23    2    1    2    0    0 -0.56709932195E+01  0.68718223642E+02 -0.48791297181E+03  0.50106777341E+03  0.90859732938E+02 0.  0.
         13    1    3    3    0    0 -0.36213879302E+02  0.71231023568E+02 -0.40167843510E+03  0.40954959285E+03  0.00000000000E+00 0. -1.
        -13    1    3    3    0    0  0.30542886083E+02 -0.25127999257E+01 -0.86234536705E+02  0.91518180568E+02  0.00000000000E+00 0.  1.
         22    1    1    2    0    0  0.56709932195E+01 -0.68718223642E+02 -0.13824250670E+03  0.15448412567E+03  0.00000000000E+00 0. -1.
<mgrwt>
<rscale>  0 0.19410721E+03</rscale>
<asrwt>0</asrwt>
<pdfrwt beam="1">  1        1 0.98592876E-01 0.19410721E+03</pdfrwt>
<pdfrwt beam="2">  1       -1 0.22612631E-02 0.19410721E+03</pdfrwt>
<totfact> 0.17858805E+04</totfact>
</mgrwt>
</event>
<event>
 6    1  0.9364335E-007  0.3347489E+04  0.7818608E-02  0.8150916E-01
         -2   -1    0    0    0  501 -0.00000000000E+00  0.00000000000E+00  0.11143951335E+04  0.11143951335E+04  0.00000000000E+00 0.  1.
          2   -1    0    0  501    0  0.00000000000E+00 -0.00000000000E+00 -0.25138490818E+04  0.25138490818E+04  0.00000000000E+00 0. -1.
         23    2    1    2    0    0  0.99922127930E+03  0.57626940010E+03  0.61236131694E+03  0.13092077241E+04  0.92243676543E+02 0.  0.
         11    1    3    3    0    0  0.26597707509E+03  0.13605148978E+03  0.11686991397E+03  0.32079960901E+03  0.00000000000E+00 0. -1.
        -11    1    3    3    0    0  0.73324420420E+03  0.44021791032E+03  0.49549140297E+03  0.98840811509E+03  0.00000000000E+00 0.  1.
         22    1    1    2    0    0 -0.99922127930E+03 -0.57626940010E+03 -0.20118152652E+04  0.23190364913E+04  0.00000000000E+00 0. -1.
<mgrwt>
<rscale>  0 0.33474893E+04</rscale>
<asrwt>0</asrwt>
<pdfrwt beam="1">  1        2 0.38674601E+00 0.33474893E+04</pdfrwt>
<pdfrwt beam="2">  1       -2 0.17144541E+00 0.33474893E+04</pdfrwt>
<totfact> 0.59170734E-01</totfact>
</mgrwt>
</event>
<event>
 6    1  0.9364335E-007  0.2034730E+04  0.7818608E-02  0.8590553E-01
          2   -1    0    0  501    0  0.00000000000E+00  0.00000000000E+00  0.18665720701E+04  0.18665720701E+04  0.00000000000E+00 0. -1.
         -2   -1    0    0    0  501 -0.00000000000E+00 -0.00000000000E+00 -0.55450916170E+03  0.55450916170E+03  0.00000000000E+00 0.  1.
         23    2    1    2    0    0  0.93776105321E+02 -0.81828840710E+03  0.13640043747E+04  0.15958008000E+04  0.87649209578E+02 0.  0.
         13    1    3    3    0    0  0.36732058016E+02 -0.49670780434E+03  0.89556373649E+03  0.10247449893E+04  0.00000000000E+00 0.  1.
        -13    1    3    3    0    0  0.57044047305E+02 -0.32158060276E+03  0.46844063826E+03  0.57105581074E+03  0.00000000000E+00 0. -1.
         22    1    1    2    0    0 -0.93776105321E+02  0.81828840710E+03 -0.51941466343E+02  0.82528043176E+03  0.00000000000E+00 0.  1.
<mgrwt>
<rscale>  0 0.20347298E+04</rscale>
<asrwt>0</asrwt>
<pdfrwt beam="1">  1        2 0.28716493E+00 0.20347298E+04</pdfrwt>
<pdfrwt beam="2">  1       -2 0.85309102E-01 0.20347298E+04</pdfrwt>
<totfact> 0.87730193E+00</totfact>
</mgrwt>
</event>
<event>
 6    1  0.9364335E-007  0.2044929E+04  0.7818608E-02  0.8585898E-01
          2   -1    0    0  501    0  0.00000000000E+00  0.00000000000E+00  0.11326739016E+04  0.11326739016E+04  0.00000000000E+00 0. -1.
         -2   -1    0    0    0  501 -0.00000000000E+00 -0.00000000000E+00 -0.92297822934E+03  0.92297822934E+03  0.00000000000E+00 0.  1.
         23    2    1    2    0    0 -0.53054877909E+03 -0.35309201988E+03 -0.69627397476E+03  0.94798025587E+03  0.87824461795E+02 0.  0.
         13    1    3    3    0    0 -0.21022922657E+03 -0.11598075419E+03 -0.20761869770E+03  0.31741673977E+03  0.00000000000E+00 0. -1.
        -13    1    3    3    0    0 -0.32031955251E+03 -0.23711126569E+03 -0.48865527706E+03  0.63056351610E+03  0.00000000000E+00 0.  1.
         22    1    1    2    0    0  0.53054877909E+03  0.35309201988E+03  0.90596964705E+03  0.11076718751E+04  0.00000000000E+00 0. -1.
<mgrwt>
<rscale>  0 0.20449287E+04</rscale>
<asrwt>0</asrwt>
<pdfrwt beam="1">  1        2 0.17425752E+00 0.20449287E+04</pdfrwt>
<pdfrwt beam="2">  1       -2 0.14199665E+00 0.20449287E+04</pdfrwt>
<totfact> 0.66657951E+00</totfact>
</mgrwt>
</event>
<event>
 6    1  0.9364335E-007  0.1272398E+04  0.7818608E-02  0.9051744E-01
          2   -1    0    0  501    0  0.00000000000E+00  0.00000000000E+00  0.13254731337E+04  0.13254731337E+04  0.00000000000E+00 0. -1.
         -2   -1    0    0    0  501 -0.00000000000E+00 -0.00000000000E+00 -0.30536224608E+03  0.30536224608E+03  0.00000000000E+00 0.  1.
         23    2    1    2    0    0  0.96452862571E+02 -0.61642136809E+03  0.37038716832E+03  0.73004718650E+03  0.80646031094E+02 0.  0.
         13    1    3    3    0    0  0.48915003272E+02 -0.33919421919E+03  0.15680519470E+03  0.37687300907E+03  0.00000000000E+00 0.  1.
        -13    1    3    3    0    0  0.47537859300E+02 -0.27722714890E+03  0.21358197362E+03  0.35317417744E+03  0.00000000000E+00 0. -1.
         22    1    1    2    0    0 -0.96452862571E+02  0.61642136809E+03  0.64972371932E+03  0.90078819330E+03  0.00000000000E+00 0.  1.
<mgrwt>
<rscale>  0 0.12723984E+04</rscale>
<asrwt>0</asrwt>
<pdfrwt beam="1">  1        2 0.20391894E+00 0.12723984E+04</pdfrwt>
<pdfrwt beam="2">  1       -2 0.46978808E-01 0.12723984E+04</pdfrwt>
<totfact> 0.67358549E+01</totfact>
</mgrwt>
</event>
<event>
 6    1  0.9364335E-007  0.3346300E+04  0.7818608E-02  0.8151213E-01
         -2   -1    0    0    0  501 -0.00000000000E+00  0.00000000000E+00  0.15819644794E+04  0.15819644794E+04  0.00000000000E+00 0.  1.
          2   -1    0    0  501    0  0.00000000000E+00 -0.00000000000E+00 -0.17695912674E+04  0.17695912674E+04  0.00000000000E+00 0. -1.
         23    2    1    2    0    0 -0.20135949303E+03 -0.16479813489E+04 -0.29127086210E+03  0.16880864005E+04  0.91699557371E+02 0.  0.
         11    1    3    3    0    0 -0.13841661350E+02 -0.24570308397E+03 -0.14589089404E+02  0.24652472207E+03  0.00000000000E+00 0.  1.
        -11    1    3    3    0    0 -0.18751783168E+03 -0.14022782649E+04 -0.27668177270E+03  0.14415616784E+04  0.00000000000E+00 0. -1.
         22    1    1    2    0    0  0.20135949303E+03  0.16479813489E+04  0.10364407411E+03  0.16634693462E+04  0.00000000000E+00 0.  1.
<mgrwt>
<rscale>  0 0.33462998E+04</rscale>
<asrwt>0</asrwt>
<pdfrwt beam="1">  1        2 0.27224481E+00 0.33462998E+04</pdfrwt>
<pdfrwt beam="2">  1       -2 0.24337915E+00 0.33462998E+04</pdfrwt>
<totfact> 0.52697612E-01</totfact>
</mgrwt>
</event>
<event>
 6    1  0.9364335E-007  0.1572722E+04  0.7818608E-02  0.8837483E-01
         -2   -1    0    0    0  501 -0.00000000000E+00  0.00000000000E+00  0.41226943133E+03  0.41226943133E+03  0.00000000000E+00 0.  1.
          2   -1    0    0  501    0  0.00000000000E+00 -0.00000000000E+00 -0.14999023670E+04  0.14999023670E+04  0.00000000000E+00 0. -1.
         23    2    1    2    0    0  0.36711783898E+03  0.45383104347E+03  0.90110607968E+02  0.59770689644E+03  0.91626899274E+02 0.  0.
         13    1    3    3    0    0  0.13393438141E+03  0.21526416415E+03  0.56978735222E+01  0.25359326619E+03  0.00000000000E+00 0. -1.
        -13    1    3    3    0    0  0.23318345757E+03  0.23856687932E+03  0.84412734446E+02  0.34411363026E+03  0.00000000000E+00 0.  1.
         22    1    1    2    0    0 -0.36711783898E+03 -0.45383104347E+03 -0.11777435437E+04  0.13144649019E+04  0.00000000000E+00 0. -1.
<mgrwt>
<rscale>  0 0.15727223E+04</rscale>
<asrwt>0</asrwt>
<pdfrwt beam="1">  1        2 0.23075421E+00 0.15727223E+04</pdfrwt>
<pdfrwt beam="2">  1       -2 0.63426066E-01 0.15727223E+04</pdfrwt>
<totfact> 0.28069159E+01</totfact>
</mgrwt>
</event>
<event>
 6    1  0.9364335E-007  0.2281094E+04  0.7818608E-02  0.8485413E-01
          1   -1    0    0  501    0  0.00000000000E+00  0.00000000000E+00  0.15343404462E+04  0.15343404462E+04  0.00000000000E+00 0. -1.
         -1   -1    0    0    0  501 -0.00000000000E+00 -0.00000000000E+00 -0.84782204270E+03  0.84782204270E+03  0.00000000000E+00 0.  1.
         23    2    1    2    0    0 -0.30489463677E+03 -0.10970635038E+04  0.33419209775E+03  0.11902552372E+04  0.92271883283E+02 0.  0.
         13    1    3    3    0    0 -0.13369639171E+03 -0.32332207740E+03  0.10734877435E+03  0.36597219873E+03  0.00000000000E+00 0. -1.
        -13    1    3    3    0    0 -0.17119824507E+03 -0.77374142644E+03  0.22684332340E+03  0.82428303845E+03  0.00000000000E+00 0.  1.
         22    1    1    2    0    0  0.30489463677E+03  0.10970635038E+04  0.35232630578E+03  0.11919072517E+04  0.00000000000E+00 0. -1.
<mgrwt>
<rscale>  0 0.22810942E+04</rscale>
<asrwt>0</asrwt>
<pdfrwt beam="1">  1        1 0.23605238E+00 0.22810942E+04</pdfrwt>
<pdfrwt beam="2">  1       -1 0.13043416E+00 0.22810942E+04</pdfrwt>
<totfact> 0.28196167E+00</totfact>
</mgrwt>
</event>
<event>
 6    1  0.9364335E-007  0.2342649E+04  0.7818608E-02  0.8461292E-01
          1   -1    0    0  501    0  0.00000000000E+00  0.00000000000E+00  0.17133401291E+04  0.17133401291E+04  0.00000000000E+00 0. -1.
         -1   -1    0    0    0  501 -0.00000000000E+00 -0.00000000000E+00 -0.80077594423E+03  0.80077594423E+03  0.00000000000E+00 0.  1.
         23    2    1    2    0    0 -0.96203082047E+03  0.66200661308E+03  0.52498507700E+03  0.12836797198E+04  0.92023021951E+02 0.  0.
         11    1    3    3    0    0 -0.22459623905E+03  0.10966353628E+03  0.10431446275E+03  0.27083402467E+03  0.00000000000E+00 0. -1.
        -11    1    3    3    0    0 -0.73743458143E+03  0.55234307680E+03  0.42067061425E+03  0.10128456951E+04  0.00000000000E+00 0.  1.
         22    1    1    2    0    0  0.96203082047E+03 -0.66200661308E+03  0.38757910786E+03  0.12304363536E+04  0.00000000000E+00 0. -1.
<mgrwt>
<rscale>  0 0.23426494E+04</rscale>
<asrwt>0</asrwt>
<pdfrwt beam="1">  1        1 0.26359079E+00 0.23426494E+04</pdfrwt>
<pdfrwt beam="2">  1       -1 0.12319630E+00 0.23426494E+04</pdfrwt>
<totfact> 0.24385120E+00</totfact>
</mgrwt>
</event>
<event>
 6    1  0.9364335E-007  0.1187628E+04  0.7818608E-02  0.9123755E-01
          1   -1    0    0  501    0  0.00000000000E+00  0.00000000000E+00  0.51644617897E+03  0.51644617897E+03  0.00000000000E+00 0. -1.
         -1   -1    0    0    0  501 -0.00000000000E+00 -0.00000000000E+00 -0.68277259545E+03  0.68277259545E+03  0.00000000000E+00 0.  1.
         23    2    1    2    0    0 -0.41580269297E+03 -0.11335179693E+03  0.32354683116E+03  0.54674938196E+03  0.92259554376E+02 0.  0.
         13    1    3    3    0    0 -0.28574595092E+03 -0.33669567146E+02  0.22363853674E+03  0.36441539942E+03  0.00000000000E+00 0.  1.
        -13    1    3    3    0    0 -0.13005674205E+03 -0.79682229783E+02  0.99908294423E+02  0.18233398255E+03  0.00000000000E+00 0. -1.
         22    1    1    2    0    0  0.41580269297E+03  0.11335179693E+03 -0.48987324763E+03  0.65246939246E+03  0.00000000000E+00 0.  1.
<mgrwt>
<rscale>  0 0.11876284E+04</rscale>
<asrwt>0</asrwt>
<pdfrwt beam="1">  1        1 0.79453258E-01 0.11876284E+04</pdfrwt>
<pdfrwt beam="2">  1       -1 0.10504194E+00 0.11876284E+04</pdfrwt>
<totfact> 0.35722482E+01</totfact>
</mgrwt>
</event>
<event>
 6    1  0.9364335E-007  0.2205347E+04  0.7818608E-02  0.8516206E-01
          1   -1    0    0  501    0  0.00000000000E+00  0.00000000000E+00  0.12905604183E+04  0.12905604183E+04  0.00000000000E+00 0. -1.
         -1   -1    0    0    0  501 -0.00000000000E+00 -0.00000000000E+00 -0.94214059510E+03  0.94214059510E+03  0.00000000000E+00 0.  1.
         23    2    1    2    0    0  0.39455596806E+03  0.43742496058E+03 -0.76691566109E+03  0.97135718613E+03  0.91433821753E+02 0.  0.
         11    1    3    3    0    0  0.19223141437E+03  0.21977103191E+03 -0.45429495563E+03  0.54003345253E+03  0.00000000000E+00 0. -1.
        -11    1    3    3    0    0  0.20232455369E+03  0.21765392866E+03 -0.31262070546E+03  0.43132373360E+03  0.00000000000E+00 0.  1.
         22    1    1    2    0    0 -0.39455596806E+03 -0.43742496058E+03  0.11153354843E+04  0.12613438272E+04  0.00000000000E+00 0. -1.
<mgrwt>
<rscale>  0 0.22053475E+04</rscale>
<asrwt>0</asrwt>
<pdfrwt beam="1">  1        1 0.19854776E+00 0.22053475E+04</pdfrwt>
<pdfrwt beam="2">  1       -1 0.14494471E+00 0.22053475E+04</pdfrwt>
<totfact> 0.32025065E+00</totfact>
</mgrwt>
</event>
<event>
 6    1  0.9364335E-007  0.1190174E+04  0.7818608E-02  0.9121501E-01
         -1   -1    0    0    0  501 -0.00000000000E+00  0.00000000000E+00  0.23446908154E+03  0.23446908154E+03  0.00000000000E+00 0.  1.
          1   -1    0    0  501    0  0.00000000000E+00 -0.00000000000E+00 -0.15103412575E+04  0.15103412575E+04  0.00000000000E+00 0. -1.
         23    2    1    2    0    0  0.37435263045E+03  0.23054732378E+02  0.28313394928E+02  0.38776523444E+03  0.94280518125E+02 0.  0.
         11    1    3    3    0    0  0.42803051687E+02  0.30115432803E+02  0.20027558900E+02  0.56036984592E+02  0.00000000000E+00 0.  1.
        -11    1    3    3    0    0  0.33154957876E+03 -0.70607004258E+01  0.82858360280E+01  0.33172824985E+03  0.00000000000E+00 0. -1.
         22    1    1    2    0    0 -0.37435263045E+03 -0.23054732378E+02 -0.13041855709E+04  0.13570451046E+04  0.00000000000E+00 0. -1.
<mgrwt>
<rscale>  0 0.11901736E+04</rscale>
<asrwt>0</asrwt>
<pdfrwt beam="1">  1        1 0.23236019E+00 0.11901736E+04</pdfrwt>
<pdfrwt beam="2">  1       -1 0.36072167E-01 0.11901736E+04</pdfrwt>
<totfact> 0.46828732E+01</totfact>
</mgrwt>
</event>
<event>
 6    1  0.9364335E-007  0.1485749E+04  0.7818608E-02  0.8893985E-01
          2   -1    0    0  501    0  0.00000000000E+00  0.00000000000E+00  0.22383161344E+04  0.22383161344E+04  0.00000000000E+00 0. -1.
         -2   -1    0    0    0  501 -0.00000000000E+00 -0.00000000000E+00 -0.24655265354E+03  0.24655265354E+03  0.00000000000E+00 0.  1.
         23    2    1    2    0    0  0.21757647337E+02  0.58908518842E+03  0.25132111568E+03  0.64730671255E+03  0.91372438337E+02 0.  0.
         11    1    3    3    0    0 -0.18191344599E+02  0.17037519749E+03  0.37221199223E+02  0.17533981467E+03  0.00000000000E+00 0.  1.
        -11    1    3    3    0    0  0.39948991936E+02  0.41870999094E+03  0.21409991646E+03  0.47196689788E+03  0.00000000000E+00 0. -1.
         22    1    1    2    0    0 -0.21757647337E+02 -0.58908518842E+03  0.17404423652E+04  0.18375620754E+04  0.00000000000E+00 0. -1.
<mgrwt>
<rscale>  0 0.14857493E+04</rscale>
<asrwt>0</asrwt>
<pdfrwt beam="1">  1        2 0.34435631E+00 0.14857493E+04</pdfrwt>
<pdfrwt beam="2">  1       -2 0.37931179E-01 0.14857493E+04</pdfrwt>
<totfact> 0.31215785E+01</totfact>
</mgrwt>
</event>
<event>
 6    1  0.9364335E-007  0.2121813E+04  0.7818608E-02  0.8551695E-01
          2   -1    0    0  501    0  0.00000000000E+00  0.00000000000E+00  0.27930128494E+04  0.27930128494E+04  0.00000000000E+00 0. -1.
         -2   -1    0    0    0  501 -0.00000000000E+00 -0.00000000000E+00 -0.40297811187E+03  0.40297811187E+03  0.00000000000E+00 0.  1.
         23    2    1    2    0    0 -0.39672466444E+03 -0.64879781292E+03  0.23071862097E+04  0.24310119159E+04  0.91551445543E+02 0.  0.
         11    1    3    3    0    0 -0.13875153305E+03 -0.27697853740E+03  0.10557932573E+04  0.11003038218E+04  0.00000000000E+00 0. -1.
        -11    1    3    3    0    0 -0.25797313138E+03 -0.37181927552E+03  0.12513929524E+04  0.13307080940E+04  0.00000000000E+00 0.  1.
         22    1    1    2    0    0  0.39672466444E+03  0.64879781292E+03  0.82848527832E+02  0.76497904546E+03  0.00000000000E+00 0.  1.
<mgrwt>
<rscale>  0 0.21218134E+04</rscale>
<asrwt>0</asrwt>
<pdfrwt beam="1">  1        2 0.42969427E+00 0.21218134E+04</pdfrwt>
<pdfrwt beam="2">  1       -2 0.61996634E-01 0.21218134E+04</pdfrwt>
<totfact> 0.51944439E+00</totfact>
</mgrwt>
</event>
<event>
 6    1  0.9364335E-007  0.2265338E+04  0.7818608E-02  0.8491715E-01
          1   -1    0    0  501    0  0.00000000000E+00  0.00000000000E+00  0.17543138892E+04  0.17543138892E+04  0.00000000000E+00 0. -1.
         -1   -1    0    0    0  501 -0.00000000000E+00 -0.00000000000E+00 -0.73130512259E+03  0.73130512259E+03  0.00000000000E+00 0.  1.
         23    2    1    2    0    0 -0.50708788292E+03  0.64829955069E+03 -0.33885605697E+03  0.89435969096E+03  0.87323542300E+02 0.  0.
         13    1    3    3    0    0 -0.20624608411E+03  0.30160672024E+03 -0.11084122234E+03  0.38182435422E+03  0.00000000000E+00 0. -1.
        -13    1    3    3    0    0 -0.30084179881E+03  0.34669283045E+03 -0.22801483464E+03  0.51253533674E+03  0.00000000000E+00 0.  1.
         22    1    1    2    0    0  0.50708788292E+03 -0.64829955069E+03  0.13618648236E+04  0.15912593208E+04  0.00000000000E+00 0. -1.
<mgrwt>
<rscale>  0 0.22653377E+04</rscale>
<asrwt>0</asrwt>
<pdfrwt beam="1">  1        1 0.26989444E+00 0.22653377E+04</pdfrwt>
<pdfrwt beam="2">  1       -1 0.11250848E+00 0.22653377E+04</pdfrwt>
<totfact> 0.28696747E+00</totfact>
</mgrwt>
</event>
<event>
 6    1  0.9364335E-007  0.3589585E+04  0.7818608E-02  0.8092881E-01
         -2   -1    0    0    0  501 -0.00000000000E+00  0.00000000000E+00  0.18430040576E+04  0.18430040576E+04  0.00000000000E+00 0.  1.
          2   -1    0    0  501    0  0.00000000000E+00 -0.00000000000E+00 -0.17478425509E+04  0.17478425509E+04  0.00000000000E+00 0. -1.
         23    2    1    2    0    0  0.88800112684E+03  0.10496843275E+04  0.11998627687E+04  0.18271153175E+04  0.91085295227E+02 0.  0.
         13    1    3    3    0    0  0.55334671640E+03  0.64045039028E+03  0.68039372049E+03  0.10859580590E+04  0.00000000000E+00 0.  1.
        -13    1    3    3    0    0  0.33465441044E+03  0.40923393719E+03  0.51946904820E+03  0.74115725849E+03  0.00000000000E+00 0. -1.
         22    1    1    2    0    0 -0.88800112684E+03 -0.10496843275E+04 -0.11047012620E+04  0.17637312910E+04  0.00000000000E+00 0. -1.
<mgrwt>
<rscale>  0 0.35895854E+04</rscale>
<asrwt>0</asrwt>
<pdfrwt beam="1">  1        2 0.26889885E+00 0.35895854E+04</pdfrwt>
<pdfrwt beam="2">  1       -2 0.28353909E+00 0.35895854E+04</pdfrwt>
<totfact> 0.30149837E-01</totfact>
</mgrwt>
</event>
<event>
 6    1  0.9364335E-007  0.3964269E+04  0.7818608E-02  0.8011794E-01
          1   -1    0    0  501    0  0.00000000000E+00  0.00000000000E+00  0.35612491105E+04  0.35612491105E+04  0.00000000000E+00 0. -1.
         -1   -1    0    0    0  501 -0.00000000000E+00 -0.00000000000E+00 -0.11032243516E+04  0.11032243516E+04  0.00000000000E+00 0.  1.
         23    2    1    2    0    0  0.88214836711E+03  0.17528682758E+04  0.90975394797E+03  0.21648984107E+04  0.91651235463E+02 0.  0.
         11    1    3    3    0    0  0.23331854341E+03  0.38627423595E+03  0.22746667911E+03  0.50535771307E+03  0.00000000000E+00 0. -1.
        -11    1    3    3    0    0  0.64882982370E+03  0.13665940398E+04  0.68228726886E+03  0.16595406976E+04  0.00000000000E+00 0.  1.
         22    1    1    2    0    0 -0.88214836711E+03 -0.17528682758E+04  0.15482708109E+04  0.24995750515E+04  0.00000000000E+00 0. -1.
<mgrwt>
<rscale>  0 0.39642688E+04</rscale>
<asrwt>0</asrwt>
<pdfrwt beam="1">  1        1 0.54788447E+00 0.39642688E+04</pdfrwt>
<pdfrwt beam="2">  1       -1 0.16972682E+00 0.39642688E+04</pdfrwt>
<totfact> 0.43278937E-02</totfact>
</mgrwt>
</event>
<event>
 6    1  0.9364335E-007  0.2834839E+04  0.7818608E-02  0.8292533E-01
         -1   -1    0    0    0  501 -0.00000000000E+00  0.00000000000E+00  0.12974187891E+04  0.12974187891E+04  0.00000000000E+00 0.  1.
          1   -1    0    0  501    0  0.00000000000E+00 -0.00000000000E+00 -0.15485191672E+04  0.15485191672E+04  0.00000000000E+00 0. -1.
         23    2    1    2    0    0  0.20114208279E+03  0.40935416298E+03 -0.14713093232E+04  0.15432719062E+04  0.94382646138E+02 0.  0.
         13    1    3    3    0    0  0.16220240532E+03  0.36655397065E+03 -0.11785766588E+04  0.12448752445E+04  0.00000000000E+00 0. -1.
        -13    1    3    3    0    0  0.38939677472E+02  0.42800192328E+02 -0.29273266434E+03  0.29839666171E+03  0.00000000000E+00 0.  1.
         22    1    1    2    0    0 -0.20114208279E+03 -0.40935416298E+03  0.12202089451E+04  0.13026660500E+04  0.00000000000E+00 0.  1.
<mgrwt>
<rscale>  0 0.28348389E+04</rscale>
<asrwt>0</asrwt>
<pdfrwt beam="1">  1        1 0.23823372E+00 0.28348389E+04</pdfrwt>
<pdfrwt beam="2">  1       -1 0.19960289E+00 0.28348389E+04</pdfrwt>
<totfact> 0.79160147E-01</totfact>
</mgrwt>
</event>
<event>
 6    1  0.9364335E-007  0.2623411E+04  0.7818608E-02  0.8360292E-01
          2   -1    0    0  501    0  0.00000000000E+00  0.00000000000E+00  0.28792809671E+04  0.28792809671E+04  0.00000000000E+00 0. -1.
         -2   -1    0    0    0  501 -0.00000000000E+00 -0.00000000000E+00 -0.59756984939E+03  0.59756984939E+03  0.00000000000E+00 0.  1.
         23    2    1    2    0    0 -0.67110669983E+01  0.94242502978E+03 -0.63940132568E+02  0.94894857092E+03  0.90581866341E+02 0.  0.
         11    1    3    3    0    0  0.34842741733E+02  0.20277619577E+03 -0.53000442276E+01  0.20581616237E+03  0.00000000000E+00 0.  1.
        -11    1    3    3    0    0 -0.41553808731E+02  0.73964883401E+03 -0.58640088341E+02  0.74313240855E+03  0.00000000000E+00 0. -1.
         22    1    1    2    0    0  0.67110669983E+01 -0.94242502978E+03  0.23456512502E+04  0.25279022455E+04  0.00000000000E+00 0. -1.
<mgrwt>
<rscale>  0 0.26234111E+04</rscale>
<asrwt>0</asrwt>
<pdfrwt beam="1">  1        2 0.44296629E+00 0.26234111E+04</pdfrwt>
<pdfrwt beam="2">  1       -2 0.91933825E-01 0.26234111E+04</pdfrwt>
<totfact> 0.18371836E+00</totfact>
</mgrwt>
</event>
<event>
 6    1  0.9364335E-007  0.1067807E+04  0.7818608E-02  0.9237150E-01
          3   -1    0    0  501    0  0.00000000000E+00  0.00000000000E+00  0.16293531128E+03  0.16293531128E+03  0.00000000000E+00 0. -1.
         -3   -1    0    0    0  501 -0.00000000000E+00 -0.00000000000E+00 -0.17494860241E+04  0.17494860241E+04  0.00000000000E+00 0.  1.
         23    2    1    2    0    0  0.42589588787E+03 -0.28687587221E+03 -0.10339443637E+04  0.11580614409E+04  0.91543870776E+02 0.  0.
         11    1    3    3    0    0  0.29170312323E+03 -0.22751303651E+03 -0.80785638695E+03  0.88852959197E+03  0.00000000000E+00 0.  1.
        -11    1    3    3    0    0  0.13419276464E+03 -0.59362835701E+02 -0.22608797673E+03  0.26953184889E+03  0.00000000000E+00 0. -1.
         22    1    1    2    0    0 -0.42589588787E+03  0.28687587221E+03 -0.55260634917E+03  0.75435989455E+03  0.00000000000E+00 0. -1.
<mgrwt>
<rscale>  0 0.10678072E+04</rscale>
<asrwt>0</asrwt>
<pdfrwt beam="1">  1        3 0.25066972E-01 0.10678072E+04</pdfrwt>
<pdfrwt beam="2">  1       -3 0.26915168E+00 0.10678072E+04</pdfrwt>
<totfact> 0.22683734E+00</totfact>
</mgrwt>
</event>
<event>
 6    1  0.9364335E-007  0.3144263E+04  0.7818608E-02  0.8203694E-01
         -1   -1    0    0    0  501 -0.00000000000E+00  0.00000000000E+00  0.65191908197E+03  0.65191908197E+03  0.00000000000E+00 0.  1.
          1   -1    0    0  501    0  0.00000000000E+00 -0.00000000000E+00 -0.37912640545E+04  0.37912640545E+04  0.00000000000E+00 0. -1.
         23    2    1    2    0    0  0.14776237996E+04  0.36543014467E+03 -0.10226912782E+04  0.18360517348E+04  0.90979330867E+02 0.  0.
         11    1    3    3    0    0  0.57004184416E+03  0.95827155180E+02 -0.39393967976E+03  0.69951341592E+03  0.00000000000E+00 0. -1.
        -11    1    3    3    0    0  0.90758195544E+03  0.26960298949E+03 -0.62875159843E+03  0.11365383189E+04  0.00000000000E+00 0.  1.
         22    1    1    2    0    0 -0.14776237996E+04 -0.36543014467E+03 -0.21166536943E+04  0.26071314016E+04  0.00000000000E+00 0.  1.
<mgrwt>
<rscale>  0 0.31442630E+04</rscale>
<asrwt>0</asrwt>
<pdfrwt beam="1">  1        1 0.58327138E+00 0.31442630E+04</pdfrwt>
<pdfrwt beam="2">  1       -1 0.10029524E+00 0.31442630E+04</pdfrwt>
<totfact> 0.11520319E-01</totfact>
</mgrwt>
</event>
<event>
 6    1  0.9364335E-007  0.8401062E+03  0.7818608E-02  0.9503713E-01
          1   -1    0    0  501    0  0.00000000000E+00  0.00000000000E+00  0.20317328588E+03  0.20317328588E+03  0.00000000000E+00 0. -1.
         -1   -1    0    0    0  501 -0.00000000000E+00 -0.00000000000E+00 -0.86844383000E+03  0.86844383000E+03  0.00000000000E+00 0.  1.
         23    2    1    2    0    0 -0.17675670211E+02  0.15586225485E+03 -0.82676284599E+03  0.84648329929E+03  0.91606226061E+02 0.  0.
         13    1    3    3    0    0 -0.18295590540E+01  0.69935215910E+02 -0.16848837514E+03  0.18243523308E+03  0.00000000000E+00 0.  1.
        -13    1    3    3    0    0 -0.15846111157E+02  0.85927038942E+02 -0.65827447086E+03  0.66404806621E+03  0.00000000000E+00 0. -1.
         22    1    1    2    0    0  0.17675670211E+02 -0.15586225485E+03  0.16149230187E+03  0.22513381658E+03  0.00000000000E+00 0. -1.
<mgrwt>
<rscale>  0 0.84010615E+03</rscale>
<asrwt>0</asrwt>
<pdfrwt beam="1">  1        1 0.31257429E-01 0.84010615E+03</pdfrwt>
<pdfrwt beam="2">  1       -1 0.13360674E+00 0.84010615E+03</pdfrwt>
<totfact> 0.69746575E+01</totfact>
</mgrwt>
</event>
<event>
 6    1  0.1237397E-006  0.4208762E+04  0.7818608E-02  0.7963708E-01
         -2   -1    0    0    0  501 -0.00000000000E+00  0.00000000000E+00  0.16558263232E+04  0.16558263232E+04  0.00000000000E+00 0.  1.
          2   -1    0    0  501    0  0.00000000000E+00 -0.00000000000E+00 -0.26744468349E+04  0.26744468349E+04  0.00000000000E+00 0. -1.
         23    2    1    2    0    0  0.70384138235E+03  0.17852850436E+04 -0.13955454678E+04  0.23745871400E+04  0.92095354769E+02 0.  0.
         11    1    3    3    0    0  0.21490723468E+03  0.65889513709E+03 -0.48545390079E+03  0.84616393860E+03  0.00000000000E+00 0. -1.
        -11    1    3    3    0    0  0.48893414767E+03  0.11263899065E+04 -0.91009156701E+03  0.15284232014E+04  0.00000000000E+00 0.  1.
         22    1    1    2    0    0 -0.70384138235E+03 -0.17852850436E+04  0.37692495611E+03  0.19556860180E+04  0.00000000000E+00 0.  1.
<mgrwt>
<rscale>  0 0.42087620E+04</rscale>
<asrwt>0</asrwt>
<pdfrwt beam="1">  1        2 0.41145336E+00 0.42087620E+04</pdfrwt>
<pdfrwt beam="2">  1       -2 0.25474251E+00 0.42087620E+04</pdfrwt>
<totfact> 0.12817744E-01</totfact>
</mgrwt>
</event>
<event>
 6    1  0.1325358E-006  0.2853716E+04  0.7818608E-02  0.8286783E-01
          2   -1    0    0  501    0  0.00000000000E+00  0.00000000000E+00  0.10250079517E+04  0.10250079517E+04  0.00000000000E+00 0. -1.
         -2   -1    0    0    0  501 -0.00000000000E+00 -0.00000000000E+00 -0.19862512299E+04  0.19862512299E+04  0.00000000000E+00 0.  1.
         23    2    1    2    0    0  0.59128517368E+03  0.82758674125E+03 -0.15348257451E+04  0.18435628095E+04  0.92281058982E+02 0.  0.
         13    1    3    3    0    0  0.36625851662E+03  0.43738793657E+03 -0.88220765805E+03  0.10505921473E+04  0.00000000000E+00 0. -1.
        -13    1    3    3    0    0  0.22502665707E+03  0.39019880469E+03 -0.65261808705E+03  0.79297066220E+03  0.00000000000E+00 0.  1.
         22    1    1    2    0    0 -0.59128517368E+03 -0.82758674125E+03  0.57358246696E+03  0.11676963721E+04  0.00000000000E+00 0. -1.
<mgrwt>
<rscale>  0 0.28537157E+04</rscale>
<asrwt>0</asrwt>
<pdfrwt beam="1">  1        2 0.15769353E+00 0.28537157E+04</pdfrwt>
<pdfrwt beam="2">  1       -2 0.30557711E+00 0.28537157E+04</pdfrwt>
<totfact> 0.61784417E-01</totfact>
</mgrwt>
</event>
<event>
 6    1  0.9364335E-007  0.9886187E+03  0.7818608E-02  0.9321116E-01
          1   -1    0    0  501    0  0.00000000000E+00  0.00000000000E+00  0.17500370691E+04  0.17500370691E+04  0.00000000000E+00 0. -1.
         -1   -1    0    0    0  501 -0.00000000000E+00 -0.00000000000E+00 -0.13962090353E+03  0.13962090353E+03  0.00000000000E+00 0.  1.
         23    2    1    2    0    0  0.27054355651E+03 -0.23111778087E+03  0.16782102897E+03  0.40382824727E+03  0.91126894625E+02 0.  0.
         13    1    3    3    0    0  0.23677636396E+03 -0.15223673918E+03  0.12963186408E+03  0.30990884381E+03  0.00000000000E+00 0. -1.
        -13    1    3    3    0    0  0.33767192545E+02 -0.78881041691E+02  0.38189164893E+02  0.93919403458E+02  0.00000000000E+00 0.  1.
         22    1    1    2    0    0 -0.27054355651E+03  0.23111778087E+03  0.14425951366E+04  0.14858297253E+04  0.00000000000E+00 0. -1.
<mgrwt>
<rscale>  0 0.98861875E+03</rscale>
<asrwt>0</asrwt>
<pdfrwt beam="1">  1        1 0.26923646E+00 0.98861875E+03</pdfrwt>
<pdfrwt beam="2">  1       -1 0.21480140E-01 0.98861875E+03</pdfrwt>
<totfact> 0.80348576E+01</totfact>
</mgrwt>
</event>
<event>
 6    1  0.9364335E-007  0.2914215E+04  0.7818608E-02  0.8268661E-01
         -2   -1    0    0    0  501 -0.00000000000E+00  0.00000000000E+00  0.15176339417E+04  0.15176339417E+04  0.00000000000E+00 0.  1.
          2   -1    0    0  501    0  0.00000000000E+00 -0.00000000000E+00 -0.13989952240E+04  0.13989952240E+04  0.00000000000E+00 0. -1.
         23    2    1    2    0    0  0.93463704674E+03 -0.40086597575E+02 -0.10568834217E+04  0.14142957657E+04  0.89869914720E+02 0.  0.
         11    1    3    3    0    0  0.24468328383E+03  0.10884088391E+02 -0.22793608429E+03  0.33457918537E+03  0.00000000000E+00 0. -1.
        -11    1    3    3    0    0  0.68995376291E+03 -0.50970685966E+02 -0.82894733738E+03  0.10797165804E+04  0.00000000000E+00 0.  1.
         22    1    1    2    0    0 -0.93463704674E+03  0.40086597575E+02  0.11755221394E+04  0.15023333999E+04  0.00000000000E+00 0.  1.
<mgrwt>
<rscale>  0 0.29142153E+04</rscale>
<asrwt>0</asrwt>
<pdfrwt beam="1">  1        2 0.21523003E+00 0.29142153E+04</pdfrwt>
<pdfrwt beam="2">  1       -2 0.23348214E+00 0.29142153E+04</pdfrwt>
<totfact> 0.10158034E+00</totfact>
</mgrwt>
</event>
<event>
 6    1  0.9364335E-007  0.2680824E+04  0.7818608E-02  0.8341254E-01
         -2   -1    0    0    0  501 -0.00000000000E+00  0.00000000000E+00  0.11326841970E+04  0.11326841970E+04  0.00000000000E+00 0.  1.
          2   -1    0    0  501    0  0.00000000000E+00 -0.00000000000E+00 -0.15862354134E+04  0.15862354134E+04  0.00000000000E+00 0. -1.
         23    2    1    2    0    0 -0.79699767310E+02  0.11356775987E+04  0.48758041922E+03  0.12418128381E+04  0.90822896283E+02 0.  0.
         11    1    3    3    0    0 -0.52336673445E+02  0.42218739431E+03  0.22326195314E+03  0.48044481787E+03  0.00000000000E+00 0. -1.
        -11    1    3    3    0    0 -0.27363093866E+02  0.71349020441E+03  0.26431846608E+03  0.76136802022E+03  0.00000000000E+00 0.  1.
         22    1    1    2    0    0  0.79699767310E+02 -0.11356775987E+04 -0.94113163562E+03  0.14771067723E+04  0.00000000000E+00 0.  1.
<mgrwt>
<rscale>  0 0.26808236E+04</rscale>
<asrwt>0</asrwt>
<pdfrwt beam="1">  1        2 0.24403622E+00 0.26808236E+04</pdfrwt>
<pdfrwt beam="2">  1       -2 0.17425911E+00 0.26808236E+04</pdfrwt>
<totfact> 0.19837466E+00</totfact>
</mgrwt>
</event>
<event>
 6    1  0.9364335E-007  0.4087338E+04  0.7818608E-02  0.7987156E-01
          2   -1    0    0  501    0  0.00000000000E+00  0.00000000000E+00  0.28167224997E+04  0.28167224997E+04  0.00000000000E+00 0. -1.
         -2   -1    0    0    0  501 -0.00000000000E+00 -0.00000000000E+00 -0.14827812964E+04  0.14827812964E+04  0.00000000000E+00 0.  1.
         23    2    1    2    0    0  0.61627827216E+03  0.13367123268E+04  0.21571078288E+04  0.26130275744E+04  0.90554769599E+02 0.  0.
         11    1    3    3    0    0  0.44383907914E+03  0.10473639603E+04  0.16397816574E+04  0.19957074629E+04  0.00000000000E+00 0.  1.
        -11    1    3    3    0    0  0.17243919302E+03  0.28934836645E+03  0.51732617140E+03  0.61732011151E+03  0.00000000000E+00 0. -1.
         22    1    1    2    0    0 -0.61627827216E+03 -0.13367123268E+04 -0.82316662544E+03  0.16864762218E+04  0.00000000000E+00 0.  1.
<mgrwt>
<rscale>  0 0.40873382E+04</rscale>
<asrwt>0</asrwt>
<pdfrwt beam="1">  1        2 0.43334192E+00 0.40873382E+04</pdfrwt>
<pdfrwt beam="2">  1       -2 0.22812020E+00 0.40873382E+04</pdfrwt>
<totfact> 0.15541610E-01</totfact>
</mgrwt>
</event>
<event>
 6    1  0.9364335E-007  0.3962267E+04  0.7818608E-02  0.8012202E-01
         -2   -1    0    0    0  501 -0.00000000000E+00  0.00000000000E+00  0.74317946731E+03  0.74317946731E+03  0.00000000000E+00 0.  1.
          2   -1    0    0  501    0  0.00000000000E+00 -0.00000000000E+00 -0.52812138189E+04  0.52812138189E+04  0.00000000000E+00 0. -1.
         23    2    1    2    0    0 -0.23956876824E+03  0.19648632837E+04 -0.23494495912E+04  0.30734639120E+04  0.90477171253E+02 0.  0.
         13    1    3    3    0    0 -0.10676704631E+03  0.57121824423E+03 -0.66082424831E+03  0.87998759757E+03  0.00000000000E+00 0.  1.
        -13    1    3    3    0    0 -0.13280172193E+03  0.13936450394E+04 -0.16886253429E+04  0.21934763144E+04  0.00000000000E+00 0. -1.
         22    1    1    2    0    0  0.23956876824E+03 -0.19648632837E+04 -0.21885847604E+04  0.29509293742E+04  0.00000000000E+00 0. -1.
<mgrwt>
<rscale>  0 0.39622669E+04</rscale>
<asrwt>0</asrwt>
<pdfrwt beam="1">  1        2 0.81249442E+00 0.39622669E+04</pdfrwt>
<pdfrwt beam="2">  1       -2 0.11433531E+00 0.39622669E+04</pdfrwt>
<totfact> 0.65027140E-03</totfact>
</mgrwt>
</event>
<event>
 6    1  0.9364335E-007  0.1944902E+04  0.7818608E-02  0.8632823E-01
         -1   -1    0    0    0  501 -0.00000000000E+00  0.00000000000E+00  0.68212542557E+03  0.68212542557E+03  0.00000000000E+00 0.  1.
          1   -1    0    0  501    0  0.00000000000E+00 -0.00000000000E+00 -0.13863448082E+04  0.13863448082E+04  0.00000000000E+00 0. -1.
         23    2    1    2    0    0 -0.51408125304E+03 -0.17504126174E+03 -0.12080763000E+04  0.13276660956E+04  0.91268486871E+02 0.  0.
         11    1    3    3    0    0 -0.23569165064E+03 -0.58375226913E+02 -0.44266689657E+03  0.50488830707E+03  0.00000000000E+00 0. -1.
        -11    1    3    3    0    0 -0.27838960240E+03 -0.11666603483E+03 -0.76540940342E+03  0.82277778850E+03  0.00000000000E+00 0.  1.
         22    1    1    2    0    0  0.51408125304E+03  0.17504126174E+03  0.50385691734E+03  0.74080413821E+03  0.00000000000E+00 0.  1.
<mgrwt>
<rscale>  0 0.19449021E+04</rscale>
<asrwt>0</asrwt>
<pdfrwt beam="1">  1        1 0.21328382E+00 0.19449021E+04</pdfrwt>
<pdfrwt beam="2">  1       -1 0.10494237E+00 0.19449021E+04</pdfrwt>
<totfact> 0.62408870E+00</totfact>
</mgrwt>
</event>
<event>
 6    1  0.9364335E-007  0.2728989E+04  0.7818608E-02  0.8325660E-01
         -1   -1    0    0    0  501 -0.00000000000E+00  0.00000000000E+00  0.24297719935E+04  0.24297719935E+04  0.00000000000E+00 0.  1.
          1   -1    0    0  501    0  0.00000000000E+00 -0.00000000000E+00 -0.76626339508E+03  0.76626339508E+03  0.00000000000E+00 0. -1.
         23    2    1    2    0    0  0.97749282682E+03 -0.55991958924E+02  0.19431584997E+04  0.21777862083E+04  0.90887226824E+02 0.  0.
         13    1    3    3    0    0  0.41272708361E+03 -0.54630064982E+02  0.89737032910E+03  0.98924294139E+03  0.00000000000E+00 0. -1.
        -13    1    3    3    0    0  0.56476574321E+03 -0.13618939420E+01  0.10457881706E+04  0.11885432669E+04  0.00000000000E+00 0.  1.
         22    1    1    2    0    0 -0.97749282682E+03  0.55991958924E+02 -0.27964990128E+03  0.10182491803E+04  0.00000000000E+00 0. -1.
<mgrwt>
<rscale>  0 0.27289891E+04</rscale>
<asrwt>0</asrwt>
<pdfrwt beam="1">  1        1 0.11788668E+00 0.27289891E+04</pdfrwt>
<pdfrwt beam="2">  1       -1 0.37381107E+00 0.27289891E+04</pdfrwt>
<totfact> 0.22213794E-01</totfact>
</mgrwt>
</event>
<event>
 6    1  0.9364335E-007  0.1168634E+04  0.7818608E-02  0.9140763E-01
          2   -1    0    0  501    0  0.00000000000E+00  0.00000000000E+00  0.10710970252E+04  0.10710970252E+04  0.00000000000E+00 0. -1.
         -2   -1    0    0    0  501 -0.00000000000E+00 -0.00000000000E+00 -0.31876320599E+03  0.31876320599E+03  0.00000000000E+00 0.  1.
         23    2    1    2    0    0 -0.38215942525E+03  0.19150937745E+03  0.84609158128E+03  0.95223917830E+03  0.90370464226E+02 0.  0.
         13    1    3    3    0    0 -0.21177740866E+03  0.68473269846E+02  0.50057917871E+03  0.54783005911E+03  0.00000000000E+00 0. -1.
        -13    1    3    3    0    0 -0.17038201659E+03  0.12303610761E+03  0.34551240257E+03  0.40440911919E+03  0.00000000000E+00 0.  1.
         22    1    1    2    0    0  0.38215942525E+03 -0.19150937745E+03 -0.93757762095E+02  0.43762105287E+03  0.00000000000E+00 0.  1.
<mgrwt>
<rscale>  0 0.11686339E+04</rscale>
<asrwt>0</asrwt>
<pdfrwt beam="1">  1        2 0.16478416E+00 0.11686339E+04</pdfrwt>
<pdfrwt beam="2">  1       -2 0.49040494E-01 0.11686339E+04</pdfrwt>
<totfact> 0.88355822E+01</totfact>
</mgrwt>
</event>
<event>
 6    1  0.9364335E-007  0.3657740E+04  0.7818608E-02  0.8077392E-01
         -2   -1    0    0    0  501 -0.00000000000E+00  0.00000000000E+00  0.14462725860E+04  0.14462725860E+04  0.00000000000E+00 0.  1.
          2   -1    0    0  501    0  0.00000000000E+00 -0.00000000000E+00 -0.23126799255E+04  0.23126799255E+04  0.00000000000E+00 0. -1.
         23    2    1    2    0    0  0.60851956910E+03 -0.12620257882E+04 -0.16397356779E+04  0.21586269587E+04  0.89062324590E+02 0.  0.
         13    1    3    3    0    0  0.15225229965E+03 -0.40793339474E+03 -0.52356240610E+03  0.68096109314E+03  0.00000000000E+00 0.  1.
        -13    1    3    3    0    0  0.45626726946E+03 -0.85409239342E+03 -0.11161732718E+04  0.14776658656E+04  0.00000000000E+00 0. -1.
         22    1    1    2    0    0 -0.60851956910E+03  0.12620257882E+04  0.77332833836E+03  0.16003255528E+04  0.00000000000E+00 0.  1.
<mgrwt>
<rscale>  0 0.36577401E+04</rscale>
<asrwt>0</asrwt>
<pdfrwt beam="1">  1        2 0.35579691E+00 0.36577401E+04</pdfrwt>
<pdfrwt beam="2">  1       -2 0.22250348E+00 0.36577401E+04</pdfrwt>
<totfact> 0.34470458E-01</totfact>
</mgrwt>
</event>
<event>
 6    1  0.1078997E-006  0.3942474E+04  0.7818608E-02  0.8016253E-01
          1   -1    0    0  501    0  0.00000000000E+00  0.00000000000E+00  0.23164837305E+04  0.23164837305E+04  0.00000000000E+00 0. -1.
         -1   -1    0    0    0  501 -0.00000000000E+00 -0.00000000000E+00 -0.16774458984E+04  0.16774458984E+04  0.00000000000E+00 0.  1.
         23    2    1    2    0    0 -0.17290694994E+04 -0.14505818977E+03  0.12650608620E+04  0.21493082460E+04  0.91780933703E+02 0.  0.
         11    1    3    3    0    0 -0.69633702512E+03 -0.24127628851E+02  0.47153668120E+03  0.84131696568E+03  0.00000000000E+00 0. -1.
        -11    1    3    3    0    0 -0.10327324742E+04 -0.12093056092E+03  0.79352418083E+03  0.13079912804E+04  0.00000000000E+00 0.  1.
         22    1    1    2    0    0  0.17290694994E+04  0.14505818977E+03 -0.62602302996E+03  0.18446213829E+04  0.00000000000E+00 0.  1.
<mgrwt>
<rscale>  0 0.39424744E+04</rscale>
<asrwt>0</asrwt>
<pdfrwt beam="1">  1        1 0.35638211E+00 0.39424744E+04</pdfrwt>
<pdfrwt beam="2">  1       -1 0.25806860E+00 0.39424744E+04</pdfrwt>
<totfact> 0.88072152E-02</totfact>
</mgrwt>
</event>
<event>
 6    1  0.9364335E-007  0.2535118E+04  0.7818608E-02  0.8390580E-01
          1   -1    0    0  501    0  0.00000000000E+00  0.00000000000E+00  0.11866706061E+04  0.11866706061E+04  0.00000000000E+00 0. -1.
         -1   -1    0    0    0  501 -0.00000000000E+00 -0.00000000000E+00 -0.13539612529E+04  0.13539612529E+04  0.00000000000E+00 0.  1.
         23    2    1    2    0    0  0.54616611784E+03  0.10138528007E+04  0.44302084974E+03  0.12372995711E+04  0.91912054010E+02 0.  0.
         11    1    3    3    0    0  0.44732026907E+03  0.77545834003E+03  0.31337510823E+03  0.94849091651E+03  0.00000000000E+00 0.  1.
        -11    1    3    3    0    0  0.98845848769E+02  0.23839446067E+03  0.12964574151E+03  0.28880865463E+03  0.00000000000E+00 0. -1.
         22    1    1    2    0    0 -0.54616611784E+03 -0.10138528007E+04 -0.61031149657E+03  0.13033322879E+04  0.00000000000E+00 0.  1.
<mgrwt>
<rscale>  0 0.25351182E+04</rscale>
<asrwt>0</asrwt>
<pdfrwt beam="1">  1        1 0.18256471E+00 0.25351182E+04</pdfrwt>
<pdfrwt beam="2">  1       -1 0.20830173E+00 0.25351182E+04</pdfrwt>
<totfact> 0.12779769E+00</totfact>
</mgrwt>
</event>
<event>
 6    1  0.9364335E-007  0.2885523E+04  0.7818608E-02  0.8277198E-01
         -2   -1    0    0    0  501 -0.00000000000E+00  0.00000000000E+00  0.67916436568E+03  0.67916436568E+03  0.00000000000E+00 0.  1.
          2   -1    0    0  501    0  0.00000000000E+00 -0.00000000000E+00 -0.30648860390E+04  0.30648860390E+04  0.00000000000E+00 0. -1.
         23    2    1    2    0    0 -0.72707186272E+03  0.17891286187E+03 -0.27920855932E+04  0.28921261468E+04  0.89489573687E+02 0.  0.
         13    1    3    3    0    0 -0.90073104260E+02  0.39036964633E+02 -0.27784142627E+03  0.29467423856E+03  0.00000000000E+00 0. -1.
        -13    1    3    3    0    0 -0.63699875846E+03  0.13987589724E+03 -0.25142441669E+04  0.25974519083E+04  0.00000000000E+00 0.  1.
         22    1    1    2    0    0  0.72707186272E+03 -0.17891286187E+03  0.40636391989E+03  0.85192425783E+03  0.00000000000E+00 0.  1.
<mgrwt>
<rscale>  0 0.28855234E+04</rscale>
<asrwt>0</asrwt>
<pdfrwt beam="1">  1        2 0.47152093E+00 0.28855234E+04</pdfrwt>
<pdfrwt beam="2">  1       -2 0.10448682E+00 0.28855234E+04</pdfrwt>
<totfact> 0.10177786E+00</totfact>
</mgrwt>
</event>
<event>
 6    1  0.9364335E-007  0.1463035E+04  0.7818608E-02  0.8909414E-01
         -2   -1    0    0    0  501 -0.00000000000E+00  0.00000000000E+00  0.35476760557E+03  0.35476760557E+03  0.00000000000E+00 0.  1.
          2   -1    0    0  501    0  0.00000000000E+00 -0.00000000000E+00 -0.15083608215E+04  0.15083608215E+04  0.00000000000E+00 0. -1.
         23    2    1    2    0    0 -0.53321956869E+03  0.21767035118E+03 -0.11474855072E+04  0.12871589884E+04  0.91388084004E+02 0.  0.
         13    1    3    3    0    0 -0.10389140954E+03  0.62393840960E+02 -0.31840325603E+03  0.34068614562E+03  0.00000000000E+00 0.  1.
        -13    1    3    3    0    0 -0.42932815915E+03  0.15527651022E+03 -0.82908225116E+03  0.94647284275E+03  0.00000000000E+00 0. -1.
         22    1    1    2    0    0  0.53321956869E+03 -0.21767035118E+03 -0.61077087431E+01  0.57596943871E+03  0.00000000000E+00 0.  1.
<mgrwt>
<rscale>  0 0.14630346E+04</rscale>
<asrwt>0</asrwt>
<pdfrwt beam="1">  1        2 0.23205551E+00 0.14630346E+04</pdfrwt>
<pdfrwt beam="2">  1       -2 0.54579632E-01 0.14630346E+04</pdfrwt>
<totfact> 0.38423511E+01</totfact>
</mgrwt>
</event>
<event>
 6    1  0.9364335E-007  0.1737333E+04  0.7818608E-02  0.8740354E-01
          2   -1    0    0  501    0  0.00000000000E+00  0.00000000000E+00  0.12194868117E+04  0.12194868117E+04  0.00000000000E+00 0. -1.
         -2   -1    0    0    0  501 -0.00000000000E+00 -0.00000000000E+00 -0.61876948747E+03  0.61876948747E+03  0.00000000000E+00 0.  1.
         23    2    1    2    0    0  0.10435103471E+03 -0.28902304350E+03  0.11582086926E+04  0.12016873052E+04  0.90451897766E+02 0.  0.
         11    1    3    3    0    0  0.39779754094E+01 -0.13724230082E+03  0.54681432029E+03  0.56378823533E+03  0.00000000000E+00 0. -1.
        -11    1    3    3    0    0  0.10037305931E+03 -0.15178074268E+03  0.61139437233E+03  0.63789906992E+03  0.00000000000E+00 0.  1.
         22    1    1    2    0    0 -0.10435103471E+03  0.28902304350E+03 -0.55749136842E+03  0.63656899389E+03  0.00000000000E+00 0.  1.
<mgrwt>
<rscale>  0 0.17373327E+04</rscale>
<asrwt>0</asrwt>
<pdfrwt beam="1">  1        2 0.18761335E+00 0.17373327E+04</pdfrwt>
<pdfrwt beam="2">  1       -2 0.95195306E-01 0.17373327E+04</pdfrwt>
<totfact> 0.16230418E+01</totfact>
</mgrwt>
</event>
<event>
 6    1  0.9364335E-007  0.1241711E+04  0.7818608E-02  0.9077110E-01
          1   -1    0    0  501    0  0.00000000000E+00  0.00000000000E+00  0.15835596578E+04  0.15835596578E+04  0.00000000000E+00 0. -1.
         -1   -1    0    0    0  501 -0.00000000000E+00 -0.00000000000E+00 -0.24341469276E+03  0.24341469276E+03  0.00000000000E+00 0.  1.
         23    2    1    2    0    0 -0.11507621037E+03  0.60296261846E+03  0.77257881531E+03  0.99094935823E+03  0.91083210645E+02 0.  0.
         13    1    3    3    0    0  0.83249487371E-01  0.23404888186E+03  0.29735904015E+03  0.37841945615E+03  0.00000000000E+00 0. -1.
        -13    1    3    3    0    0 -0.11515945986E+03  0.36891373659E+03  0.47521977516E+03  0.61252990208E+03  0.00000000000E+00 0.  1.
         22    1    1    2    0    0  0.11507621037E+03 -0.60296261846E+03  0.56756614969E+03  0.83602499228E+03  0.00000000000E+00 0. -1.
<mgrwt>
<rscale>  0 0.12417112E+04</rscale>
<asrwt>0</asrwt>
<pdfrwt beam="1">  1        1 0.24362456E+00 0.12417112E+04</pdfrwt>
<pdfrwt beam="2">  1       -1 0.37448415E-01 0.12417112E+04</pdfrwt>
<totfact> 0.38815703E+01</totfact>
</mgrwt>
</event>
<event>
 6    1  0.9364335E-007  0.5460233E+04  0.7818608E-02  0.7761185E-01
          1   -1    0    0  501    0  0.00000000000E+00  0.00000000000E+00  0.18403538607E+04  0.18403538607E+04  0.00000000000E+00 0. -1.
         -1   -1    0    0    0  501 -0.00000000000E+00 -0.00000000000E+00 -0.40500562337E+04  0.40500562337E+04  0.00000000000E+00 0.  1.
         23    2    1    2    0    0  0.44485888288E+02 -0.11669401042E+04  0.15560925203E+04  0.19477029814E+04  0.91622981997E+02 0.  0.
         13    1    3    3    0    0 -0.11297637846E+02 -0.80119244204E+03  0.10778310059E+04  0.13430400750E+04  0.00000000000E+00 0.  1.
        -13    1    3    3    0    0  0.55783526134E+02 -0.36574766213E+03  0.47826151440E+03  0.60466290634E+03  0.00000000000E+00 0. -1.
         22    1    1    2    0    0 -0.44485888288E+02  0.11669401042E+04 -0.37657948933E+04  0.39427071131E+04  0.00000000000E+00 0.  1.
<mgrwt>
<rscale>  0 0.54602332E+04</rscale>
<asrwt>0</asrwt>
<pdfrwt beam="1">  1        1 0.28313137E+00 0.54602332E+04</pdfrwt>
<pdfrwt beam="2">  1       -1 0.62308557E+00 0.54602332E+04</pdfrwt>
<totfact> 0.97763317E-04</totfact>
</mgrwt>
</event>
<event>
 6    1  0.9364335E-007  0.3102312E+04  0.7818608E-02  0.8215104E-01
         -2   -1    0    0    0  501 -0.00000000000E+00  0.00000000000E+00  0.67871287039E+03  0.67871287039E+03  0.00000000000E+00 0.  1.
          2   -1    0    0  501    0  0.00000000000E+00 -0.00000000000E+00 -0.35450695332E+04  0.35450695332E+04  0.00000000000E+00 0. -1.
         23    2    1    2    0    0  0.12752663821E+04  0.37265924693E+03 -0.34815173234E+03  0.13765846002E+04  0.92716089316E+02 0.  0.
         13    1    3    3    0    0  0.44703463524E+03  0.10714456379E+03 -0.15975480379E+03  0.48666366208E+03  0.00000000000E+00 0. -1.
        -13    1    3    3    0    0  0.82823174686E+03  0.26551468314E+03 -0.18839692855E+03  0.88992093815E+03  0.00000000000E+00 0.  1.
         22    1    1    2    0    0 -0.12752663821E+04 -0.37265924693E+03 -0.25182049305E+04  0.28471978033E+04  0.00000000000E+00 0.  1.
<mgrwt>
<rscale>  0 0.31023116E+04</rscale>
<asrwt>0</asrwt>
<pdfrwt beam="1">  1        2 0.54539532E+00 0.31023116E+04</pdfrwt>
<pdfrwt beam="2">  1       -2 0.10441736E+00 0.31023116E+04</pdfrwt>
<totfact> 0.47732977E-01</totfact>
</mgrwt>
</event>
<event>
 6    1  0.9364335E-007  0.1934985E+04  0.7818608E-02  0.8637636E-01
         -1   -1    0    0    0  501 -0.00000000000E+00  0.00000000000E+00  0.50203814665E+03  0.50203814665E+03  0.00000000000E+00 0.  1.
          1   -1    0    0  501    0  0.00000000000E+00 -0.00000000000E+00 -0.18644827043E+04  0.18644827043E+04  0.00000000000E+00 0. -1.
         23    2    1    2    0    0  0.17820140410E+03  0.86286003025E+03 -0.11650717953E+04  0.14636148871E+04  0.92157893928E+02 0.  0.
         13    1    3    3    0    0  0.76195271969E+02  0.20419258165E+03 -0.25243006094E+03  0.33349852404E+03  0.00000000000E+00 0.  1.
        -13    1    3    3    0    0  0.10200613213E+03  0.65866744860E+03 -0.91264173437E+03  0.11301163631E+04  0.00000000000E+00 0. -1.
         22    1    1    2    0    0 -0.17820140410E+03 -0.86286003025E+03 -0.19737276239E+03  0.90290596385E+03  0.00000000000E+00 0.  1.
<mgrwt>
<rscale>  0 0.19349847E+04</rscale>
<asrwt>0</asrwt>
<pdfrwt beam="1">  1        1 0.28684349E+00 0.19349847E+04</pdfrwt>
<pdfrwt beam="2">  1       -1 0.77236639E-01 0.19349847E+04</pdfrwt>
<totfact> 0.57739267E+00</totfact>
</mgrwt>
</event>
<event>
 6    1  0.9364335E-007  0.3230010E+04  0.7818608E-02  0.8180936E-01
         -2   -1    0    0    0  501 -0.00000000000E+00  0.00000000000E+00  0.92478623029E+03  0.92478623029E+03  0.00000000000E+00 0.  1.
          2   -1    0    0  501    0  0.00000000000E+00 -0.00000000000E+00 -0.28203713970E+04  0.28203713970E+04  0.00000000000E+00 0. -1.
         23    2    1    2    0    0 -0.78278127784E+03 -0.14069056020E+04 -0.10752778482E+04  0.19382171195E+04  0.91286635379E+02 0.  0.
         13    1    3    3    0    0 -0.39283950191E+03 -0.79894185100E+03 -0.58812932392E+03  0.10670178336E+04  0.00000000000E+00 0.  1.
        -13    1    3    3    0    0 -0.38994177592E+03 -0.60796375096E+03 -0.48714852430E+03  0.87119928594E+03  0.00000000000E+00 0. -1.
         22    1    1    2    0    0  0.78278127784E+03  0.14069056020E+04 -0.82030731845E+03  0.18069405077E+04  0.00000000000E+00 0. -1.
<mgrwt>
<rscale>  0 0.32300097E+04</rscale>
<asrwt>0</asrwt>
<pdfrwt beam="1">  1        2 0.43390328E+00 0.32300097E+04</pdfrwt>
<pdfrwt beam="2">  1       -2 0.14227481E+00 0.32300097E+04</pdfrwt>
<totfact> 0.64982239E-01</totfact>
</mgrwt>
</event>
<event>
 6    1  0.9364335E-007  0.2004985E+04  0.7818608E-02  0.8604293E-01
          2   -1    0    0  501    0  0.00000000000E+00  0.00000000000E+00  0.10628393342E+04  0.10628393342E+04  0.00000000000E+00 0. -1.
         -2   -1    0    0    0  501 -0.00000000000E+00 -0.00000000000E+00 -0.94557242560E+03  0.94557242560E+03  0.00000000000E+00 0.  1.
         23    2    1    2    0    0 -0.29414356229E+03  0.67819906438E+02 -0.89663582908E+03  0.95052767522E+03  0.91799109017E+02 0.  0.
         13    1    3    3    0    0 -0.17377183999E+03  0.75351134926E+02 -0.45815878517E+03  0.49576599150E+03  0.00000000000E+00 0.  1.
        -13    1    3    3    0    0 -0.12037172229E+03 -0.75312284885E+01 -0.43847704392E+03  0.45476168371E+03  0.00000000000E+00 0. -1.
         22    1    1    2    0    0  0.29414356229E+03 -0.67819906438E+02  0.10139027377E+04  0.10578840846E+04  0.00000000000E+00 0. -1.
<mgrwt>
<rscale>  0 0.20049854E+04</rscale>
<asrwt>0</asrwt>
<pdfrwt beam="1">  1        2 0.16351374E+00 0.20049854E+04</pdfrwt>
<pdfrwt beam="2">  1       -2 0.14547268E+00 0.20049854E+04</pdfrwt>
<totfact> 0.69326084E+00</totfact>
</mgrwt>
</event>
<event>
 6    1  0.9364335E-007  0.7461372E+03  0.7818608E-02  0.9641430E-01
          2   -1    0    0  501    0  0.00000000000E+00  0.00000000000E+00  0.12723016687E+04  0.12723016687E+04  0.00000000000E+00 0. -1.
         -2   -1    0    0    0  501 -0.00000000000E+00 -0.00000000000E+00 -0.10939242414E+03  0.10939242414E+03  0.00000000000E+00 0.  1.
         23    2    1    2    0    0 -0.61485735030E+02  0.31271865018E+03  0.24798652890E+03  0.41285095516E+03  0.85878652074E+02 0.  0.
         11    1    3    3    0    0 -0.57261210663E+02  0.16496848166E+03  0.17784100258E+03  0.24924058335E+03  0.00000000000E+00 0.  1.
        -11    1    3    3    0    0 -0.42245243670E+01  0.14775016852E+03  0.70145526315E+02  0.16361037182E+03  0.00000000000E+00 0. -1.
         22    1    1    2    0    0  0.61485735030E+02 -0.31271865018E+03  0.91492271562E+03  0.96884313763E+03  0.00000000000E+00 0. -1.
<mgrwt>
<rscale>  0 0.74613716E+03</rscale>
<asrwt>0</asrwt>
<pdfrwt beam="1">  1        2 0.19573871E+00 0.74613716E+03</pdfrwt>
<pdfrwt beam="2">  1       -2 0.16829605E-01 0.74613716E+03</pdfrwt>
<totfact> 0.49850705E+02</totfact>
</mgrwt>
</event>
<event>
 6    1  0.9364335E-007  0.2441059E+04  0.7818608E-02  0.8424290E-01
          1   -1    0    0  501    0  0.00000000000E+00  0.00000000000E+00  0.13848025460E+04  0.13848025460E+04  0.00000000000E+00 0. -1.
         -1   -1    0    0    0  501 -0.00000000000E+00 -0.00000000000E+00 -0.10757436687E+04  0.10757436687E+04  0.00000000000E+00 0.  1.
         23    2    1    2    0    0  0.11047288323E+04 -0.19588461189E+03  0.63520278582E+03  0.12921428497E+04  0.85755413156E+02 0.  0.
         11    1    3    3    0    0  0.58217630283E+02 -0.10371060054E+02  0.12870720769E+02  0.60518648494E+02  0.00000000000E+00 0.  1.
        -11    1    3    3    0    0  0.10465112020E+04 -0.18551355183E+03  0.62233206506E+03  0.12316242012E+04  0.00000000000E+00 0. -1.
         22    1    1    2    0    0 -0.11047288323E+04  0.19588461189E+03 -0.32614390847E+03  0.11684033649E+04  0.00000000000E+00 0.  1.
<mgrwt>
<rscale>  0 0.24410593E+04</rscale>
<asrwt>0</asrwt>
<pdfrwt beam="1">  1        1 0.21304655E+00 0.24410593E+04</pdfrwt>
<pdfrwt beam="2">  1       -1 0.16549903E+00 0.24410593E+04</pdfrwt>
<totfact> 0.18683720E+00</totfact>
</mgrwt>
</event>
<event>
 6    1  0.9364335E-007  0.2741438E+04  0.7818608E-02  0.8321684E-01
         -2   -1    0    0    0  501 -0.00000000000E+00  0.00000000000E+00  0.13363282950E+04  0.13363282950E+04  0.00000000000E+00 0.  1.
          2   -1    0    0  501    0  0.00000000000E+00 -0.00000000000E+00 -0.14059947161E+04  0.14059947161E+04  0.00000000000E+00 0. -1.
         23    2    1    2    0    0 -0.98662397100E+03  0.72122670327E+02  0.91221828431E+03  0.13485059088E+04  0.87735102534E+02 0.  0.
         13    1    3    3    0    0 -0.38754469370E+03  0.20330931756E+02  0.41570527304E+03  0.56869597364E+03  0.00000000000E+00 0.  1.
        -13    1    3    3    0    0 -0.59907927729E+03  0.51791738571E+02  0.49651301127E+03  0.77980993519E+03  0.00000000000E+00 0. -1.
         22    1    1    2    0    0  0.98662397100E+03 -0.72122670327E+02 -0.98188470542E+03  0.13938171022E+04  0.00000000000E+00 0. -1.
<mgrwt>
<rscale>  0 0.27414380E+04</rscale>
<asrwt>0</asrwt>
<pdfrwt beam="1">  1        2 0.21630688E+00 0.27414380E+04</pdfrwt>
<pdfrwt beam="2">  1       -2 0.20558897E+00 0.27414380E+04</pdfrwt>
<totfact> 0.15350133E+00</totfact>
</mgrwt>
</event>
<event>
 6    1  0.9364335E-007  0.8325372E+03  0.7818608E-02  0.9514079E-01
          2   -1    0    0  501    0  0.00000000000E+00  0.00000000000E+00  0.34130581125E+03  0.34130581125E+03  0.00000000000E+00 0. -1.
         -2   -1    0    0    0  501 -0.00000000000E+00 -0.00000000000E+00 -0.50769581428E+03  0.50769581428E+03  0.00000000000E+00 0.  1.
         23    2    1    2    0    0  0.38888759116E+03 -0.32054814615E+02 -0.21666764453E+03  0.45556940655E+03  0.91310165328E+02 0.  0.
         13    1    3    3    0    0  0.26484711244E+03 -0.36943809843E+02 -0.10085700106E+03  0.28579883260E+03  0.00000000000E+00 0.  1.
        -13    1    3    3    0    0  0.12404047872E+03  0.48889952280E+01 -0.11581064347E+03  0.16977057394E+03  0.00000000000E+00 0. -1.
         22    1    1    2    0    0 -0.38888759116E+03  0.32054814615E+02  0.50277641513E+02  0.39343221899E+03  0.00000000000E+00 0. -1.
<mgrwt>
<rscale>  0 0.83253716E+03</rscale>
<asrwt>0</asrwt>
<pdfrwt beam="1">  1        2 0.52508586E-01 0.83253716E+03</pdfrwt>
<pdfrwt beam="2">  1       -2 0.78107049E-01 0.83253716E+03</pdfrwt>
<totfact> 0.13956119E+02</totfact>
</mgrwt>
</event>
<event>
 6    1  0.9364335E-007  0.2432835E+04  0.7818608E-02  0.8427312E-01
         -1   -1    0    0    0  501 -0.00000000000E+00  0.00000000000E+00  0.11731634861E+04  0.11731634861E+04  0.00000000000E+00 0.  1.
          1   -1    0    0  501    0  0.00000000000E+00 -0.00000000000E+00 -0.12612661206E+04  0.12612661206E+04  0.00000000000E+00 0. -1.
         23    2    1    2    0    0  0.40544763785E+03 -0.10143358926E+04 -0.57533207737E+03  0.12383285993E+04  0.95841694774E+02 0.  0.
         11    1    3    3    0    0  0.22656584357E+03 -0.61205037329E+03 -0.39278271855E+03  0.76171911155E+03  0.00000000000E+00 0. -1.
        -11    1    3    3    0    0  0.17888179428E+03 -0.40228551930E+03 -0.18254935882E+03  0.47660948770E+03  0.00000000000E+00 0.  1.
         22    1    1    2    0    0 -0.40544763785E+03  0.10143358926E+04  0.48722944283E+03  0.11961010074E+04  0.00000000000E+00 0.  1.
<mgrwt>
<rscale>  0 0.24328349E+04</rscale>
<asrwt>0</asrwt>
<pdfrwt beam="1">  1        1 0.19404094E+00 0.24328349E+04</pdfrwt>
<pdfrwt beam="2">  1       -1 0.18048669E+00 0.24328349E+04</pdfrwt>
<totfact> 0.17792125E+00</totfact>
</mgrwt>
</event>
<event>
 6    1  0.9364335E-007  0.2845076E+04  0.7818608E-02  0.8289409E-01
          2   -1    0    0  501    0  0.00000000000E+00  0.00000000000E+00  0.25189115210E+04  0.25189115210E+04  0.00000000000E+00 0. -1.
         -2   -1    0    0    0  501 -0.00000000000E+00 -0.00000000000E+00 -0.80336854557E+03  0.80336854557E+03  0.00000000000E+00 0.  1.
         23    2    1    2    0    0 -0.12520204432E+04 -0.45526221140E+03  0.14362378015E+04  0.19610929922E+04  0.91037520932E+02 0.  0.
         11    1    3    3    0    0 -0.52223438093E+03 -0.18292825196E+03  0.53188901901E+03  0.76752682203E+03  0.00000000000E+00 0. -1.
        -11    1    3    3    0    0 -0.72978606226E+03 -0.27233395945E+03  0.90434878249E+03  0.11935661702E+04  0.00000000000E+00 0.  1.
         22    1    1    2    0    0  0.12520204432E+04  0.45526221140E+03  0.27930517392E+03  0.13611870744E+04  0.00000000000E+00 0.  1.
<mgrwt>
<rscale>  0 0.28450759E+04</rscale>
<asrwt>0</asrwt>
<pdfrwt beam="1">  1        2 0.38752484E+00 0.28450759E+04</pdfrwt>
<pdfrwt beam="2">  1       -2 0.12359516E+00 0.28450759E+04</pdfrwt>
<totfact> 0.14511538E+00</totfact>
</mgrwt>
</event>
<event>
 6    1  0.9364335E-007  0.2465572E+04  0.7818608E-02  0.8415354E-01
          1   -1    0    0  501    0  0.00000000000E+00  0.00000000000E+00  0.12327251292E+04  0.12327251292E+04  0.00000000000E+00 0. -1.
         -1   -1    0    0    0  501 -0.00000000000E+00 -0.00000000000E+00 -0.12328467890E+04  0.12328467890E+04  0.00000000000E+00 0.  1.
         23    2    1    2    0    0 -0.71926920199E+03  0.47030717168E+03 -0.88148189452E+03  0.12345833382E+04  0.92998214643E+02 0.  0.
         13    1    3    3    0    0 -0.52573981889E+03  0.29964787513E+03 -0.64767192569E+03  0.88638035265E+03  0.00000000000E+00 0.  1.
        -13    1    3    3    0    0 -0.19352938310E+03  0.17065929654E+03 -0.23380996884E+03  0.34820298555E+03  0.00000000000E+00 0. -1.
         22    1    1    2    0    0  0.71926920199E+03 -0.47030717168E+03  0.88136023472E+03  0.12309885800E+04  0.00000000000E+00 0. -1.
<mgrwt>
<rscale>  0 0.24655719E+04</rscale>
<asrwt>0</asrwt>
<pdfrwt beam="1">  1        1 0.18965002E+00 0.24655719E+04</pdfrwt>
<pdfrwt beam="2">  1       -1 0.18966874E+00 0.24655719E+04</pdfrwt>
<totfact> 0.16011079E+00</totfact>
</mgrwt>
</event>
<event>
 6    1  0.9364335E-007  0.1803235E+04  0.7818608E-02  0.8704581E-01
         -2   -1    0    0    0  501 -0.00000000000E+00  0.00000000000E+00  0.44954494764E+03  0.44954494764E+03  0.00000000000E+00 0.  1.
          2   -1    0    0  501    0  0.00000000000E+00 -0.00000000000E+00 -0.18083040060E+04  0.18083040060E+04  0.00000000000E+00 0. -1.
         23    2    1    2    0    0  0.83768289363E+03  0.28580172719E+03 -0.48367138021E+03  0.10131908873E+04  0.96033913864E+02 0.  0.
         11    1    3    3    0    0  0.14117318537E+03  0.27908269389E+02 -0.11382218121E+03  0.18347814230E+03  0.00000000000E+00 0. -1.
        -11    1    3    3    0    0  0.69650970827E+03  0.25789345780E+03 -0.36984919900E+03  0.82971274505E+03  0.00000000000E+00 0.  1.
         22    1    1    2    0    0 -0.83768289363E+03 -0.28580172719E+03 -0.87508767819E+03  0.12446580663E+04  0.00000000000E+00 0. -1.
<mgrwt>
<rscale>  0 0.18032348E+04</rscale>
<asrwt>0</asrwt>
<pdfrwt beam="1">  1        2 0.27820062E+00 0.18032348E+04</pdfrwt>
<pdfrwt beam="2">  1       -2 0.69160761E-01 0.18032348E+04</pdfrwt>
<totfact> 0.15377499E+01</totfact>
</mgrwt>
</event>
<event>
 6    1  0.9364335E-007  0.4069683E+04  0.7818608E-02  0.7990635E-01
         -2   -1    0    0    0  501 -0.00000000000E+00  0.00000000000E+00  0.18094647444E+04  0.18094647444E+04  0.00000000000E+00 0.  1.
          2   -1    0    0  501    0  0.00000000000E+00 -0.00000000000E+00 -0.22882897600E+04  0.22882897600E+04  0.00000000000E+00 0. -1.
         23    2    1    2    0    0  0.15311082008E+03 -0.61471798641E+03 -0.21855346225E+04  0.22772658864E+04  0.89761936431E+02 0.  0.
         11    1    3    3    0    0  0.68427620855E+02 -0.38586909743E+03 -0.14662620205E+04  0.15177290972E+04  0.00000000000E+00 0. -1.
        -11    1    3    3    0    0  0.84683199224E+02 -0.22884888898E+03 -0.71927260195E+03  0.75953678919E+03  0.00000000000E+00 0.  1.
         22    1    1    2    0    0 -0.15311082008E+03  0.61471798641E+03  0.17067096069E+04  0.18204886180E+04  0.00000000000E+00 0.  1.
<mgrwt>
<rscale>  0 0.40696829E+04</rscale>
<asrwt>0</asrwt>
<pdfrwt beam="1">  1        2 0.35204458E+00 0.40696829E+04</pdfrwt>
<pdfrwt beam="2">  1       -2 0.27837919E+00 0.40696829E+04</pdfrwt>
<totfact> 0.15559151E-01</totfact>
</mgrwt>
</event>
<event>
 6    1  0.9364335E-007  0.3975365E+04  0.7818608E-02  0.8009535E-01
         -1   -1    0    0    0  501 -0.00000000000E+00  0.00000000000E+00  0.21109841166E+04  0.21109841166E+04  0.00000000000E+00 0.  1.
          1   -1    0    0  501    0  0.00000000000E+00 -0.00000000000E+00 -0.18715831350E+04  0.18715831350E+04  0.00000000000E+00 0. -1.
         23    2    1    2    0    0  0.14563419646E+03 -0.19105840896E+04  0.64528766724E+03  0.20239236178E+04  0.91267490649E+02 0.  0.
         11    1    3    3    0    0  0.10324614659E+03 -0.12197016599E+04  0.36702878211E+03  0.12779053301E+04  0.00000000000E+00 0.  1.
        -11    1    3    3    0    0  0.42388049871E+02 -0.69088242968E+03  0.27825888513E+03  0.74601828769E+03  0.00000000000E+00 0. -1.
         22    1    1    2    0    0 -0.14563419646E+03  0.19105840896E+04 -0.40588668564E+03  0.19586436338E+04  0.00000000000E+00 0. -1.
<mgrwt>
<rscale>  0 0.39753653E+04</rscale>
<asrwt>0</asrwt>
<pdfrwt beam="1">  1        1 0.28793587E+00 0.39753653E+04</pdfrwt>
<pdfrwt beam="2">  1       -1 0.32476679E+00 0.39753653E+04</pdfrwt>
<totfact> 0.65060119E-02</totfact>
</mgrwt>
</event>
<event>
 6    1  0.9364335E-007  0.3603612E+04  0.7818608E-02  0.8089665E-01
         -1   -1    0    0    0  501 -0.00000000000E+00  0.00000000000E+00  0.14164177824E+04  0.14164177824E+04  0.00000000000E+00 0.  1.
          1   -1    0    0  501    0  0.00000000000E+00 -0.00000000000E+00 -0.22920526744E+04  0.22920526744E+04  0.00000000000E+00 0. -1.
         23    2    1    2    0    0  0.46324188590E+03 -0.10395181565E+04 -0.18740900600E+04  0.21945009178E+04  0.91813302101E+02 0.  0.
         13    1    3    3    0    0  0.30440349392E+03 -0.78074943339E+03 -0.13603451574E+04  0.15977390626E+04  0.00000000000E+00 0. -1.
        -13    1    3    3    0    0  0.15883839197E+03 -0.25876872313E+03 -0.51374490260E+03  0.59676185517E+03  0.00000000000E+00 0.  1.
         22    1    1    2    0    0 -0.46324188590E+03  0.10395181565E+04  0.99845516802E+03  0.15139695390E+04  0.00000000000E+00 0.  1.
<mgrwt>
<rscale>  0 0.36036116E+04</rscale>
<asrwt>0</asrwt>
<pdfrwt beam="1">  1        1 0.35262349E+00 0.36036116E+04</pdfrwt>
<pdfrwt beam="2">  1       -1 0.21791043E+00 0.36036116E+04</pdfrwt>
<totfact> 0.17326401E-01</totfact>
</mgrwt>
</event>
<event>
 6    1  0.9364335E-007  0.1142178E+04  0.7818608E-02  0.9165030E-01
         -1   -1    0    0    0  501 -0.00000000000E+00  0.00000000000E+00  0.29933352211E+03  0.29933352211E+03  0.00000000000E+00 0.  1.
          1   -1    0    0  501    0  0.00000000000E+00 -0.00000000000E+00 -0.10895621835E+04  0.10895621835E+04  0.00000000000E+00 0. -1.
         23    2    1    2    0    0 -0.44777888431E+03 -0.16305645165E+03 -0.77234443633E+03  0.91201712442E+03  0.90365763752E+02 0.  0.
         11    1    3    3    0    0 -0.40438976278E+03 -0.12745339827E+03 -0.71827626434E+03  0.83408407303E+03  0.00000000000E+00 0. -1.
        -11    1    3    3    0    0 -0.43389121531E+02 -0.35603053381E+02 -0.54068171988E+02  0.77933051393E+02  0.00000000000E+00 0.  1.
         22    1    1    2    0    0  0.44777888431E+03  0.16305645165E+03 -0.17884225021E+02  0.47687858115E+03  0.00000000000E+00 0.  1.
<mgrwt>
<rscale>  0 0.11421777E+04</rscale>
<asrwt>0</asrwt>
<pdfrwt beam="1">  1        1 0.16762495E+00 0.11421777E+04</pdfrwt>
<pdfrwt beam="2">  1       -1 0.46051311E-01 0.11421777E+04</pdfrwt>
<totfact> 0.60142653E+01</totfact>
</mgrwt>
</event>
<event>
 6    1  0.9364335E-007  0.1276921E+04  0.7818608E-02  0.9048070E-01
          3   -1    0    0  501    0  0.00000000000E+00  0.00000000000E+00  0.76285513608E+03  0.76285513608E+03  0.00000000000E+00 0. -1.
         -3   -1    0    0    0  501 -0.00000000000E+00 -0.00000000000E+00 -0.53435042785E+03  0.53435042785E+03  0.00000000000E+00 0.  1.
         23    2    1    2    0    0 -0.17967969175E+03 -0.44410418572E+03 -0.30686777999E+03  0.57877879623E+03  0.10631905361E+03 0.  0.
         11    1    3    3    0    0 -0.17409891462E+03 -0.30733085522E+03 -0.20786617387E+03  0.40984269284E+03  0.00000000000E+00 0. -1.
        -11    1    3    3    0    0 -0.55807771364E+01 -0.13677333051E+03 -0.99001606126E+02  0.16893610338E+03  0.00000000000E+00 0.  1.
         22    1    1    2    0    0  0.17967969175E+03  0.44410418572E+03  0.53537248823E+03  0.71842676770E+03  0.00000000000E+00 0. -1.
<mgrwt>
<rscale>  0 0.12769212E+04</rscale>
<asrwt>0</asrwt>
<pdfrwt beam="1">  1        3 0.11736233E+00 0.12769212E+04</pdfrwt>
<pdfrwt beam="2">  1       -3 0.82207759E-01 0.12769212E+04</pdfrwt>
<totfact> 0.21052463E+00</totfact>
</mgrwt>
</event>
<event>
 6    1  0.9364335E-007  0.4703262E+04  0.7818608E-02  0.7875987E-01
         -2   -1    0    0    0  501 -0.00000000000E+00  0.00000000000E+00  0.12120383058E+04  0.12120383058E+04  0.00000000000E+00 0.  1.
          2   -1    0    0  501    0  0.00000000000E+00 -0.00000000000E+00 -0.45627018531E+04  0.45627018531E+04  0.00000000000E+00 0. -1.
         23    2    1    2    0    0 -0.20618585457E+04 -0.11208133545E+04 -0.18431242017E+04  0.29854466790E+04  0.91114282401E+02 0.  0.
         13    1    3    3    0    0 -0.16729982976E+04 -0.88429931905E+03 -0.15214242385E+04  0.24280939650E+04  0.00000000000E+00 0.  1.
        -13    1    3    3    0    0 -0.38886024807E+03 -0.23651403549E+03 -0.32169996319E+03  0.55735271402E+03  0.00000000000E+00 0. -1.
         22    1    1    2    0    0  0.20618585457E+04  0.11208133545E+04 -0.15075393456E+04  0.27892934798E+04  0.00000000000E+00 0. -1.
<mgrwt>
<rscale>  0 0.47032625E+04</rscale>
<asrwt>0</asrwt>
<pdfrwt beam="1">  1        2 0.70195415E+00 0.47032625E+04</pdfrwt>
<pdfrwt beam="2">  1       -2 0.18646743E+00 0.47032625E+04</pdfrwt>
<totfact> 0.12886793E-02</totfact>
</mgrwt>
</event>
<event>
 6    1  0.9364335E-007  0.3878205E+04  0.7818608E-02  0.8029577E-01
         -1   -1    0    0    0  501 -0.00000000000E+00  0.00000000000E+00  0.12192634663E+04  0.12192634663E+04  0.00000000000E+00 0.  1.
          1   -1    0    0  501    0  0.00000000000E+00 -0.00000000000E+00 -0.30839262113E+04  0.30839262113E+04  0.00000000000E+00 0. -1.
         23    2    1    2    0    0 -0.12021058755E+04  0.95248849397E+03 -0.22474539592E+04  0.27224234138E+04  0.90813426088E+02 0.  0.
         11    1    3    3    0    0 -0.95650609182E+03  0.71616950352E+03 -0.17814573021E+04  0.21450857281E+04  0.00000000000E+00 0. -1.
        -11    1    3    3    0    0 -0.24559978371E+03  0.23631899045E+03 -0.46599665705E+03  0.57733768575E+03  0.00000000000E+00 0.  1.
         22    1    1    2    0    0  0.12021058755E+04 -0.95248849397E+03  0.38279121413E+03  0.15807662638E+04  0.00000000000E+00 0.  1.
<mgrwt>
<rscale>  0 0.38782050E+04</rscale>
<asrwt>0</asrwt>
<pdfrwt beam="1">  1        1 0.47445018E+00 0.38782050E+04</pdfrwt>
<pdfrwt beam="2">  1       -1 0.18757900E+00 0.38782050E+04</pdfrwt>
<totfact> 0.75294117E-02</totfact>
</mgrwt>
</event>
<event>
 6    1  0.2115966E-006  0.2744852E+04  0.7818608E-02  0.8320597E-01
          1   -1    0    0  501    0  0.00000000000E+00  0.00000000000E+00  0.16564126067E+04  0.16564126067E+04  0.00000000000E+00 0. -1.
         -1   -1    0    0    0  501 -0.00000000000E+00 -0.00000000000E+00 -0.11371277054E+04  0.11371277054E+04  0.00000000000E+00 0.  1.
         23    2    1    2    0    0 -0.29250921648E+03  0.70961681473E+03  0.14159512132E+04  0.16132318184E+04  0.92094496011E+02 0.  0.
         13    1    3    3    0    0 -0.12561753065E+03  0.26111003064E+03  0.44965622624E+03  0.53492890547E+03  0.00000000000E+00 0. -1.
        -13    1    3    3    0    0 -0.16689168583E+03  0.44850678409E+03  0.96629498693E+03  0.10783029129E+04  0.00000000000E+00 0.  1.
         22    1    1    2    0    0  0.29250921648E+03 -0.70961681473E+03 -0.89666631191E+03  0.11803084937E+04  0.00000000000E+00 0.  1.
<mgrwt>
<rscale>  0 0.27448517E+04</rscale>
<asrwt>0</asrwt>
<pdfrwt beam="1">  1        1 0.25483271E+00 0.27448517E+04</pdfrwt>
<pdfrwt beam="2">  1       -1 0.17494272E+00 0.27448517E+04</pdfrwt>
<totfact> 0.10052703E+00</totfact>
</mgrwt>
</event>
<event>
 6    1  0.9364335E-007  0.2310260E+04  0.7818608E-02  0.8473887E-01
          2   -1    0    0  501    0  0.00000000000E+00  0.00000000000E+00  0.31885299932E+04  0.31885299932E+04  0.00000000000E+00 0. -1.
         -2   -1    0    0    0  501 -0.00000000000E+00 -0.00000000000E+00 -0.41847678706E+03  0.41847678706E+03  0.00000000000E+00 0.  1.
         23    2    1    2    0    0 -0.36023834054E+03 -0.41734730069E+03  0.29687941452E+04  0.30209620787E+04  0.92318864940E+02 0.  0.
         11    1    3    3    0    0 -0.14787609409E+03 -0.22940566385E+03  0.15981407132E+04  0.16212797528E+04  0.00000000000E+00 0. -1.
        -11    1    3    3    0    0 -0.21236224645E+03 -0.18794163685E+03  0.13706534320E+04  0.13996823259E+04  0.00000000000E+00 0.  1.
         22    1    1    2    0    0  0.36023834054E+03  0.41734730069E+03 -0.19874093906E+03  0.58604470158E+03  0.00000000000E+00 0.  1.
<mgrwt>
<rscale>  0 0.23102604E+04</rscale>
<asrwt>0</asrwt>
<pdfrwt beam="1">  1        2 0.49054306E+00 0.23102604E+04</pdfrwt>
<pdfrwt beam="2">  1       -2 0.64381046E-01 0.23102604E+04</pdfrwt>
<totfact> 0.26668617E+00</totfact>
</mgrwt>
</event>
<event>
 6    1  0.1098456E-006  0.2998770E+04  0.7818608E-02  0.8244082E-01
          1   -1    0    0  501    0  0.00000000000E+00  0.00000000000E+00  0.18259062646E+04  0.18259062646E+04  0.00000000000E+00 0. -1.
         -1   -1    0    0    0  501 -0.00000000000E+00 -0.00000000000E+00 -0.12312542219E+04  0.12312542219E+04  0.00000000000E+00 0.  1.
         23    2    1    2    0    0  0.10838810134E+04  0.97346661156E+03 -0.58667715312E+02  0.14605196373E+04  0.85090628418E+02 0.  0.
         11    1    3    3    0    0  0.59472665763E+03  0.48073998415E+03 -0.15658352573E+02  0.76488947807E+03  0.00000000000E+00 0. -1.
        -11    1    3    3    0    0  0.48915435579E+03  0.49272662742E+03 -0.43009362740E+02  0.69563015924E+03  0.00000000000E+00 0.  1.
         22    1    1    2    0    0 -0.10838810134E+04 -0.97346661156E+03  0.65331975800E+03  0.15966408492E+04  0.00000000000E+00 0. -1.
<mgrwt>
<rscale>  0 0.29987696E+04</rscale>
<asrwt>0</asrwt>
<pdfrwt beam="1">  1        1 0.28090866E+00 0.29987696E+04</pdfrwt>
<pdfrwt beam="2">  1       -1 0.18942373E+00 0.29987696E+04</pdfrwt>
<totfact> 0.59391100E-01</totfact>
</mgrwt>
</event>
<event>
 6    1  0.9364335E-007  0.2507600E+04  0.7818608E-02  0.8400283E-01
         -2   -1    0    0    0  501 -0.00000000000E+00  0.00000000000E+00  0.10354380490E+04  0.10354380490E+04  0.00000000000E+00 0.  1.
          2   -1    0    0  501    0  0.00000000000E+00 -0.00000000000E+00 -0.15182117826E+04  0.15182117826E+04  0.00000000000E+00 0. -1.
         23    2    1    2    0    0  0.15834585428E+03 -0.12004786633E+04 -0.56637476111E+03  0.13398905629E+04  0.91125847239E+02 0.  0.
         13    1    3    3    0    0  0.78773019610E+02 -0.66342419153E+03 -0.36138447944E+03  0.75956276140E+03  0.00000000000E+00 0. -1.
        -13    1    3    3    0    0  0.79572834675E+02 -0.53705447174E+03 -0.20499028167E+03  0.58032780152E+03  0.00000000000E+00 0.  1.
         22    1    1    2    0    0 -0.15834585428E+03  0.12004786633E+04  0.83601027595E+02  0.12137592687E+04  0.00000000000E+00 0.  1.
<mgrwt>
<rscale>  0 0.25075998E+04</rscale>
<asrwt>0</asrwt>
<pdfrwt beam="1">  1        2 0.23357104E+00 0.25075998E+04</pdfrwt>
<pdfrwt beam="2">  1       -2 0.15929816E+00 0.25075998E+04</pdfrwt>
<totfact> 0.28172664E+00</totfact>
</mgrwt>
</event>
<event>
 6    1  0.9364335E-007  0.9181299E+03  0.7818608E-02  0.9403198E-01
          2   -1    0    0  501    0  0.00000000000E+00  0.00000000000E+00  0.95114013422E+03  0.95114013422E+03  0.00000000000E+00 0. -1.
         -2   -1    0    0    0  501 -0.00000000000E+00 -0.00000000000E+00 -0.22156634088E+03  0.22156634088E+03  0.00000000000E+00 0.  1.
         23    2    1    2    0    0  0.17514046110E+03  0.26064239767E+03 -0.51485148786E+02  0.33088600039E+03  0.90698313827E+02 0.  0.
         13    1    3    3    0    0  0.90492059301E+02  0.19864048540E+03 -0.11452128210E+02  0.21858180729E+03  0.00000000000E+00 0.  1.
        -13    1    3    3    0    0  0.84648401795E+02  0.62001912271E+02 -0.40033020576E+02  0.11230419310E+03  0.00000000000E+00 0. -1.
         22    1    1    2    0    0 -0.17514046110E+03 -0.26064239767E+03  0.78105894212E+03  0.84182047471E+03  0.00000000000E+00 0. -1.
<mgrwt>
<rscale>  0 0.91812992E+03</rscale>
<asrwt>0</asrwt>
<pdfrwt beam="1">  1        2 0.14632925E+00 0.91812992E+03</pdfrwt>
<pdfrwt beam="2">  1       -2 0.34087130E-01 0.91812992E+03</pdfrwt>
<totfact> 0.21855742E+02</totfact>
</mgrwt>
</event>
<event>
 6    1  0.9364335E-007  0.1997887E+04  0.7818608E-02  0.8607609E-01
          2   -1    0    0  501    0  0.00000000000E+00  0.00000000000E+00  0.17292651897E+04  0.17292651897E+04  0.00000000000E+00 0. -1.
         -2   -1    0    0    0  501 -0.00000000000E+00 -0.00000000000E+00 -0.57705924620E+03  0.57705924620E+03  0.00000000000E+00 0.  1.
         23    2    1    2    0    0 -0.73642424087E+03 -0.34334099311E+03  0.12439010390E+04  0.14886376434E+04  0.92458305389E+02 0.  0.
         13    1    3    3    0    0 -0.67115064217E+03 -0.28694109657E+03  0.11391518540E+04  0.13529395123E+04  0.00000000000E+00 0. -1.
        -13    1    3    3    0    0 -0.65273598705E+02 -0.56399896541E+02  0.10474918503E+03  0.13569813109E+03  0.00000000000E+00 0.  1.
         22    1    1    2    0    0  0.73642424087E+03  0.34334099311E+03 -0.91695095562E+02  0.81768679251E+03  0.00000000000E+00 0.  1.
<mgrwt>
<rscale>  0 0.19978874E+04</rscale>
<asrwt>0</asrwt>
<pdfrwt beam="1">  1        2 0.26604080E+00 0.19978874E+04</pdfrwt>
<pdfrwt beam="2">  1       -2 0.88778347E-01 0.19978874E+04</pdfrwt>
<totfact> 0.95728538E+00</totfact>
</mgrwt>
</event>
<event>
 6    1  0.9364335E-007  0.2520012E+04  0.7818608E-02  0.8395891E-01
         -2   -1    0    0    0  501 -0.00000000000E+00  0.00000000000E+00  0.13190640969E+04  0.13190640969E+04  0.00000000000E+00 0.  1.
          2   -1    0    0  501    0  0.00000000000E+00 -0.00000000000E+00 -0.12035923987E+04  0.12035923987E+04  0.00000000000E+00 0. -1.
         23    2    1    2    0    0 -0.40395635520E+03  0.11690565107E+04  0.28964082475E+03  0.12735733331E+04  0.90682772540E+02 0.  0.
         13    1    3    3    0    0 -0.29406166397E+02  0.34970734356E+02  0.14725561036E+02  0.48005385441E+02  0.00000000000E+00 0.  1.
        -13    1    3    3    0    0 -0.37455018880E+03  0.11340857763E+04  0.27491526372E+03  0.12255679476E+04  0.00000000000E+00 0. -1.
         22    1    1    2    0    0  0.40395635520E+03 -0.11690565107E+04 -0.17416912657E+03  0.12490831625E+04  0.00000000000E+00 0. -1.
<mgrwt>
<rscale>  0 0.25200123E+04</rscale>
<asrwt>0</asrwt>
<pdfrwt beam="1">  1        2 0.18516806E+00 0.25200123E+04</pdfrwt>
<pdfrwt beam="2">  1       -2 0.20293294E+00 0.25200123E+04</pdfrwt>
<totfact> 0.21353440E+00</totfact>
</mgrwt>
</event>
<event>
 6    1  0.9364335E-007  0.1002626E+04  0.7818608E-02  0.9305669E-01
         -2   -1    0    0    0  501 -0.00000000000E+00  0.00000000000E+00  0.17788366829E+03  0.17788366829E+03  0.00000000000E+00 0.  1.
          2   -1    0    0  501    0  0.00000000000E+00 -0.00000000000E+00 -0.14128042744E+04  0.14128042744E+04  0.00000000000E+00 0. -1.
         23    2    1    2    0    0 -0.38718141888E+03  0.26012018521E+03 -0.35146054417E+03  0.59165158554E+03  0.94631509965E+02 0.  0.
         13    1    3    3    0    0 -0.12753822555E+03  0.14109579892E+03 -0.13374870672E+03  0.23251395657E+03  0.00000000000E+00 0. -1.
        -13    1    3    3    0    0 -0.25964319334E+03  0.11902438629E+03 -0.21771183745E+03  0.35913762897E+03  0.00000000000E+00 0.  1.
         22    1    1    2    0    0  0.38718141888E+03 -0.26012018521E+03 -0.88346006192E+03  0.99903635714E+03  0.00000000000E+00 0. -1.
<mgrwt>
<rscale>  0 0.10026262E+04</rscale>
<asrwt>0</asrwt>
<pdfrwt beam="1">  1        2 0.21735450E+00 0.10026262E+04</pdfrwt>
<pdfrwt beam="2">  1       -2 0.27366719E-01 0.10026262E+04</pdfrwt>
<totfact> 0.17250754E+02</totfact>
</mgrwt>
</event>
<event>
 6    1  0.9364335E-007  0.5679964E+04  0.7818608E-02  0.7731400E-01
          1   -1    0    0  501    0  0.00000000000E+00  0.00000000000E+00  0.36783562545E+04  0.36783562545E+04  0.00000000000E+00 0. -1.
         -1   -1    0    0    0  501 -0.00000000000E+00 -0.00000000000E+00 -0.21926910303E+04  0.21926910303E+04  0.00000000000E+00 0.  1.
         23    2    1    2    0    0  0.18181468151E+04  0.53989199968E+03 -0.14409094936E+04  0.23836441260E+04  0.91640263718E+02 0.  0.
         11    1    3    3    0    0  0.25217410671E+03  0.84779927857E+02 -0.24137364944E+03  0.35922229177E+03  0.00000000000E+00 0. -1.
        -11    1    3    3    0    0  0.15659727084E+04  0.45511207183E+03 -0.11995358442E+04  0.20244218342E+04  0.00000000000E+00 0.  1.
         22    1    1    2    0    0 -0.18181468151E+04 -0.53989199968E+03  0.29265747179E+04  0.34874031588E+04  0.00000000000E+00 0. -1.
<mgrwt>
<rscale>  0 0.56799644E+04</rscale>
<asrwt>0</asrwt>
<pdfrwt beam="1">  1        1 0.56590096E+00 0.56799644E+04</pdfrwt>
<pdfrwt beam="2">  1       -1 0.33733708E+00 0.56799644E+04</pdfrwt>
<totfact> 0.23134836E-03</totfact>
</mgrwt>
</event>
<event>
 6    1  0.9364335E-007  0.2893913E+04  0.7818608E-02  0.8274691E-01
         -2   -1    0    0    0  501 -0.00000000000E+00  0.00000000000E+00  0.11068478610E+04  0.11068478610E+04  0.00000000000E+00 0.  1.
          2   -1    0    0  501    0  0.00000000000E+00 -0.00000000000E+00 -0.18915729430E+04  0.18915729430E+04  0.00000000000E+00 0. -1.
         23    2    1    2    0    0 -0.51071758737E+03  0.79055956880E+03 -0.15295421530E+04  0.17981835962E+04  0.90267170937E+02 0.  0.
         13    1    3    3    0    0 -0.95312876533E+02  0.10991035646E+03 -0.19050313998E+03  0.23970039056E+03  0.00000000000E+00 0. -1.
        -13    1    3    3    0    0 -0.41540471084E+03  0.68064921234E+03 -0.13390390130E+04  0.15584832057E+04  0.00000000000E+00 0.  1.
         22    1    1    2    0    0  0.51071758737E+03 -0.79055956880E+03  0.74481707093E+03  0.12002372078E+04  0.00000000000E+00 0.  1.
<mgrwt>
<rscale>  0 0.28939132E+04</rscale>
<asrwt>0</asrwt>
<pdfrwt beam="1">  1        2 0.29101122E+00 0.28939132E+04</pdfrwt>
<pdfrwt beam="2">  1       -2 0.17028429E+00 0.28939132E+04</pdfrwt>
<totfact> 0.14062311E+00</totfact>
</mgrwt>
</event>
<event>
 6    1  0.9364335E-007  0.1712548E+04  0.7818608E-02  0.8754240E-01
         -2   -1    0    0    0  501 -0.00000000000E+00  0.00000000000E+00  0.65554167157E+03  0.65554167157E+03  0.00000000000E+00 0.  1.
          2   -1    0    0  501    0  0.00000000000E+00 -0.00000000000E+00 -0.11184716334E+04  0.11184716334E+04  0.00000000000E+00 0. -1.
         23    2    1    2    0    0 -0.10779322897E+03  0.41932034542E+03 -0.99457931055E+03  0.10883749438E+04  0.89011690179E+02 0.  0.
         13    1    3    3    0    0  0.12529607870E+02  0.36703281441E+02 -0.61032663379E+02  0.72312571113E+02  0.00000000000E+00 0. -1.
        -13    1    3    3    0    0 -0.12032283684E+03  0.38261706398E+03 -0.93354664717E+03  0.10160623727E+04  0.00000000000E+00 0.  1.
         22    1    1    2    0    0  0.10779322897E+03 -0.41932034542E+03  0.53164934873E+03  0.68563836116E+03  0.00000000000E+00 0.  1.
<mgrwt>
<rscale>  0 0.17125475E+04</rscale>
<asrwt>0</asrwt>
<pdfrwt beam="1">  1        2 0.17207256E+00 0.17125475E+04</pdfrwt>
<pdfrwt beam="2">  1       -2 0.10085257E+00 0.17125475E+04</pdfrwt>
<totfact> 0.16334307E+01</totfact>
</mgrwt>
</event>
<event>
 6    1  0.9364335E-007  0.2760160E+04  0.7818608E-02  0.8315745E-01
          2   -1    0    0  501    0  0.00000000000E+00  0.00000000000E+00  0.21264027842E+04  0.21264027842E+04  0.00000000000E+00 0. -1.
         -2   -1    0    0    0  501 -0.00000000000E+00 -0.00000000000E+00 -0.89570094307E+03  0.89570094307E+03  0.00000000000E+00 0.  1.
         23    2    1    2    0    0 -0.11986082981E+04 -0.67111485403E+03  0.48892504262E+03  0.14609215411E+04  0.90482331578E+02 0.  0.
         13    1    3    3    0    0 -0.43760764888E+03 -0.20603710442E+03  0.20030259648E+03  0.52351969678E+03  0.00000000000E+00 0. -1.
        -13    1    3    3    0    0 -0.76100064922E+03 -0.46507774961E+03  0.28862244614E+03  0.93740184431E+03  0.00000000000E+00 0.  1.
         22    1    1    2    0    0  0.11986082981E+04  0.67111485403E+03  0.74177679848E+03  0.15611821861E+04  0.00000000000E+00 0. -1.
<mgrwt>
<rscale>  0 0.27601601E+04</rscale>
<asrwt>0</asrwt>
<pdfrwt beam="1">  1        2 0.32713889E+00 0.27601601E+04</pdfrwt>
<pdfrwt beam="2">  1       -2 0.13780015E+00 0.27601601E+04</pdfrwt>
<totfact> 0.18554220E+00</totfact>
</mgrwt>
</event>
<event>
 6    1  0.9364335E-007  0.2214109E+04  0.7818608E-02  0.8512579E-01
          2   -1    0    0  501    0  0.00000000000E+00  0.00000000000E+00  0.20592019981E+04  0.20592019981E+04  0.00000000000E+00 0. -1.
         -2   -1    0    0    0  501 -0.00000000000E+00 -0.00000000000E+00 -0.59516725023E+03  0.59516725023E+03  0.00000000000E+00 0.  1.
         23    2    1    2    0    0 -0.94452307817E+03  0.18213882149E+03  0.81802462830E+02  0.97036672894E+03  0.98089500991E+02 0.  0.
         13    1    3    3    0    0 -0.38513224766E+03  0.34082919012E+02  0.52546124411E+01  0.38667312359E+03  0.00000000000E+00 0. -1.
        -13    1    3    3    0    0 -0.55939083052E+03  0.14805590248E+03  0.76547850389E+02  0.58369360535E+03  0.00000000000E+00 0.  1.
         22    1    1    2    0    0  0.94452307817E+03 -0.18213882149E+03  0.13822322850E+04  0.16840025194E+04  0.00000000000E+00 0. -1.
<mgrwt>
<rscale>  0 0.22141089E+04</rscale>
<asrwt>0</asrwt>
<pdfrwt beam="1">  1        2 0.31680030E+00 0.22141089E+04</pdfrwt>
<pdfrwt beam="2">  1       -2 0.91564193E-01 0.22141089E+04</pdfrwt>
<totfact> 0.57406028E+00</totfact>
</mgrwt>
</event>
<event>
 6    1  0.9364335E-007  0.2863391E+04  0.7818608E-02  0.8283854E-01
          1   -1    0    0  501    0  0.00000000000E+00  0.00000000000E+00  0.16096232278E+04  0.16096232278E+04  0.00000000000E+00 0. -1.
         -1   -1    0    0    0  501 -0.00000000000E+00 -0.00000000000E+00 -0.12734360524E+04  0.12734360524E+04  0.00000000000E+00 0.  1.
         23    2    1    2    0    0  0.60749123846E+03  0.12367512559E+04  0.55416203361E+03  0.14880279858E+04  0.92371280095E+02 0.  0.
         13    1    3    3    0    0  0.50012709538E+03  0.96152116333E+03  0.46577837544E+03  0.11796607792E+04  0.00000000000E+00 0.  1.
        -13    1    3    3    0    0  0.10736414307E+03  0.27523009252E+03  0.88383658169E+02  0.30836720655E+03  0.00000000000E+00 0. -1.
         22    1    1    2    0    0 -0.60749123846E+03 -0.12367512559E+04 -0.21797485825E+03  0.13950312944E+04  0.00000000000E+00 0. -1.
<mgrwt>
<rscale>  0 0.28633912E+04</rscale>
<asrwt>0</asrwt>
<pdfrwt beam="1">  1        1 0.24763434E+00 0.28633912E+04</pdfrwt>
<pdfrwt beam="2">  1       -1 0.19591324E+00 0.28633912E+04</pdfrwt>
<totfact> 0.76025241E-01</totfact>
</mgrwt>
</event>
<event>
 6    1  0.9364335E-007  0.3954007E+04  0.7818608E-02  0.8013890E-01
         -2   -1    0    0    0  501 -0.00000000000E+00  0.00000000000E+00  0.15362504990E+04  0.15362504990E+04  0.00000000000E+00 0.  1.
          2   -1    0    0  501    0  0.00000000000E+00 -0.00000000000E+00 -0.25442094750E+04  0.25442094750E+04  0.00000000000E+00 0. -1.
         23    2    1    2    0    0 -0.55215171601E+03 -0.11895085821E+04  0.10209731523E+04  0.16646024108E+04  0.93342507710E+02 0.  0.
         13    1    3    3    0    0 -0.19243338076E+03 -0.33328044143E+03  0.33135191028E+03  0.50783909569E+03  0.00000000000E+00 0.  1.
        -13    1    3    3    0    0 -0.35971833526E+03 -0.85622814069E+03  0.68962124203E+03  0.11567633151E+04  0.00000000000E+00 0. -1.
         22    1    1    2    0    0  0.55215171601E+03  0.11895085821E+04 -0.20289321284E+04  0.24158575633E+04  0.00000000000E+00 0. -1.
<mgrwt>
<rscale>  0 0.39540071E+04</rscale>
<asrwt>0</asrwt>
<pdfrwt beam="1">  1        2 0.39141684E+00 0.39540071E+04</pdfrwt>
<pdfrwt beam="2">  1       -2 0.23634623E+00 0.39540071E+04</pdfrwt>
<totfact> 0.20275111E-01</totfact>
</mgrwt>
</event>
<event>
 6    1  0.9364335E-007  0.9538446E+03  0.7818608E-02  0.9360668E-01
         -2   -1    0    0    0  501 -0.00000000000E+00  0.00000000000E+00  0.14425893947E+03  0.14425893947E+03  0.00000000000E+00 0.  1.
          2   -1    0    0  501    0  0.00000000000E+00 -0.00000000000E+00 -0.15767124859E+04  0.15767124859E+04  0.00000000000E+00 0. -1.
         23    2    1    2    0    0  0.42942792812E+03  0.17064414067E+03 -0.87743103561E+03  0.99876802209E+03  0.11884684051E+03 0.  0.
         11    1    3    3    0    0  0.32995862463E+03  0.83356242423E+02 -0.56681376301E+03  0.66113447880E+03  0.00000000000E+00 0. -1.
        -11    1    3    3    0    0  0.99469303495E+02  0.87287898243E+02 -0.31061727260E+03  0.33763354329E+03  0.00000000000E+00 0.  1.
         22    1    1    2    0    0 -0.42942792812E+03 -0.17064414067E+03 -0.55502251079E+03  0.72220340326E+03  0.00000000000E+00 0.  1.
<mgrwt>
<rscale>  0 0.95384458E+03</rscale>
<asrwt>0</asrwt>
<pdfrwt beam="1">  1        2 0.24257115E+00 0.95384458E+03</pdfrwt>
<pdfrwt beam="2">  1       -2 0.22193683E-01 0.95384458E+03</pdfrwt>
<totfact> 0.20437193E+02</totfact>
</mgrwt>
</event>
<event>
 6    1  0.9364335E-007  0.1522124E+04  0.7818608E-02  0.8869873E-01
          2   -1    0    0  501    0  0.00000000000E+00  0.00000000000E+00  0.14895407978E+04  0.14895407978E+04  0.00000000000E+00 0. -1.
         -2   -1    0    0    0  501 -0.00000000000E+00 -0.00000000000E+00 -0.38885492168E+03  0.38885492168E+03  0.00000000000E+00 0.  1.
         23    2    1    2    0    0 -0.34050114267E+03 -0.13190873684E+02  0.13883811017E+04  0.14324320773E+04  0.90247133655E+02 0.  0.
         11    1    3    3    0    0 -0.30337654755E+03  0.75596810954E+01  0.11065089294E+04  0.11473693779E+04  0.00000000000E+00 0.  1.
        -11    1    3    3    0    0 -0.37124595122E+02 -0.20750554780E+02  0.28187217227E+03  0.28506269939E+03  0.00000000000E+00 0. -1.
         22    1    1    2    0    0  0.34050114267E+03  0.13190873684E+02 -0.28769522560E+03  0.44596364218E+03  0.00000000000E+00 0.  1.
<mgrwt>
<rscale>  0 0.15221239E+04</rscale>
<asrwt>0</asrwt>
<pdfrwt beam="1">  1        2 0.22916012E+00 0.15221239E+04</pdfrwt>
<pdfrwt beam="2">  1       -2 0.59823835E-01 0.15221239E+04</pdfrwt>
<totfact> 0.32343454E+01</totfact>
</mgrwt>
</event>
<event>
 6    1  0.9364335E-007  0.1131525E+04  0.7818608E-02  0.9174998E-01
         -2   -1    0    0    0  501 -0.00000000000E+00  0.00000000000E+00  0.56850594809E+03  0.56850594809E+03  0.00000000000E+00 0.  1.
          2   -1    0    0  501    0  0.00000000000E+00 -0.00000000000E+00 -0.56303264057E+03  0.56303264057E+03  0.00000000000E+00 0. -1.
         23    2    1    2    0    0 -0.40129068437E+03  0.37938813903E+03 -0.10081328169E+03  0.56916290245E+03  0.93880340658E+02 0.  0.
         13    1    3    3    0    0 -0.27491121251E+03  0.19847564613E+03 -0.71689194836E+02  0.34656615174E+03  0.00000000000E+00 0. -1.
        -13    1    3    3    0    0 -0.12637947185E+03  0.18091249290E+03 -0.29124086856E+02  0.22259675071E+03  0.00000000000E+00 0.  1.
         22    1    1    2    0    0  0.40129068437E+03 -0.37938813903E+03  0.10628658921E+03  0.56237568621E+03  0.00000000000E+00 0.  1.
<mgrwt>
<rscale>  0 0.11315254E+04</rscale>
<asrwt>0</asrwt>
<pdfrwt beam="1">  1        2 0.86620406E-01 0.11315254E+04</pdfrwt>
<pdfrwt beam="2">  1       -2 0.87462454E-01 0.11315254E+04</pdfrwt>
<totfact> 0.59916354E+01</totfact>
</mgrwt>
</event>
<event>
 6    1  0.9364335E-007  0.1671069E+04  0.7818608E-02  0.8778039E-01
         -1   -1    0    0    0  501 -0.00000000000E+00  0.00000000000E+00  0.12278204383E+04  0.12278204383E+04  0.00000000000E+00 0.  1.
          1   -1    0    0  501    0  0.00000000000E+00 -0.00000000000E+00 -0.56858300171E+03  0.56858300171E+03  0.00000000000E+00 0. -1.
         23    2    1    2    0    0  0.23079117980E+03 -0.35124837349E+01  0.11910887917E+04  0.12166252324E+04  0.90595475502E+02 0.  0.
         13    1    3    3    0    0  0.16633009889E+03 -0.33515831811E+02  0.69202712738E+03  0.71252407525E+03  0.00000000000E+00 0. -1.
        -13    1    3    3    0    0  0.64461080919E+02  0.30003348076E+02  0.49906166430E+03  0.50410115714E+03  0.00000000000E+00 0.  1.
         22    1    1    2    0    0 -0.23079117980E+03  0.35124837349E+01 -0.53185135505E+03  0.57977820767E+03  0.00000000000E+00 0. -1.
<mgrwt>
<rscale>  0 0.16710689E+04</rscale>
<asrwt>0</asrwt>
<pdfrwt beam="1">  1        1 0.87474308E-01 0.16710689E+04</pdfrwt>
<pdfrwt beam="2">  1       -1 0.18889545E+00 0.16710689E+04</pdfrwt>
<totfact> 0.63483522E+00</totfact>
</mgrwt>
</event>
<event>
 6    1  0.9364335E-007  0.8302459E+03  0.7818608E-02  0.9517241E-01
          2   -1    0    0  501    0  0.00000000000E+00  0.00000000000E+00  0.48634073745E+03  0.48634073745E+03  0.00000000000E+00 0. -1.
         -2   -1    0    0    0  501 -0.00000000000E+00 -0.00000000000E+00 -0.35433396967E+03  0.35433396967E+03  0.00000000000E+00 0.  1.
         23    2    1    2    0    0 -0.44084994881E+02 -0.21662023164E+03 -0.28306315317E+03  0.37040792029E+03  0.90606110169E+02 0.  0.
         11    1    3    3    0    0 -0.27427584723E+01 -0.18076426971E+03 -0.18870725056E+03  0.26133057674E+03  0.00000000000E+00 0. -1.
        -11    1    3    3    0    0 -0.41342236409E+02 -0.35855961933E+02 -0.94355902613E+02  0.10907734355E+03  0.00000000000E+00 0.  1.
         22    1    1    2    0    0  0.44084994881E+02  0.21662023164E+03  0.41506992095E+03  0.47026678684E+03  0.00000000000E+00 0. -1.
<mgrwt>
<rscale>  0 0.83024585E+03</rscale>
<asrwt>0</asrwt>
<pdfrwt beam="1">  1        2 0.74821652E-01 0.83024585E+03</pdfrwt>
<pdfrwt beam="2">  1       -2 0.54512918E-01 0.83024585E+03</pdfrwt>
<totfact> 0.20269556E+02</totfact>
</mgrwt>
</event>
<event>
 6    1  0.9364335E-007  0.4052443E+04  0.7818608E-02  0.7994050E-01
         -2   -1    0    0    0  501 -0.00000000000E+00  0.00000000000E+00  0.24407647268E+04  0.24407647268E+04  0.00000000000E+00 0.  1.
          2   -1    0    0  501    0  0.00000000000E+00 -0.00000000000E+00 -0.16820847745E+04  0.16820847745E+04  0.00000000000E+00 0. -1.
         23    2    1    2    0    0  0.17048937052E+02 -0.11477049311E+04  0.20772270648E+04  0.23746836730E+04  0.82054816370E+02 0.  0.
         13    1    3    3    0    0  0.13549473542E+02 -0.54124622776E+03  0.89628706346E+03  0.10471206079E+04  0.00000000000E+00 0.  1.
        -13    1    3    3    0    0  0.34994635098E+01 -0.60645870334E+03  0.11809400014E+04  0.13275630651E+04  0.00000000000E+00 0. -1.
         22    1    1    2    0    0 -0.17048937052E+02  0.11477049311E+04 -0.13185471126E+04  0.17481658283E+04  0.00000000000E+00 0. -1.
<mgrwt>
<rscale>  0 0.40524428E+04</rscale>
<asrwt>0</asrwt>
<pdfrwt beam="1">  1        2 0.25878227E+00 0.40524428E+04</pdfrwt>
<pdfrwt beam="2">  1       -2 0.37550227E+00 0.40524428E+04</pdfrwt>
<totfact> 0.84341843E-02</totfact>
</mgrwt>
</event>
<event>
 6    1  0.9364335E-007  0.1063089E+04  0.7818608E-02  0.9241934E-01
          1   -1    0    0  501    0  0.00000000000E+00  0.00000000000E+00  0.58278142049E+03  0.58278142049E+03  0.00000000000E+00 0. -1.
         -1   -1    0    0    0  501 -0.00000000000E+00 -0.00000000000E+00 -0.48481188498E+03  0.48481188498E+03  0.00000000000E+00 0.  1.
         23    2    1    2    0    0 -0.24738867890E+03  0.45201600296E+03  0.15742391000E+03  0.54888871901E+03  0.10477076421E+03 0.  0.
         11    1    3    3    0    0 -0.11449697181E+03  0.29104499300E+03  0.12862273308E+03  0.33817237021E+03  0.00000000000E+00 0. -1.
        -11    1    3    3    0    0 -0.13289170708E+03  0.16097100996E+03  0.28801176917E+02  0.21071634880E+03  0.00000000000E+00 0.  1.
         22    1    1    2    0    0  0.24738867890E+03 -0.45201600296E+03 -0.59454374486E+02  0.51870458647E+03  0.00000000000E+00 0.  1.
<mgrwt>
<rscale>  0 0.10630886E+04</rscale>
<asrwt>0</asrwt>
<pdfrwt beam="1">  1        1 0.89658680E-01 0.10630886E+04</pdfrwt>
<pdfrwt beam="2">  1       -1 0.74586444E-01 0.10630886E+04</pdfrwt>
<totfact> 0.64559976E+01</totfact>
</mgrwt>
</event>
<event>
 6    1  0.9364335E-007  0.2943189E+04  0.7818608E-02  0.8260142E-01
          2   -1    0    0  501    0  0.00000000000E+00  0.00000000000E+00  0.14318628040E+04  0.14318628040E+04  0.00000000000E+00 0. -1.
         -2   -1    0    0    0  501 -0.00000000000E+00 -0.00000000000E+00 -0.15124288454E+04  0.15124288454E+04  0.00000000000E+00 0.  1.
         23    2    1    2    0    0  0.82001678555E+03  0.88663640016E+03  0.79838276314E+03  0.14506040530E+04  0.91024432850E+02 0.  0.
         11    1    3    3    0    0  0.23474963786E+03  0.26609549681E+03  0.18677124653E+03  0.40099589079E+03  0.00000000000E+00 0.  1.
        -11    1    3    3    0    0  0.58526714769E+03  0.62054090335E+03  0.61161151661E+03  0.10496081622E+04  0.00000000000E+00 0. -1.
         22    1    1    2    0    0 -0.82001678555E+03 -0.88663640016E+03 -0.87894880454E+03  0.14936875964E+04  0.00000000000E+00 0.  1.
<mgrwt>
<rscale>  0 0.29431892E+04</rscale>
<asrwt>0</asrwt>
<pdfrwt beam="1">  1        2 0.22028658E+00 0.29431892E+04</pdfrwt>
<pdfrwt beam="2">  1       -2 0.23268136E+00 0.29431892E+04</pdfrwt>
<totfact> 0.98172259E-01</totfact>
</mgrwt>
</event>
<event>
 6    1  0.9364335E-007  0.3106279E+04  0.7818608E-02  0.8214017E-01
         -2   -1    0    0    0  501 -0.00000000000E+00  0.00000000000E+00  0.17591409484E+04  0.17591409484E+04  0.00000000000E+00 0.  1.
          2   -1    0    0  501    0  0.00000000000E+00 -0.00000000000E+00 -0.13712614052E+04  0.13712614052E+04  0.00000000000E+00 0. -1.
         23    2    1    2    0    0 -0.18700630818E+02 -0.11823780660E+04 -0.81855765815E+03  0.14410657012E+04  0.90918155543E+02 0.  0.
         11    1    3    3    0    0 -0.35669422663E+01 -0.51973416810E+03 -0.41459020302E+03  0.66484687335E+03  0.00000000000E+00 0.  1.
        -11    1    3    3    0    0 -0.15133688552E+02 -0.66264389789E+03 -0.40396745513E+03  0.77621882788E+03  0.00000000000E+00 0. -1.
         22    1    1    2    0    0  0.18700630818E+02  0.11823780660E+04  0.12064372013E+04  0.16893366524E+04  0.00000000000E+00 0.  1.
<mgrwt>
<rscale>  0 0.31062789E+04</rscale>
<asrwt>0</asrwt>
<pdfrwt beam="1">  1        2 0.21096329E+00 0.31062789E+04</pdfrwt>
<pdfrwt beam="2">  1       -2 0.27063707E+00 0.31062789E+04</pdfrwt>
<totfact> 0.61267934E-01</totfact>
</mgrwt>
</event>
<event>
 6    1  0.9364335E-007  0.2739579E+04  0.7818608E-02  0.8322276E-01
         -2   -1    0    0    0  501 -0.00000000000E+00  0.00000000000E+00  0.84619554797E+03  0.84619554797E+03  0.00000000000E+00 0.  1.
          2   -1    0    0  501    0  0.00000000000E+00 -0.00000000000E+00 -0.22173634663E+04  0.22173634663E+04  0.00000000000E+00 0. -1.
         23    2    1    2    0    0 -0.11457538367E+04 -0.32857162493E+03  0.65122088770E+02  0.11971077957E+04  0.90083411210E+02 0.  0.
         13    1    3    3    0    0 -0.56952887886E+03 -0.14192884261E+03 -0.80732143682E+01  0.58700265503E+03  0.00000000000E+00 0.  1.
        -13    1    3    3    0    0 -0.57622495782E+03 -0.18664278232E+03  0.73195303139E+02  0.61010514062E+03  0.00000000000E+00 0. -1.
         22    1    1    2    0    0  0.11457538367E+04  0.32857162493E+03 -0.14362900071E+04  0.18664512186E+04  0.00000000000E+00 0. -1.
<mgrwt>
<rscale>  0 0.27395789E+04</rscale>
<asrwt>0</asrwt>
<pdfrwt beam="1">  1        2 0.34113284E+00 0.27395789E+04</pdfrwt>
<pdfrwt beam="2">  1       -2 0.13018393E+00 0.27395789E+04</pdfrwt>
<totfact> 0.19104408E+00</totfact>
</mgrwt>
</event>
<event>
 6    1  0.9364335E-007  0.7723147E+03  0.7818608E-02  0.9600978E-01
         -2   -1    0    0    0  501 -0.00000000000E+00  0.00000000000E+00  0.39945674491E+03  0.39945674491E+03  0.00000000000E+00 0.  1.
          2   -1    0    0  501    0  0.00000000000E+00 -0.00000000000E+00 -0.37330070224E+03  0.37330070224E+03  0.00000000000E+00 0. -1.
         23    2    1    2    0    0  0.15714914305E+03 -0.12653300860E+03  0.33613424479E+03  0.40290214948E+03  0.92937915344E+02 0.  0.
         13    1    3    3    0    0  0.77288216250E+02 -0.42603986849E+02  0.22776444635E+03  0.24426463331E+03  0.00000000000E+00 0. -1.
        -13    1    3    3    0    0  0.79860926798E+02 -0.83929021754E+02  0.10836979844E+03  0.15863751616E+03  0.00000000000E+00 0.  1.
         22    1    1    2    0    0 -0.15714914305E+03  0.12653300860E+03 -0.30997820211E+03  0.36985529767E+03  0.00000000000E+00 0. -1.
<mgrwt>
<rscale>  0 0.77231466E+03</rscale>
<asrwt>0</asrwt>
<pdfrwt beam="1">  1        2 0.57430877E-01 0.77231466E+03</pdfrwt>
<pdfrwt beam="2">  1       -2 0.61454884E-01 0.77231466E+03</pdfrwt>
<totfact> 0.21337098E+02</totfact>
</mgrwt>
</event>
<event>
 6    1  0.9364335E-007  0.1665678E+04  0.7818608E-02  0.8781185E-01
         -1   -1    0    0    0  501 -0.00000000000E+00  0.00000000000E+00  0.24008460746E+03  0.24008460746E+03  0.00000000000E+00 0.  1.
          1   -1    0    0  501    0  0.00000000000E+00 -0.00000000000E+00 -0.28890688665E+04  0.28890688665E+04  0.00000000000E+00 0. -1.
         23    2    1    2    0    0 -0.42560890612E+03 -0.71297133048E+03 -0.13973335186E+04  0.16271213055E+04  0.74240969429E+02 0.  0.
         11    1    3    3    0    0 -0.30993320663E+03 -0.46764792578E+03 -0.98532328524E+03  0.11338497041E+04  0.00000000000E+00 0. -1.
        -11    1    3    3    0    0 -0.11567569949E+03 -0.24532340471E+03 -0.41201023331E+03  0.49327160135E+03  0.00000000000E+00 0.  1.
         22    1    1    2    0    0  0.42560890612E+03  0.71297133048E+03 -0.12516507404E+04  0.15020321685E+04  0.00000000000E+00 0.  1.
<mgrwt>
<rscale>  0 0.16656782E+04</rscale>
<asrwt>0</asrwt>
<pdfrwt beam="1">  1        1 0.44447215E+00 0.16656782E+04</pdfrwt>
<pdfrwt beam="2">  1       -1 0.36936092E-01 0.16656782E+04</pdfrwt>
<totfact> 0.48525165E+00</totfact>
</mgrwt>
</event>
<event>
 6    1  0.9364335E-007  0.1654168E+04  0.7818608E-02  0.8787945E-01
         -1   -1    0    0    0  501 -0.00000000000E+00  0.00000000000E+00  0.11961557610E+04  0.11961557610E+04  0.00000000000E+00 0.  1.
          1   -1    0    0  501    0  0.00000000000E+00 -0.00000000000E+00 -0.57188846908E+03  0.57188846908E+03  0.00000000000E+00 0. -1.
         23    2    1    2    0    0 -0.54204473998E+03  0.42875232902E+03 -0.16690770860E+03  0.71752105508E+03  0.96629299471E+02 0.  0.
         11    1    3    3    0    0 -0.36064152704E+03  0.28853899129E+03 -0.64239524912E+02  0.46630867146E+03  0.00000000000E+00 0.  1.
        -11    1    3    3    0    0 -0.18140321294E+03  0.14021333773E+03 -0.10266818368E+03  0.25121238362E+03  0.00000000000E+00 0. -1.
         22    1    1    2    0    0  0.54204473998E+03 -0.42875232902E+03  0.79117500048E+03  0.10505231750E+04  0.00000000000E+00 0.  1.
<mgrwt>
<rscale>  0 0.16541677E+04</rscale>
<asrwt>0</asrwt>
<pdfrwt beam="1">  1        1 0.87982842E-01 0.16541677E+04</pdfrwt>
<pdfrwt beam="2">  1       -1 0.18402396E+00 0.16541677E+04</pdfrwt>
<totfact> 0.68262092E+00</totfact>
</mgrwt>
</event>
<event>
 6    1  0.9364335E-007  0.1542102E+04  0.7818608E-02  0.8856929E-01
          4   -1    0    0  501    0  0.00000000000E+00  0.00000000000E+00  0.34289917384E+03  0.34289917384E+03  0.00000000000E+00 0. -1.
         -4   -1    0    0    0  501 -0.00000000000E+00 -0.00000000000E+00 -0.17338025769E+04  0.17338025769E+04  0.00000000000E+00 0.  1.
         23    2    1    2    0    0 -0.75680101934E+03 -0.15636194483E+02 -0.87503481990E+03  0.11606708187E+04  0.92078986922E+02 0.  0.
         11    1    3    3    0    0 -0.33062292451E+03 -0.42087425834E+02 -0.33966852186E+03  0.47587558707E+03  0.00000000000E+00 0. -1.
        -11    1    3    3    0    0 -0.42617809483E+03  0.26451231351E+02 -0.53536629804E+03  0.68479523161E+03  0.00000000000E+00 0.  1.
         22    1    1    2    0    0  0.75680101934E+03  0.15636194483E+02 -0.51586858319E+03  0.91603093211E+03  0.00000000000E+00 0.  1.
<mgrwt>
<rscale>  0 0.15421018E+04</rscale>
<asrwt>0</asrwt>
<pdfrwt beam="1">  1        4 0.52753719E-01 0.15421018E+04</pdfrwt>
<pdfrwt beam="2">  1       -4 0.26673886E+00 0.15421018E+04</pdfrwt>
<totfact> 0.33135646E-01</totfact>
</mgrwt>
</event>
<event>
 6    1  0.9364335E-007  0.6019017E+03  0.7818608E-02  0.9901469E-01
         -2   -1    0    0    0  501 -0.00000000000E+00  0.00000000000E+00  0.28041276398E+03  0.28041276398E+03  0.00000000000E+00 0.  1.
          2   -1    0    0  501    0  0.00000000000E+00 -0.00000000000E+00 -0.32299316115E+03  0.32299316115E+03  0.00000000000E+00 0. -1.
         23    2    1    2    0    0 -0.27672201853E+03  0.26449756833E+02  0.73515277517E+02  0.30215375360E+03  0.92831727385E+02 0.  0.
         13    1    3    3    0    0 -0.18884386280E+03 -0.22705372248E+02  0.65408693017E+02  0.20113636063E+03  0.00000000000E+00 0. -1.
        -13    1    3    3    0    0 -0.87878155728E+02  0.49155129080E+02  0.81065844997E+01  0.10101739296E+03  0.00000000000E+00 0.  1.
         22    1    1    2    0    0  0.27672201853E+03 -0.26449756833E+02 -0.11609567469E+03  0.30125217154E+03  0.00000000000E+00 0. -1.
<mgrwt>
<rscale>  0 0.60190167E+03</rscale>
<asrwt>0</asrwt>
<pdfrwt beam="1">  1        2 0.49691255E-01 0.60190167E+03</pdfrwt>
<pdfrwt beam="2">  1       -2 0.43140426E-01 0.60190167E+03</pdfrwt>
<totfact> 0.51922320E+02</totfact>
</mgrwt>
</event>
<event>
 6    1  0.1117727E-006  0.3481458E+04  0.7818608E-02  0.8118198E-01
         -2   -1    0    0    0  501 -0.00000000000E+00  0.00000000000E+00  0.13801567940E+04  0.13801567940E+04  0.00000000000E+00 0.  1.
          2   -1    0    0  501    0  0.00000000000E+00 -0.00000000000E+00 -0.21955024226E+04  0.21955024226E+04  0.00000000000E+00 0. -1.
         23    2    1    2    0    0  0.22467604053E+03  0.13942964501E+04 -0.14511009348E+04  0.20268768809E+04  0.89409469114E+02 0.  0.
         11    1    3    3    0    0  0.57369670621E+02  0.53277475079E+03 -0.50321455921E+03  0.73509530456E+03  0.00000000000E+00 0. -1.
        -11    1    3    3    0    0  0.16730636991E+03  0.86152169935E+03 -0.94788637559E+03  0.12917815763E+04  0.00000000000E+00 0.  1.
         22    1    1    2    0    0 -0.22467604053E+03 -0.13942964501E+04  0.63575530621E+03  0.15487823357E+04  0.00000000000E+00 0.  1.
<mgrwt>
<rscale>  0 0.34814581E+04</rscale>
<asrwt>0</asrwt>
<pdfrwt beam="1">  1        2 0.33776960E+00 0.34814581E+04</pdfrwt>
<pdfrwt beam="2">  1       -2 0.21233182E+00 0.34814581E+04</pdfrwt>
<totfact> 0.47285677E-01</totfact>
</mgrwt>
</event>
<event>
 6    1  0.9364335E-007  0.1322533E+04  0.7818608E-02  0.9011884E-01
          2   -1    0    0  501    0  0.00000000000E+00  0.00000000000E+00  0.11032653179E+04  0.11032653179E+04  0.00000000000E+00 0. -1.
         -2   -1    0    0    0  501 -0.00000000000E+00 -0.00000000000E+00 -0.39634489967E+03  0.39634489967E+03  0.00000000000E+00 0.  1.
         23    2    1    2    0    0  0.11873565962E+03 -0.35959283624E+03  0.96581538178E+03  0.10408817937E+04  0.85031712299E+02 0.  0.
         13    1    3    3    0    0  0.42779822806E+02 -0.14554595639E+03  0.28027675852E+03  0.31869860374E+03  0.00000000000E+00 0.  1.
        -13    1    3    3    0    0  0.75955836817E+02 -0.21404687984E+03  0.68553862326E+03  0.72218318998E+03  0.00000000000E+00 0. -1.
         22    1    1    2    0    0 -0.11873565962E+03  0.35959283624E+03 -0.25889496351E+03  0.45872842387E+03  0.00000000000E+00 0.  1.
<mgrwt>
<rscale>  0 0.13225333E+04</rscale>
<asrwt>0</asrwt>
<pdfrwt beam="1">  1        2 0.16973312E+00 0.13225333E+04</pdfrwt>
<pdfrwt beam="2">  1       -2 0.60976139E-01 0.13225333E+04</pdfrwt>
<totfact> 0.53118514E+01</totfact>
</mgrwt>
</event>
<event>
 6    1  0.9364335E-007  0.2818172E+04  0.7818608E-02  0.8297649E-01
         -2   -1    0    0    0  501 -0.00000000000E+00  0.00000000000E+00  0.12784995114E+04  0.12784995114E+04  0.00000000000E+00 0.  1.
          2   -1    0    0  501    0  0.00000000000E+00 -0.00000000000E+00 -0.15530105375E+04  0.15530105375E+04  0.00000000000E+00 0. -1.
         23    2    1    2    0    0 -0.46170877919E+03  0.84526148024E+03  0.89420217827E+03  0.13170687259E+04  0.86200500669E+02 0.  0.
         13    1    3    3    0    0 -0.19098515181E+03  0.43440752803E+03  0.45855665473E+03  0.65989350218E+03  0.00000000000E+00 0.  1.
        -13    1    3    3    0    0 -0.27072362739E+03  0.41085395221E+03  0.43564552354E+03  0.65717522371E+03  0.00000000000E+00 0. -1.
         22    1    1    2    0    0  0.46170877919E+03 -0.84526148024E+03 -0.11687132044E+04  0.15144413230E+04  0.00000000000E+00 0. -1.
<mgrwt>
<rscale>  0 0.28181719E+04</rscale>
<asrwt>0</asrwt>
<pdfrwt beam="1">  1        2 0.23892470E+00 0.28181719E+04</pdfrwt>
<pdfrwt beam="2">  1       -2 0.19669223E+00 0.28181719E+04</pdfrwt>
<totfact> 0.14400932E+00</totfact>
</mgrwt>
</event>
<event>
 6    1  0.9364335E-007  0.2866825E+04  0.7818608E-02  0.8282817E-01
          1   -1    0    0  501    0  0.00000000000E+00  0.00000000000E+00  0.37991939890E+04  0.37991939890E+04  0.00000000000E+00 0. -1.
         -1   -1    0    0    0  501 -0.00000000000E+00 -0.00000000000E+00 -0.54081773315E+03  0.54081773315E+03  0.00000000000E+00 0.  1.
         23    2    1    2    0    0 -0.77191299940E+03  0.44227447291E+02 -0.19370916489E+03  0.80239960409E+03  0.92282925547E+02 0.  0.
         11    1    3    3    0    0 -0.43462490531E+03  0.70574928737E+02 -0.11323018273E+03  0.45464349018E+03  0.00000000000E+00 0. -1.
        -11    1    3    3    0    0 -0.33728809409E+03 -0.26347481446E+02 -0.80478982156E+02  0.34775611391E+03  0.00000000000E+00 0.  1.
         22    1    1    2    0    0  0.77191299940E+03 -0.44227447291E+02  0.34520854207E+04  0.35376121180E+04  0.00000000000E+00 0. -1.
<mgrwt>
<rscale>  0 0.28668251E+04</rscale>
<asrwt>0</asrwt>
<pdfrwt beam="1">  1        1 0.58449137E+00 0.28668251E+04</pdfrwt>
<pdfrwt beam="2">  1       -1 0.83202731E-01 0.28668251E+04</pdfrwt>
<totfact> 0.17614793E-01</totfact>
</mgrwt>
</event>
<event>
 6    1  0.9364335E-007  0.1761239E+04  0.7818608E-02  0.8727188E-01
          1   -1    0    0  501    0  0.00000000000E+00  0.00000000000E+00  0.61548791945E+03  0.61548791945E+03  0.00000000000E+00 0. -1.
         -1   -1    0    0    0  501 -0.00000000000E+00 -0.00000000000E+00 -0.12599615932E+04  0.12599615932E+04  0.00000000000E+00 0.  1.
         23    2    1    2    0    0  0.19472363474E+02  0.87497025035E+03 -0.24551066808E+03  0.91361605935E+03  0.92014693569E+02 0.  0.
         13    1    3    3    0    0  0.56344552989E+02  0.58393098976E+03 -0.16457138407E+03  0.60928962727E+03  0.00000000000E+00 0.  1.
        -13    1    3    3    0    0 -0.36872189516E+02  0.29103926059E+03 -0.80939284007E+02  0.30432643208E+03  0.00000000000E+00 0. -1.
         22    1    1    2    0    0 -0.19472363474E+02 -0.87497025035E+03 -0.39896300563E+03  0.96183345325E+03  0.00000000000E+00 0. -1.
<mgrwt>
<rscale>  0 0.17612395E+04</rscale>
<asrwt>0</asrwt>
<pdfrwt beam="1">  1        1 0.94690450E-01 0.17612395E+04</pdfrwt>
<pdfrwt beam="2">  1       -1 0.19384024E+00 0.17612395E+04</pdfrwt>
<totfact> 0.51883106E+00</totfact>
</mgrwt>
</event>
<event>
 6    1  0.9364335E-007  0.2306390E+04  0.7818608E-02  0.8475406E-01
         -2   -1    0    0    0  501 -0.00000000000E+00  0.00000000000E+00  0.82819313221E+03  0.82819313221E+03  0.00000000000E+00 0.  1.
          2   -1    0    0  501    0  0.00000000000E+00 -0.00000000000E+00 -0.16057353847E+04  0.16057353847E+04  0.00000000000E+00 0. -1.
         23    2    1    2    0    0 -0.57906432712E+03  0.65055944211E+03 -0.11841009685E+04  0.14727661621E+04  0.91662324647E+02 0.  0.
         11    1    3    3    0    0 -0.44448469160E+03  0.45717145963E+03 -0.91261873753E+03  0.11133037971E+04  0.00000000000E+00 0. -1.
        -11    1    3    3    0    0 -0.13457963552E+03  0.19338798248E+03 -0.27148223101E+03  0.35946236496E+03  0.00000000000E+00 0.  1.
         22    1    1    2    0    0  0.57906432712E+03 -0.65055944211E+03  0.40655871610E+03  0.96116235481E+03  0.00000000000E+00 0.  1.
<mgrwt>
<rscale>  0 0.23063903E+04</rscale>
<asrwt>0</asrwt>
<pdfrwt beam="1">  1        2 0.24703621E+00 0.23063903E+04</pdfrwt>
<pdfrwt beam="2">  1       -2 0.12741433E+00 0.23063903E+04</pdfrwt>
<totfact> 0.45841213E+00</totfact>
</mgrwt>
</event>
<event>
 6    1  0.9364335E-007  0.1257715E+04  0.7818608E-02  0.9063786E-01
          1   -1    0    0  501    0  0.00000000000E+00  0.00000000000E+00  0.13894160262E+04  0.13894160262E+04  0.00000000000E+00 0. -1.
         -1   -1    0    0    0  501 -0.00000000000E+00 -0.00000000000E+00 -0.28462453372E+03  0.28462453372E+03  0.00000000000E+00 0.  1.
         23    2    1    2    0    0  0.36955467672E+03  0.44986970246E+03  0.85996545131E+03  0.10424606373E+04  0.90720419468E+02 0.  0.
         13    1    3    3    0    0  0.23746240881E+03  0.28156004785E+03  0.61829512878E+03  0.71968974038E+03  0.00000000000E+00 0.  1.
        -13    1    3    3    0    0  0.13209226791E+03  0.16830965461E+03  0.24167032253E+03  0.32277089688E+03  0.00000000000E+00 0. -1.
         22    1    1    2    0    0 -0.36955467672E+03 -0.44986970246E+03  0.24482604118E+03  0.63157992267E+03  0.00000000000E+00 0.  1.
<mgrwt>
<rscale>  0 0.12577152E+04</rscale>
<asrwt>0</asrwt>
<pdfrwt beam="1">  1        1 0.21375631E+00 0.12577152E+04</pdfrwt>
<pdfrwt beam="2">  1       -1 0.43788391E-01 0.12577152E+04</pdfrwt>
<totfact> 0.39685744E+01</totfact>
</mgrwt>
</event>
<event>
 6    1  0.9364335E-007  0.3825665E+04  0.7818608E-02  0.8040670E-01
          2   -1    0    0  501    0  0.00000000000E+00  0.00000000000E+00  0.18197730606E+04  0.18197730606E+04  0.00000000000E+00 0. -1.
         -2   -1    0    0    0  501 -0.00000000000E+00 -0.00000000000E+00 -0.20106510773E+04  0.20106510773E+04  0.00000000000E+00 0.  1.
         23    2    1    2    0    0 -0.15277535810E+04  0.11351277695E+04  0.84617995872E+02  0.19072902086E+04  0.89719993326E+02 0.  0.
         11    1    3    3    0    0 -0.14605490544E+04  0.10653663976E+04  0.68692990122E+02  0.18091234973E+04  0.00000000000E+00 0. -1.
        -11    1    3    3    0    0 -0.67204526589E+02  0.69761371894E+02  0.15925005751E+02  0.98166711316E+02  0.00000000000E+00 0.  1.
         22    1    1    2    0    0  0.15277535810E+04 -0.11351277695E+04 -0.27549601256E+03  0.19231339293E+04  0.00000000000E+00 0.  1.
<mgrwt>
<rscale>  0 0.38256653E+04</rscale>
<asrwt>0</asrwt>
<pdfrwt beam="1">  1        2 0.27996509E+00 0.38256653E+04</pdfrwt>
<pdfrwt beam="2">  1       -2 0.30933093E+00 0.38256653E+04</pdfrwt>
<totfact> 0.18752345E-01</totfact>
</mgrwt>
</event>
<event>
 6    1  0.9364335E-007  0.1170046E+04  0.7818608E-02  0.9139487E-01
          1   -1    0    0  501    0  0.00000000000E+00  0.00000000000E+00  0.39075109391E+03  0.39075109391E+03  0.00000000000E+00 0. -1.
         -1   -1    0    0    0  501 -0.00000000000E+00 -0.00000000000E+00 -0.87588242455E+03  0.87588242455E+03  0.00000000000E+00 0.  1.
         23    2    1    2    0    0 -0.35467597513E+03  0.40090850574E+03 -0.15952462446E+01  0.54529460905E+03  0.10402398056E+03 0.  0.
         11    1    3    3    0    0 -0.19613073695E+03  0.22792362552E+03  0.50571625263E+02  0.30491627429E+03  0.00000000000E+00 0. -1.
        -11    1    3    3    0    0 -0.15854523819E+03  0.17298488022E+03 -0.52166871507E+02  0.24037833475E+03  0.00000000000E+00 0.  1.
         22    1    1    2    0    0  0.35467597513E+03 -0.40090850574E+03 -0.48353608440E+03  0.72133890941E+03  0.00000000000E+00 0.  1.
<mgrwt>
<rscale>  0 0.11700462E+04</rscale>
<asrwt>0</asrwt>
<pdfrwt beam="1">  1        1 0.60115554E-01 0.11700462E+04</pdfrwt>
<pdfrwt beam="2">  1       -1 0.13475114E+00 0.11700462E+04</pdfrwt>
<totfact> 0.28419031E+01</totfact>
</mgrwt>
</event>
<event>
 6    1  0.9364335E-007  0.2520049E+04  0.7818608E-02  0.8395878E-01
         -1   -1    0    0    0  501 -0.00000000000E+00  0.00000000000E+00  0.91031294343E+03  0.91031294343E+03  0.00000000000E+00 0.  1.
          1   -1    0    0  501    0  0.00000000000E+00 -0.00000000000E+00 -0.17440836587E+04  0.17440836587E+04  0.00000000000E+00 0. -1.
         23    2    1    2    0    0  0.53807610752E+03 -0.14130850400E+02 -0.16158471053E+04  0.17049920211E+04  0.79437686400E+02 0.  0.
         13    1    3    3    0    0  0.28680657748E+03 -0.34249521467E+02 -0.95394093222E+03  0.99671176615E+03  0.00000000000E+00 0. -1.
        -13    1    3    3    0    0  0.25126953004E+03  0.20118671067E+02 -0.66190617308E+03  0.70828025499E+03  0.00000000000E+00 0.  1.
         22    1    1    2    0    0 -0.53807610752E+03  0.14130850400E+02  0.78207639007E+03  0.94940458095E+03  0.00000000000E+00 0.  1.
<mgrwt>
<rscale>  0 0.25200491E+04</rscale>
<asrwt>0</asrwt>
<pdfrwt beam="1">  1        1 0.26832056E+00 0.25200491E+04</pdfrwt>
<pdfrwt beam="2">  1       -1 0.14004815E+00 0.25200491E+04</pdfrwt>
<totfact> 0.16516340E+00</totfact>
</mgrwt>
</event>
<event>
 6    1  0.9364335E-007  0.1413695E+04  0.7818608E-02  0.8943965E-01
          1   -1    0    0  501    0  0.00000000000E+00  0.00000000000E+00  0.12079336644E+04  0.12079336644E+04  0.00000000000E+00 0. -1.
         -1   -1    0    0    0  501 -0.00000000000E+00 -0.00000000000E+00 -0.41362634767E+03  0.41362634767E+03  0.00000000000E+00 0.  1.
         23    2    1    2    0    0  0.40903278081E+03  0.33180314299E+02  0.10548374920E+04  0.11354687437E+04  0.90544929139E+02 0.  0.
         13    1    3    3    0    0  0.17791451965E+03 -0.23106978192E+02  0.52121710120E+03  0.55123023804E+03  0.00000000000E+00 0. -1.
        -13    1    3    3    0    0  0.23111826116E+03  0.56287292490E+02  0.53362039084E+03  0.58423850562E+03  0.00000000000E+00 0.  1.
         22    1    1    2    0    0 -0.40903278081E+03 -0.33180314299E+02 -0.26053017526E+03  0.48609126845E+03  0.00000000000E+00 0.  1.
<mgrwt>
<rscale>  0 0.14136947E+04</rscale>
<asrwt>0</asrwt>
<pdfrwt beam="1">  1        1 0.18583595E+00 0.14136947E+04</pdfrwt>
<pdfrwt beam="2">  1       -1 0.63634823E-01 0.14136947E+04</pdfrwt>
<totfact> 0.25721241E+01</totfact>
</mgrwt>
</event>
<event>
 6    1  0.9364335E-007  0.3343765E+04  0.7818608E-02  0.8151848E-01
          2   -1    0    0  501    0  0.00000000000E+00  0.00000000000E+00  0.83122227641E+03  0.83122227641E+03  0.00000000000E+00 0. -1.
         -2   -1    0    0    0  501 -0.00000000000E+00 -0.00000000000E+00 -0.33627476784E+04  0.33627476784E+04  0.00000000000E+00 0.  1.
         23    2    1    2    0    0  0.64472332307E+03  0.11893515323E+04 -0.37341462502E+02  0.13565100424E+04  0.92194790586E+02 0.  0.
         13    1    3    3    0    0  0.55914493012E+03  0.10271676957E+04 -0.63140586063E+00  0.11694943038E+04  0.00000000000E+00 0. -1.
        -13    1    3    3    0    0  0.85578392946E+02  0.16218383668E+03 -0.36710056642E+02  0.18701573859E+03  0.00000000000E+00 0.  1.
         22    1    1    2    0    0 -0.64472332307E+03 -0.11893515323E+04 -0.24941839394E+04  0.28374599124E+04  0.00000000000E+00 0.  1.
<mgrwt>
<rscale>  0 0.33437648E+04</rscale>
<asrwt>0</asrwt>
<pdfrwt beam="1">  1        2 0.12788035E+00 0.33437648E+04</pdfrwt>
<pdfrwt beam="2">  1       -2 0.51734579E+00 0.33437648E+04</pdfrwt>
<totfact> 0.35165371E-02</totfact>
</mgrwt>
</event>
<event>
 6    1  0.9364335E-007  0.1799300E+04  0.7818608E-02  0.8706672E-01
          1   -1    0    0  501    0  0.00000000000E+00  0.00000000000E+00  0.77677851904E+03  0.77677851904E+03  0.00000000000E+00 0. -1.
         -1   -1    0    0    0  501 -0.00000000000E+00 -0.00000000000E+00 -0.10419576480E+04  0.10419576480E+04  0.00000000000E+00 0.  1.
         23    2    1    2    0    0 -0.63981685242E+03 -0.48032103445E+03 -0.54350444429E+03  0.97165949874E+03  0.93011825840E+02 0.  0.
         11    1    3    3    0    0 -0.47985497339E+03 -0.36859535035E+03 -0.36156351863E+03  0.70487694372E+03  0.00000000000E+00 0. -1.
        -11    1    3    3    0    0 -0.15996187904E+03 -0.11172568410E+03 -0.18194092566E+03  0.26678255502E+03  0.00000000000E+00 0.  1.
         22    1    1    2    0    0  0.63981685242E+03  0.48032103445E+03  0.27832531534E+03  0.84707666828E+03  0.00000000000E+00 0. -1.
<mgrwt>
<rscale>  0 0.17993002E+04</rscale>
<asrwt>0</asrwt>
<pdfrwt beam="1">  1        1 0.11950439E+00 0.17993002E+04</pdfrwt>
<pdfrwt beam="2">  1       -1 0.16030118E+00 0.17993002E+04</pdfrwt>
<totfact> 0.63578903E+00</totfact>
</mgrwt>
</event>
<event>
 6    1  0.9364915E-007  0.3105996E+04  0.7818608E-02  0.8214094E-01
         -2   -1    0    0    0  501 -0.00000000000E+00  0.00000000000E+00  0.20831076440E+04  0.20831076440E+04  0.00000000000E+00 0.  1.
          2   -1    0    0  501    0  0.00000000000E+00 -0.00000000000E+00 -0.11577910679E+04  0.11577910679E+04  0.00000000000E+00 0. -1.
         23    2    1    2    0    0 -0.14437051013E+04  0.35788028844E+03  0.92399270547E+03  0.17534967915E+04  0.92874956903E+02 0.  0.
         13    1    3    3    0    0 -0.65919162226E+03  0.11857684787E+03  0.39710806246E+03  0.77864554001E+03  0.00000000000E+00 0. -1.
        -13    1    3    3    0    0 -0.78451347906E+03  0.23930344058E+03  0.52688464301E+03  0.97485125149E+03  0.00000000000E+00 0.  1.
         22    1    1    2    0    0  0.14437051013E+04 -0.35788028844E+03  0.13238706243E+01  0.14874019205E+04  0.00000000000E+00 0. -1.
<mgrwt>
<rscale>  0 0.31059964E+04</rscale>
<asrwt>0</asrwt>
<pdfrwt beam="1">  1        2 0.17812170E+00 0.31059964E+04</pdfrwt>
<pdfrwt beam="2">  1       -2 0.32047810E+00 0.31059964E+04</pdfrwt>
<totfact> 0.40522191E-01</totfact>
</mgrwt>
</event>
<event>
 6    1  0.9364335E-007  0.1681258E+04  0.7818608E-02  0.8772126E-01
          2   -1    0    0  501    0  0.00000000000E+00  0.00000000000E+00  0.14286640298E+04  0.14286640298E+04  0.00000000000E+00 0. -1.
         -2   -1    0    0    0  501 -0.00000000000E+00 -0.00000000000E+00 -0.49462809973E+03  0.49462809973E+03  0.00000000000E+00 0.  1.
         23    2    1    2    0    0 -0.67369281888E+03 -0.99223700694E+02 -0.90580243453E+02  0.69302969409E+03  0.91531521291E+02 0.  0.
         11    1    3    3    0    0 -0.24172950984E+03  0.36632869568E+00 -0.64112989155E+01  0.24181479458E+03  0.00000000000E+00 0.  1.
        -11    1    3    3    0    0 -0.43196330904E+03 -0.99590029390E+02 -0.84168944538E+02  0.45121489951E+03  0.00000000000E+00 0. -1.
         22    1    1    2    0    0  0.67369281888E+03  0.99223700694E+02  0.10246161735E+04  0.12302624354E+04  0.00000000000E+00 0. -1.
<mgrwt>
<rscale>  0 0.16812583E+04</rscale>
<asrwt>0</asrwt>
<pdfrwt beam="1">  1        2 0.21979446E+00 0.16812583E+04</pdfrwt>
<pdfrwt beam="2">  1       -2 0.76096631E-01 0.16812583E+04</pdfrwt>
<totfact> 0.20530568E+01</totfact>
</mgrwt>
</event>
<event>
 6    1  0.9364335E-007  0.2788044E+04  0.7818608E-02  0.8306990E-01
         -1   -1    0    0    0  501 -0.00000000000E+00  0.00000000000E+00  0.73807402178E+03  0.73807402178E+03  0.00000000000E+00 0.  1.
          1   -1    0    0  501    0  0.00000000000E+00 -0.00000000000E+00 -0.26329306074E+04  0.26329306074E+04  0.00000000000E+00 0. -1.
         23    2    1    2    0    0  0.92513746732E+03  0.18983836046E+02  0.30972902619E+03  0.98009738731E+03  0.91755650882E+02 0.  0.
         11    1    3    3    0    0  0.16719240872E+03  0.25766306109E+02  0.86125080168E+02  0.18982816834E+03  0.00000000000E+00 0.  1.
        -11    1    3    3    0    0  0.75794505860E+03 -0.67824700629E+01  0.22360394602E+03  0.79026921896E+03  0.00000000000E+00 0. -1.
         22    1    1    2    0    0 -0.92513746732E+03 -0.18983836046E+02 -0.22045856118E+04  0.23909072419E+04  0.00000000000E+00 0. -1.
<mgrwt>
<rscale>  0 0.27880442E+04</rscale>
<asrwt>0</asrwt>
<pdfrwt beam="1">  1        1 0.40506624E+00 0.27880442E+04</pdfrwt>
<pdfrwt beam="2">  1       -1 0.11354985E+00 0.27880442E+04</pdfrwt>
<totfact> 0.67059809E-01</totfact>
</mgrwt>
</event>
<event>
 6    1  0.9364335E-007  0.3651321E+03  0.7818608E-02  0.1056570E+00
          1   -1    0    0  501    0  0.00000000000E+00  0.00000000000E+00  0.13585006580E+04  0.13585006580E+04  0.00000000000E+00 0. -1.
         -1   -1    0    0    0  501 -0.00000000000E+00 -0.00000000000E+00 -0.24534661472E+02  0.24534661472E+02  0.00000000000E+00 0.  1.
         23    2    1    2    0    0  0.13599479126E+03  0.31646184404E+02  0.10790477409E+04  0.10923819498E+04  0.97253446900E+02 0.  0.
         13    1    3    3    0    0  0.12512099758E+03  0.50204568412E+02  0.70865210026E+03  0.72136229588E+03  0.00000000000E+00 0. -1.
        -13    1    3    3    0    0  0.10873793678E+02 -0.18558384008E+02  0.37039564061E+03  0.37101965391E+03  0.00000000000E+00 0.  1.
         22    1    1    2    0    0 -0.13599479126E+03 -0.31646184404E+02  0.25491825571E+03  0.29065336972E+03  0.00000000000E+00 0.  1.
<mgrwt>
<rscale>  0 0.36513205E+03</rscale>
<asrwt>0</asrwt>
<pdfrwt beam="1">  1        1 0.20900004E+00 0.36513205E+03</pdfrwt>
<pdfrwt beam="2">  1       -1 0.37745644E-02 0.36513205E+03</pdfrwt>
<totfact> 0.23884139E+03</totfact>
</mgrwt>
</event>
<event>
 6    1  0.9364335E-007  0.1439514E+04  0.7818608E-02  0.8925703E-01
          2   -1    0    0  501    0  0.00000000000E+00  0.00000000000E+00  0.70984099319E+03  0.70984099319E+03  0.00000000000E+00 0. -1.
         -2   -1    0    0    0  501 -0.00000000000E+00 -0.00000000000E+00 -0.72981105028E+03  0.72981105028E+03  0.00000000000E+00 0.  1.
         23    2    1    2    0    0 -0.43462583427E+03  0.44865519434E+03 -0.35956184160E+03  0.72865719165E+03  0.10707700864E+03 0.  0.
         13    1    3    3    0    0 -0.18976295768E+03  0.14803852136E+03 -0.92406987195E+02  0.25780697275E+03  0.00000000000E+00 0.  1.
        -13    1    3    3    0    0 -0.24486287659E+03  0.30061667298E+03 -0.26715485441E+03  0.47085021890E+03  0.00000000000E+00 0. -1.
         22    1    1    2    0    0  0.43462583427E+03 -0.44865519434E+03  0.33959178451E+03  0.71099485183E+03  0.00000000000E+00 0. -1.
<mgrwt>
<rscale>  0 0.14395135E+04</rscale>
<asrwt>0</asrwt>
<pdfrwt beam="1">  1        2 0.10920631E+00 0.14395135E+04</pdfrwt>
<pdfrwt beam="2">  1       -2 0.11227862E+00 0.14395135E+04</pdfrwt>
<totfact> 0.24420691E+01</totfact>
</mgrwt>
</event>
<event>
 6    1  0.9364335E-007  0.3416126E+04  0.7818608E-02  0.8133960E-01
         -1   -1    0    0    0  501 -0.00000000000E+00  0.00000000000E+00  0.11688984583E+04  0.11688984583E+04  0.00000000000E+00 0.  1.
          1   -1    0    0  501    0  0.00000000000E+00 -0.00000000000E+00 -0.24959211432E+04  0.24959211432E+04  0.00000000000E+00 0. -1.
         23    2    1    2    0    0 -0.13048687980E+02  0.12786259845E+04  0.54894494142E+03  0.13945092237E+04  0.90888667339E+02 0.  0.
         11    1    3    3    0    0  0.31616094156E+02  0.21076982978E+03  0.90642992498E+02  0.23160235458E+03  0.00000000000E+00 0. -1.
        -11    1    3    3    0    0 -0.44664782135E+02  0.10678561547E+04  0.45830194892E+03  0.11629068691E+04  0.00000000000E+00 0.  1.
         22    1    1    2    0    0  0.13048687980E+02 -0.12786259845E+04 -0.18759676264E+04  0.22703103778E+04  0.00000000000E+00 0. -1.
<mgrwt>
<rscale>  0 0.34161255E+04</rscale>
<asrwt>0</asrwt>
<pdfrwt beam="1">  1        1 0.38398787E+00 0.34161255E+04</pdfrwt>
<pdfrwt beam="2">  1       -1 0.17983053E+00 0.34161255E+04</pdfrwt>
<totfact> 0.23375698E-01</totfact>
</mgrwt>
</event>
<event>
 6    1  0.1288989E-006  0.3492048E+04  0.7818608E-02  0.8115677E-01
          2   -1    0    0  501    0  0.00000000000E+00  0.00000000000E+00  0.28295070807E+04  0.28295070807E+04  0.00000000000E+00 0. -1.
         -2   -1    0    0    0  501 -0.00000000000E+00 -0.00000000000E+00 -0.10774314177E+04  0.10774314177E+04  0.00000000000E+00 0.  1.
         23    2    1    2    0    0  0.80750722663E+03 -0.81402278766E+03  0.23480432080E+04  0.26147007747E+04  0.93017281729E+02 0.  0.
         11    1    3    3    0    0  0.28209603907E+03 -0.34681664621E+03  0.93780133051E+03  0.10389087048E+04  0.00000000000E+00 0. -1.
        -11    1    3    3    0    0  0.52541118756E+03 -0.46720614145E+03  0.14102418775E+04  0.15757920699E+04  0.00000000000E+00 0.  1.
         22    1    1    2    0    0 -0.80750722663E+03  0.81402278766E+03 -0.59596754500E+03  0.12922377237E+04  0.00000000000E+00 0.  1.
<mgrwt>
<rscale>  0 0.34920480E+04</rscale>
<asrwt>0</asrwt>
<pdfrwt beam="1">  1        2 0.43530878E+00 0.34920480E+04</pdfrwt>
<pdfrwt beam="2">  1       -2 0.16575868E+00 0.34920480E+04</pdfrwt>
<totfact> 0.41690696E-01</totfact>
</mgrwt>
</event>
<event>
 6    1  0.9364335E-007  0.1984329E+04  0.7818608E-02  0.8613982E-01
          1   -1    0    0  501    0  0.00000000000E+00  0.00000000000E+00  0.15543781506E+04  0.15543781506E+04  0.00000000000E+00 0. -1.
         -1   -1    0    0    0  501 -0.00000000000E+00 -0.00000000000E+00 -0.63330193777E+03  0.63330193777E+03  0.00000000000E+00 0.  1.
         23    2    1    2    0    0 -0.91911576751E+02 -0.23314039179E+03  0.15174338481E+04  0.15408071415E+04  0.93161064619E+02 0.  0.
         13    1    3    3    0    0 -0.86737630869E+02 -0.17149142459E+03  0.13197482326E+04  0.13336671709E+04  0.00000000000E+00 0.  1.
        -13    1    3    3    0    0 -0.51739458815E+01 -0.61648967205E+02  0.19768561550E+03  0.20713997067E+03  0.00000000000E+00 0. -1.
         22    1    1    2    0    0  0.91911576751E+02  0.23314039179E+03 -0.59635763523E+03  0.64687294682E+03  0.00000000000E+00 0.  1.
<mgrwt>
<rscale>  0 0.19843293E+04</rscale>
<asrwt>0</asrwt>
<pdfrwt beam="1">  1        1 0.23913510E+00 0.19843293E+04</pdfrwt>
<pdfrwt beam="2">  1       -1 0.97431068E-01 0.19843293E+04</pdfrwt>
<totfact> 0.56351987E+00</totfact>
</mgrwt>
</event>
<event>
 6    1  0.9364335E-007  0.2331486E+04  0.7818608E-02  0.8465609E-01
          2   -1    0    0  501    0  0.00000000000E+00  0.00000000000E+00  0.28318463325E+04  0.28318463325E+04  0.00000000000E+00 0. -1.
         -2   -1    0    0    0  501 -0.00000000000E+00 -0.00000000000E+00 -0.47988368654E+03  0.47988368654E+03  0.00000000000E+00 0.  1.
         23    2    1    2    0    0 -0.90216653189E+03  0.52758177902E+03  0.45018238490E+03  0.11417034878E+04  0.92605019388E+02 0.  0.
         13    1    3    3    0    0 -0.40300703040E+03  0.19072605577E+03  0.16514845180E+03  0.47546304382E+03  0.00000000000E+00 0. -1.
        -13    1    3    3    0    0 -0.49915950149E+03  0.33685572324E+03  0.28503393310E+03  0.66624044400E+03  0.00000000000E+00 0.  1.
         22    1    1    2    0    0  0.90216653189E+03 -0.52758177902E+03  0.19017802610E+04  0.21700265312E+04  0.00000000000E+00 0. -1.
<mgrwt>
<rscale>  0 0.23314861E+04</rscale>
<asrwt>0</asrwt>
<pdfrwt beam="1">  1        2 0.43566866E+00 0.23314861E+04</pdfrwt>
<pdfrwt beam="2">  1       -2 0.73828261E-01 0.23314861E+04</pdfrwt>
<totfact> 0.33081747E+00</totfact>
</mgrwt>
</event>
<event>
 6    1  0.9364335E-007  0.1075797E+04  0.7818608E-02  0.9229108E-01
         -1   -1    0    0    0  501 -0.00000000000E+00  0.00000000000E+00  0.12822650139E+04  0.12822650139E+04  0.00000000000E+00 0.  1.
          1   -1    0    0  501    0  0.00000000000E+00 -0.00000000000E+00 -0.22564367480E+03  0.22564367480E+03  0.00000000000E+00 0. -1.
         23    2    1    2    0    0  0.14559823602E+03 -0.26003848272E+03  0.11535351471E+04  0.11945221143E+04  0.86144570987E+02 0.  0.
         13    1    3    3    0    0  0.97695174858E+01 -0.99307887933E+02  0.37243747365E+03  0.38557382153E+03  0.00000000000E+00 0. -1.
        -13    1    3    3    0    0  0.13582871853E+03 -0.16073059479E+03  0.78109767343E+03  0.80894829274E+03  0.00000000000E+00 0.  1.
         22    1    1    2    0    0 -0.14559823602E+03  0.26003848272E+03 -0.96913808018E+02  0.31338657440E+03  0.00000000000E+00 0. -1.
<mgrwt>
<rscale>  0 0.10757974E+04</rscale>
<asrwt>0</asrwt>
<pdfrwt beam="1">  1        1 0.34714412E-01 0.10757974E+04</pdfrwt>
<pdfrwt beam="2">  1       -1 0.19727154E+00 0.10757974E+04</pdfrwt>
<totfact> 0.19959802E+01</totfact>
</mgrwt>
</event>
<event>
 6    1  0.9364335E-007  0.4221576E+04  0.7818608E-02  0.7961281E-01
         -2   -1    0    0    0  501 -0.00000000000E+00  0.00000000000E+00  0.11534263882E+04  0.11534263882E+04  0.00000000000E+00 0.  1.
          2   -1    0    0  501    0  0.00000000000E+00 -0.00000000000E+00 -0.38627740070E+04  0.38627740070E+04  0.00000000000E+00 0. -1.
         23    2    1    2    0    0  0.79162254079E+03  0.91709195606E+03  0.69704207867E+03  0.14007869094E+04  0.92803033611E+02 0.  0.
         13    1    3    3    0    0  0.17904575239E+03  0.26745454228E+03  0.17130088457E+03  0.36460020117E+03  0.00000000000E+00 0. -1.
        -13    1    3    3    0    0  0.61257678840E+03  0.64963741378E+03  0.52574119410E+03  0.10361867082E+04  0.00000000000E+00 0.  1.
         22    1    1    2    0    0 -0.79162254079E+03 -0.91709195606E+03 -0.34063896974E+04  0.36154134859E+04  0.00000000000E+00 0. -1.
<mgrwt>
<rscale>  0 0.42215758E+04</rscale>
<asrwt>0</asrwt>
<pdfrwt beam="1">  1        2 0.59427291E+00 0.42215758E+04</pdfrwt>
<pdfrwt beam="2">  1       -2 0.17745022E+00 0.42215758E+04</pdfrwt>
<totfact> 0.64115992E-02</totfact>
</mgrwt>
</event>
<event>
 6    1  0.9364335E-007  0.1621002E+04  0.7818608E-02  0.8807749E-01
          2   -1    0    0  501    0  0.00000000000E+00  0.00000000000E+00  0.18234827941E+04  0.18234827941E+04  0.00000000000E+00 0. -1.
         -2   -1    0    0    0  501 -0.00000000000E+00 -0.00000000000E+00 -0.36025125214E+03  0.36025125214E+03  0.00000000000E+00 0.  1.
         23    2    1    2    0    0  0.37801141564E+03  0.24895704131E+03  0.16357624077E+04  0.16993384039E+04  0.84617477591E+02 0.  0.
         11    1    3    3    0    0  0.17909440518E+03  0.68516739254E+02  0.65995427768E+03  0.68724740680E+03  0.00000000000E+00 0. -1.
        -11    1    3    3    0    0  0.19891701046E+03  0.18044030205E+03  0.97580813005E+03  0.10120909971E+04  0.00000000000E+00 0.  1.
         22    1    1    2    0    0 -0.37801141564E+03 -0.24895704131E+03 -0.17253086573E+03  0.48439564243E+03  0.00000000000E+00 0.  1.
<mgrwt>
<rscale>  0 0.16210021E+04</rscale>
<asrwt>0</asrwt>
<pdfrwt beam="1">  1        2 0.28053581E+00 0.16210021E+04</pdfrwt>
<pdfrwt beam="2">  1       -2 0.55423271E-01 0.16210021E+04</pdfrwt>
<totfact> 0.24528138E+01</totfact>
</mgrwt>
</event>
<event>
 6    1  0.9364335E-007  0.2342211E+04  0.7818608E-02  0.8461461E-01
         -2   -1    0    0    0  501 -0.00000000000E+00  0.00000000000E+00  0.12982880296E+04  0.12982880296E+04  0.00000000000E+00 0.  1.
          2   -1    0    0  501    0  0.00000000000E+00 -0.00000000000E+00 -0.10563822766E+04  0.10563822766E+04  0.00000000000E+00 0. -1.
         23    2    1    2    0    0  0.73780260242E+03  0.89408439608E+03 -0.32648803639E+02  0.11634021618E+04  0.93268741621E+02 0.  0.
         11    1    3    3    0    0  0.50255790594E+03  0.56708737574E+03  0.14211305016E+02  0.75786179594E+03  0.00000000000E+00 0. -1.
        -11    1    3    3    0    0  0.23524469648E+03  0.32699702034E+03 -0.46860108655E+02  0.40554036583E+03  0.00000000000E+00 0.  1.
         22    1    1    2    0    0 -0.73780260242E+03 -0.89408439608E+03  0.27455455666E+03  0.11912681445E+04  0.00000000000E+00 0. -1.
<mgrwt>
<rscale>  0 0.23422113E+04</rscale>
<asrwt>0</asrwt>
<pdfrwt beam="1">  1        2 0.16252035E+00 0.23422113E+04</pdfrwt>
<pdfrwt beam="2">  1       -2 0.19973662E+00 0.23422113E+04</pdfrwt>
<totfact> 0.27976478E+00</totfact>
</mgrwt>
</event>
<event>
 6    1  0.9364335E-007  0.1443194E+04  0.7818608E-02  0.8923132E-01
          1   -1    0    0  501    0  0.00000000000E+00  0.00000000000E+00  0.24548592946E+04  0.24548592946E+04  0.00000000000E+00 0. -1.
         -1   -1    0    0    0  501 -0.00000000000E+00 -0.00000000000E+00 -0.21211094679E+03  0.21211094679E+03  0.00000000000E+00 0.  1.
         23    2    1    2    0    0  0.83546372300E+02 -0.62267275689E+03  0.17711493698E+04  0.18814086877E+04  0.89594652447E+02 0.  0.
         13    1    3    3    0    0  0.97111578360E+02 -0.42233254734E+03  0.11766767482E+04  0.12539392365E+04  0.00000000000E+00 0. -1.
        -13    1    3    3    0    0 -0.13565206061E+02 -0.20034020955E+03  0.59447262159E+03  0.62746945121E+03  0.00000000000E+00 0.  1.
         22    1    1    2    0    0 -0.83546372300E+02  0.62267275689E+03  0.47159897805E+03  0.78556155366E+03  0.00000000000E+00 0.  1.
<mgrwt>
<rscale>  0 0.14431944E+04</rscale>
<asrwt>0</asrwt>
<pdfrwt beam="1">  1        1 0.37767064E+00 0.14431944E+04</pdfrwt>
<pdfrwt beam="2">  1       -1 0.32632455E-01 0.14431944E+04</pdfrwt>
<totfact> 0.12477551E+01</totfact>
</mgrwt>
</event>
<event>
 6    1  0.9364335E-007  0.4202267E+04  0.7818608E-02  0.7964941E-01
         -2   -1    0    0    0  501 -0.00000000000E+00  0.00000000000E+00  0.16277838258E+04  0.16277838258E+04  0.00000000000E+00 0.  1.
          2   -1    0    0  501    0  0.00000000000E+00 -0.00000000000E+00 -0.27121309098E+04  0.27121309098E+04  0.00000000000E+00 0. -1.
         23    2    1    2    0    0  0.77502533945E+02  0.90495546944E+03  0.14131966523E+04  0.16823452144E+04  0.90606831727E+02 0.  0.
         11    1    3    3    0    0  0.97172672255E+02  0.73480718754E+03  0.11310760283E+04  0.13523006740E+04  0.00000000000E+00 0. -1.
        -11    1    3    3    0    0 -0.19670138310E+02  0.17014828190E+03  0.28212062399E+03  0.33004454041E+03  0.00000000000E+00 0.  1.
         22    1    1    2    0    0 -0.77502533945E+02 -0.90495546944E+03 -0.24975437364E+04  0.26575695211E+04  0.00000000000E+00 0. -1.
<mgrwt>
<rscale>  0 0.42022674E+04</rscale>
<asrwt>0</asrwt>
<pdfrwt beam="1">  1        2 0.41725091E+00 0.42022674E+04</pdfrwt>
<pdfrwt beam="2">  1       -2 0.25042828E+00 0.42022674E+04</pdfrwt>
<totfact> 0.12944714E-01</totfact>
</mgrwt>
</event>
<event>
 6    1  0.9364335E-007  0.2404138E+04  0.7818608E-02  0.8437956E-01
          2   -1    0    0  501    0  0.00000000000E+00  0.00000000000E+00  0.22187403371E+04  0.22187403371E+04  0.00000000000E+00 0. -1.
         -2   -1    0    0    0  501 -0.00000000000E+00 -0.00000000000E+00 -0.65125691012E+03  0.65125691012E+03  0.00000000000E+00 0.  1.
         23    2    1    2    0    0  0.10529567933E+04 -0.18697131044E+03  0.13456037252E+03  0.10819970348E+04  0.94524124082E+02 0.  0.
         13    1    3    3    0    0  0.35208160114E+03 -0.84903516516E+02  0.84887022847E+02  0.37198906923E+03  0.00000000000E+00 0.  1.
        -13    1    3    3    0    0  0.70087519218E+03 -0.10206779393E+03  0.49673349673E+02  0.71000796561E+03  0.00000000000E+00 0. -1.
         22    1    1    2    0    0 -0.10529567933E+04  0.18697131044E+03  0.14329230545E+04  0.17880002124E+04  0.00000000000E+00 0. -1.
<mgrwt>
<rscale>  0 0.24041381E+04</rscale>
<asrwt>0</asrwt>
<pdfrwt beam="1">  1        2 0.34134466E+00 0.24041381E+04</pdfrwt>
<pdfrwt beam="2">  1       -2 0.10019337E+00 0.24041381E+04</pdfrwt>
<totfact> 0.37245590E+00</totfact>
</mgrwt>
</event>
<event>
 6    1  0.9364335E-007  0.2658218E+04  0.7818608E-02  0.8348691E-01
          1   -1    0    0  501    0  0.00000000000E+00  0.00000000000E+00  0.28800886829E+04  0.28800886829E+04  0.00000000000E+00 0. -1.
         -1   -1    0    0    0  501 -0.00000000000E+00 -0.00000000000E+00 -0.61335977473E+03  0.61335977473E+03  0.00000000000E+00 0.  1.
         23    2    1    2    0    0 -0.37556712614E+03  0.30584709715E+03  0.27590271558E+04  0.28028322996E+04  0.95104891959E+02 0.  0.
         11    1    3    3    0    0 -0.21510922127E+03  0.23352998482E+03  0.17489190781E+04  0.17775056041E+04  0.00000000000E+00 0.  1.
        -11    1    3    3    0    0 -0.16045790488E+03  0.72317112337E+02  0.10101080777E+04  0.10253266955E+04  0.00000000000E+00 0. -1.
         22    1    1    2    0    0  0.37556712614E+03 -0.30584709715E+03 -0.49229824761E+03  0.69061615799E+03  0.00000000000E+00 0.  1.
<mgrwt>
<rscale>  0 0.26582179E+04</rscale>
<asrwt>0</asrwt>
<pdfrwt beam="1">  1        1 0.44309056E+00 0.26582179E+04</pdfrwt>
<pdfrwt beam="2">  1       -1 0.94363044E-01 0.26582179E+04</pdfrwt>
<totfact> 0.69530469E-01</totfact>
</mgrwt>
</event>
<event>
 6    1  0.9364335E-007  0.1096831E+04  0.7818608E-02  0.9208286E-01
          2   -1    0    0  501    0  0.00000000000E+00  0.00000000000E+00  0.61506667237E+03  0.61506667237E+03  0.00000000000E+00 0. -1.
         -2   -1    0    0    0  501 -0.00000000000E+00 -0.00000000000E+00 -0.48898736602E+03  0.48898736602E+03  0.00000000000E+00 0.  1.
         23    2    1    2    0    0  0.66525689376E+02  0.13915840796E+03  0.59099000803E+03  0.61422479223E+03  0.64901278481E+02 0.  0.
         11    1    3    3    0    0  0.18580992475E+02  0.96460300722E+02  0.42610221664E+03  0.43727902067E+03  0.00000000000E+00 0. -1.
        -11    1    3    3    0    0  0.47944696902E+02  0.42698107233E+02  0.16488779139E+03  0.17694577156E+03  0.00000000000E+00 0.  1.
         22    1    1    2    0    0 -0.66525689376E+02 -0.13915840796E+03 -0.46491070169E+03  0.48982924616E+03  0.00000000000E+00 0.  1.
<mgrwt>
<rscale>  0 0.10968315E+04</rscale>
<asrwt>0</asrwt>
<pdfrwt beam="1">  1        2 0.94625641E-01 0.10968315E+04</pdfrwt>
<pdfrwt beam="2">  1       -2 0.75228826E-01 0.10968315E+04</pdfrwt>
<totfact> 0.75843698E+01</totfact>
</mgrwt>
</event>
<event>
 6    1  0.9364335E-007  0.7609692E+03  0.7818608E-02  0.9618297E-01
          2   -1    0    0  501    0  0.00000000000E+00  0.00000000000E+00  0.36248628970E+04  0.36248628970E+04  0.00000000000E+00 0. -1.
         -2   -1    0    0    0  501 -0.00000000000E+00 -0.00000000000E+00 -0.39937654828E+02  0.39937654828E+02  0.00000000000E+00 0.  1.
         23    2    1    2    0    0 -0.21782410809E+03 -0.98303732150E+02  0.32102100230E+04  0.32203655607E+04  0.90526169068E+02 0.  0.
         13    1    3    3    0    0 -0.19544364960E+03 -0.58356399683E+02  0.28438185236E+04  0.28511238985E+04  0.00000000000E+00 0. -1.
        -13    1    3    3    0    0 -0.22380458489E+02 -0.39947332467E+02  0.36639149937E+03  0.36924166220E+03  0.00000000000E+00 0.  1.
         22    1    1    2    0    0  0.21782410809E+03  0.98303732150E+02  0.37471521923E+03  0.44443499113E+03  0.00000000000E+00 0.  1.
<mgrwt>
<rscale>  0 0.76096918E+03</rscale>
<asrwt>0</asrwt>
<pdfrwt beam="1">  1        2 0.55767096E+00 0.76096918E+03</pdfrwt>
<pdfrwt beam="2">  1       -2 0.61442574E-02 0.76096918E+03</pdfrwt>
<totfact> 0.10705978E+02</totfact>
</mgrwt>
</event>
<event>
 6    1  0.9364335E-007  0.2347049E+04  0.7818608E-02  0.8459598E-01
         -1   -1    0    0    0  501 -0.00000000000E+00  0.00000000000E+00  0.96459420794E+03  0.96459420794E+03  0.00000000000E+00 0.  1.
          1   -1    0    0  501    0  0.00000000000E+00 -0.00000000000E+00 -0.14277086288E+04  0.14277086288E+04  0.00000000000E+00 0. -1.
         23    2    1    2    0    0  0.24020621621E+03 -0.11405890514E+04 -0.35421599872E+03  0.12216187304E+04  0.90779612816E+02 0.  0.
         11    1    3    3    0    0  0.90882402457E+02 -0.60746902734E+03 -0.15784706281E+03  0.63418761064E+03  0.00000000000E+00 0. -1.
        -11    1    3    3    0    0  0.14932381375E+03 -0.53312002409E+03 -0.19636893591E+03  0.58743111973E+03  0.00000000000E+00 0.  1.
         22    1    1    2    0    0 -0.24020621621E+03  0.11405890514E+04 -0.10889842214E+03  0.11706841064E+04  0.00000000000E+00 0. -1.
<mgrwt>
<rscale>  0 0.23470488E+04</rscale>
<asrwt>0</asrwt>
<pdfrwt beam="1">  1        1 0.21964748E+00 0.23470488E+04</pdfrwt>
<pdfrwt beam="2">  1       -1 0.14839911E+00 0.23470488E+04</pdfrwt>
<totfact> 0.23752290E+00</totfact>
</mgrwt>
</event>
<event>
 6    1  0.9364335E-007  0.1331582E+04  0.7818608E-02  0.9004888E-01
          2   -1    0    0  501    0  0.00000000000E+00  0.00000000000E+00  0.41000704550E+03  0.41000704550E+03  0.00000000000E+00 0. -1.
         -2   -1    0    0    0  501 -0.00000000000E+00 -0.00000000000E+00 -0.10811470254E+04  0.10811470254E+04  0.00000000000E+00 0.  1.
         23    2    1    2    0    0 -0.15822712085E+02 -0.30647214673E+03  0.32049508637E+03  0.45311956300E+03  0.91786181162E+02 0.  0.
         11    1    3    3    0    0  0.31602269956E+02 -0.20463629913E+03  0.22383369920E+03  0.30492006048E+03  0.00000000000E+00 0.  1.
        -11    1    3    3    0    0 -0.47424982041E+02 -0.10183584760E+03  0.96661387164E+02  0.14819950252E+03  0.00000000000E+00 0. -1.
         22    1    1    2    0    0  0.15822712085E+02  0.30647214673E+03 -0.99163506622E+03  0.10380345079E+04  0.00000000000E+00 0.  1.
<mgrwt>
<rscale>  0 0.13315824E+04</rscale>
<asrwt>0</asrwt>
<pdfrwt beam="1">  1        2 0.63078009E-01 0.13315824E+04</pdfrwt>
<pdfrwt beam="2">  1       -2 0.16633031E+00 0.13315824E+04</pdfrwt>
<totfact> 0.17105397E+01</totfact>
</mgrwt>
</event>
<event>
 6    1  0.9364335E-007  0.3798425E+04  0.7818608E-02  0.8046493E-01
          1   -1    0    0  501    0  0.00000000000E+00  0.00000000000E+00  0.26555326759E+04  0.26555326759E+04  0.00000000000E+00 0. -1.
         -1   -1    0    0    0  501 -0.00000000000E+00 -0.00000000000E+00 -0.13582992519E+04  0.13582992519E+04  0.00000000000E+00 0.  1.
         23    2    1    2    0    0 -0.14883584551E+04  0.44867278543E+03  0.17998830812E+04  0.23800709793E+04  0.92954835140E+02 0.  0.
         11    1    3    3    0    0 -0.10766320010E+04  0.28786951131E+03  0.13232691902E+04  0.17300423899E+04  0.00000000000E+00 0.  1.
        -11    1    3    3    0    0 -0.41172645411E+03  0.16080327412E+03  0.47661389099E+03  0.65002858942E+03  0.00000000000E+00 0. -1.
         22    1    1    2    0    0  0.14883584551E+04 -0.44867278543E+03 -0.50264965715E+03  0.16337609486E+04  0.00000000000E+00 0. -1.
<mgrwt>
<rscale>  0 0.37984250E+04</rscale>
<asrwt>0</asrwt>
<pdfrwt beam="1">  1        1 0.40854349E+00 0.37984250E+04</pdfrwt>
<pdfrwt beam="2">  1       -1 0.20896912E+00 0.37984250E+04</pdfrwt>
<totfact> 0.10964968E-01</totfact>
</mgrwt>
</event>
<event>
 6    1  0.9364335E-007  0.4114616E+04  0.7818608E-02  0.7981816E-01
          1   -1    0    0  501    0  0.00000000000E+00  0.00000000000E+00  0.29406160761E+04  0.29406160761E+04  0.00000000000E+00 0. -1.
         -1   -1    0    0    0  501 -0.00000000000E+00 -0.00000000000E+00 -0.14393299794E+04  0.14393299794E+04  0.00000000000E+00 0.  1.
         23    2    1    2    0    0 -0.56889470219E+02  0.20234634601E+04  0.36628604569E+03  0.20591992141E+04  0.92169137846E+02 0.  0.
         13    1    3    3    0    0 -0.34045056313E+02  0.41481934747E+03  0.45161848264E+02  0.41865707856E+03  0.00000000000E+00 0.  1.
        -13    1    3    3    0    0 -0.22844413906E+02  0.16086441127E+04  0.32112419743E+03  0.16405421356E+04  0.00000000000E+00 0. -1.
         22    1    1    2    0    0  0.56889470219E+02 -0.20234634601E+04  0.11350000510E+04  0.23207468414E+04  0.00000000000E+00 0.  1.
<mgrwt>
<rscale>  0 0.41146163E+04</rscale>
<asrwt>0</asrwt>
<pdfrwt beam="1">  1        1 0.45240247E+00 0.41146163E+04</pdfrwt>
<pdfrwt beam="2">  1       -1 0.22143538E+00 0.41146163E+04</pdfrwt>
<totfact> 0.55087030E-02</totfact>
</mgrwt>
</event>
<event>
 6    1  0.9364335E-007  0.1764573E+04  0.7818608E-02  0.8725370E-01
          2   -1    0    0  501    0  0.00000000000E+00  0.00000000000E+00  0.29093069215E+04  0.29093069215E+04  0.00000000000E+00 0. -1.
         -2   -1    0    0    0  501 -0.00000000000E+00 -0.00000000000E+00 -0.26756511756E+03  0.26756511756E+03  0.00000000000E+00 0.  1.
         23    2    1    2    0    0  0.83335862594E+03 -0.26469335249E+03  0.15009918460E+04  0.17395621780E+04  0.92470962576E+02 0.  0.
         13    1    3    3    0    0  0.35255053572E+03 -0.10995759948E+03  0.54493445540E+03  0.65828270113E+03  0.00000000000E+00 0. -1.
        -13    1    3    3    0    0  0.48080809022E+03 -0.15473575301E+03  0.95605739065E+03  0.10812794769E+04  0.00000000000E+00 0.  1.
         22    1    1    2    0    0 -0.83335862594E+03  0.26469335249E+03  0.11407499579E+04  0.14373098611E+04  0.00000000000E+00 0. -1.
<mgrwt>
<rscale>  0 0.17645725E+04</rscale>
<asrwt>0</asrwt>
<pdfrwt beam="1">  1        2 0.44758566E+00 0.17645725E+04</pdfrwt>
<pdfrwt beam="2">  1       -2 0.41163866E-01 0.17645725E+04</pdfrwt>
<totfact> 0.10530341E+01</totfact>
</mgrwt>
</event>
<event>
 6    1  0.9364335E-007  0.1013827E+04  0.7818608E-02  0.9293508E-01
          2   -1    0    0  501    0  0.00000000000E+00  0.00000000000E+00  0.72385977721E+03  0.72385977721E+03  0.00000000000E+00 0. -1.
         -2   -1    0    0    0  501 -0.00000000000E+00 -0.00000000000E+00 -0.35498758087E+03  0.35498758087E+03  0.00000000000E+00 0.  1.
         23    2    1    2    0    0 -0.27698933936E+03 -0.12046831774E+03  0.61363075910E+03  0.69007690685E+03  0.91802609771E+02 0.  0.
         13    1    3    3    0    0 -0.89490890778E+02 -0.43270365021E+02  0.11626164989E+03  0.15296311731E+03  0.00000000000E+00 0.  1.
        -13    1    3    3    0    0 -0.18749844858E+03 -0.77197952722E+02  0.49736910921E+03  0.53711378954E+03  0.00000000000E+00 0. -1.
         22    1    1    2    0    0  0.27698933936E+03  0.12046831774E+03 -0.24475856276E+03  0.38877045122E+03  0.00000000000E+00 0.  1.
<mgrwt>
<rscale>  0 0.10138269E+04</rscale>
<asrwt>0</asrwt>
<pdfrwt beam="1">  1        2 0.11136304E+00 0.10138269E+04</pdfrwt>
<pdfrwt beam="2">  1       -2 0.54613474E-01 0.10138269E+04</pdfrwt>
<totfact> 0.12360355E+02</totfact>
</mgrwt>
</event>
<event>
 6    1  0.9364335E-007  0.8655290E+03  0.7818608E-02  0.9469728E-01
          1   -1    0    0  501    0  0.00000000000E+00  0.00000000000E+00  0.39664158051E+03  0.39664158051E+03  0.00000000000E+00 0. -1.
         -1   -1    0    0    0  501 -0.00000000000E+00 -0.00000000000E+00 -0.47217718807E+03  0.47217718807E+03  0.00000000000E+00 0.  1.
         23    2    1    2    0    0 -0.33260281394E+02 -0.22369184284E+03 -0.40281304274E+03  0.47100624182E+03  0.91892576183E+02 0.  0.
         13    1    3    3    0    0 -0.58659898814E+02 -0.16036600494E+03 -0.32776876810E+03  0.36958166163E+03  0.00000000000E+00 0. -1.
        -13    1    3    3    0    0  0.25399617420E+02 -0.63325837897E+02 -0.75044274649E+02  0.10142458020E+03  0.00000000000E+00 0.  1.
         22    1    1    2    0    0  0.33260281394E+02  0.22369184284E+03  0.32727743519E+03  0.39781252677E+03  0.00000000000E+00 0. -1.
<mgrwt>
<rscale>  0 0.86552899E+03</rscale>
<asrwt>0</asrwt>
<pdfrwt beam="1">  1        1 0.61021782E-01 0.86552899E+03</pdfrwt>
<pdfrwt beam="2">  1       -1 0.72642644E-01 0.86552899E+03</pdfrwt>
<totfact> 0.11711335E+02</totfact>
</mgrwt>
</event>
<event>
 6    1  0.9364335E-007  0.1206783E+04  0.7818608E-02  0.9106940E-01
          1   -1    0    0  501    0  0.00000000000E+00  0.00000000000E+00  0.11003240174E+04  0.11003240174E+04  0.00000000000E+00 0. -1.
         -1   -1    0    0    0  501 -0.00000000000E+00 -0.00000000000E+00 -0.33088568071E+03  0.33088568071E+03  0.00000000000E+00 0.  1.
         23    2    1    2    0    0  0.27444946477E+03 -0.17330792408E+02 -0.24319221260E+03  0.38190350142E+03  0.10528517014E+03 0.  0.
         11    1    3    3    0    0  0.13205129797E+03  0.37426299410E+02 -0.14911420328E+03  0.20266553432E+03  0.00000000000E+00 0. -1.
        -11    1    3    3    0    0  0.14239816680E+03 -0.54757091818E+02 -0.94078009322E+02  0.17923796710E+03  0.00000000000E+00 0.  1.
         22    1    1    2    0    0 -0.27444946477E+03  0.17330792408E+02  0.10126305492E+04  0.10493061967E+04  0.00000000000E+00 0. -1.
<mgrwt>
<rscale>  0 0.12067833E+04</rscale>
<asrwt>0</asrwt>
<pdfrwt beam="1">  1        1 0.16928062E+00 0.12067833E+04</pdfrwt>
<pdfrwt beam="2">  1       -1 0.50905490E-01 0.12067833E+04</pdfrwt>
<totfact> 0.48606726E+01</totfact>
</mgrwt>
</event>
<event>
 6    1  0.9364335E-007  0.7768283E+03  0.7818608E-02  0.9594176E-01
         -1   -1    0    0    0  501 -0.00000000000E+00  0.00000000000E+00  0.16010274310E+03  0.16010274310E+03  0.00000000000E+00 0.  1.
          1   -1    0    0  501    0  0.00000000000E+00 -0.00000000000E+00 -0.94230461527E+03  0.94230461527E+03  0.00000000000E+00 0. -1.
         23    2    1    2    0    0 -0.21420649550E+03  0.84608291219E+02  0.36757700890E+02  0.25167957114E+03  0.94596470862E+02 0.  0.
         11    1    3    3    0    0 -0.13093182481E+03  0.55878928778E+02  0.68582086883E+02  0.15801613864E+03  0.00000000000E+00 0. -1.
        -11    1    3    3    0    0 -0.83274670688E+02  0.28729362441E+02 -0.31824385993E+02  0.93663432503E+02  0.00000000000E+00 0.  1.
         22    1    1    2    0    0  0.21420649550E+03 -0.84608291219E+02 -0.81895957306E+03  0.85072778722E+03  0.00000000000E+00 0. -1.
<mgrwt>
<rscale>  0 0.77682830E+03</rscale>
<asrwt>0</asrwt>
<pdfrwt beam="1">  1        1 0.14496994E+00 0.77682830E+03</pdfrwt>
<pdfrwt beam="2">  1       -1 0.24631191E-01 0.77682830E+03</pdfrwt>
<totfact> 0.24405270E+02</totfact>
</mgrwt>
</event>
<event>
 6    1  0.9364335E-007  0.2124173E+04  0.7818608E-02  0.8550669E-01
          1   -1    0    0  501    0  0.00000000000E+00  0.00000000000E+00  0.84543642721E+03  0.84543642721E+03  0.00000000000E+00 0. -1.
         -1   -1    0    0    0  501 -0.00000000000E+00 -0.00000000000E+00 -0.13342543494E+04  0.13342543494E+04  0.00000000000E+00 0.  1.
         23    2    1    2    0    0 -0.60459590894E+03  0.85633143893E+03 -0.40733362269E+03  0.11282729541E+04  0.90771318633E+02 0.  0.
         11    1    3    3    0    0 -0.29943560853E+03  0.50058861459E+03 -0.21569724103E+03  0.62191313260E+03  0.00000000000E+00 0. -1.
        -11    1    3    3    0    0 -0.30516030041E+03  0.35574282435E+03 -0.19163638166E+03  0.50635982146E+03  0.00000000000E+00 0.  1.
         22    1    1    2    0    0  0.60459590894E+03 -0.85633143893E+03 -0.81484299451E+02  0.10514178225E+04  0.00000000000E+00 0. -1.
<mgrwt>
<rscale>  0 0.21241725E+04</rscale>
<asrwt>0</asrwt>
<pdfrwt beam="1">  1        1 0.13006714E+00 0.21241725E+04</pdfrwt>
<pdfrwt beam="2">  1       -1 0.20526990E+00 0.21241725E+04</pdfrwt>
<totfact> 0.25675366E+00</totfact>
</mgrwt>
</event>
<event>
 6    1  0.9364335E-007  0.9029035E+03  0.7818608E-02  0.9421959E-01
         -2   -1    0    0    0  501 -0.00000000000E+00  0.00000000000E+00  0.25479368689E+03  0.25479368689E+03  0.00000000000E+00 0.  1.
          2   -1    0    0  501    0  0.00000000000E+00 -0.00000000000E+00 -0.79989695276E+03  0.79989695276E+03  0.00000000000E+00 0. -1.
         23    2    1    2    0    0 -0.37936782134E+03  0.17668390407E+03 -0.45847823138E+03  0.62732540658E+03  0.90541323488E+02 0.  0.
         13    1    3    3    0    0 -0.18623851915E+03  0.12892564088E+03 -0.27912732376E+03  0.35946998451E+03  0.00000000000E+00 0. -1.
        -13    1    3    3    0    0 -0.19312930219E+03  0.47758263195E+02 -0.17935090762E+03  0.26785542207E+03  0.00000000000E+00 0.  1.
         22    1    1    2    0    0  0.37936782134E+03 -0.17668390407E+03 -0.86625034488E+02  0.42736523306E+03  0.00000000000E+00 0.  1.
<mgrwt>
<rscale>  0 0.90290352E+03</rscale>
<asrwt>0</asrwt>
<pdfrwt beam="1">  1        2 0.12306107E+00 0.90290352E+03</pdfrwt>
<pdfrwt beam="2">  1       -2 0.39199029E-01 0.90290352E+03</pdfrwt>
<totfact> 0.21241963E+02</totfact>
</mgrwt>
</event>
<event>
 6    1  0.9364335E-007  0.3065347E+04  0.7818608E-02  0.8225313E-01
          2   -1    0    0  501    0  0.00000000000E+00  0.00000000000E+00  0.13256337377E+04  0.13256337377E+04  0.00000000000E+00 0. -1.
         -2   -1    0    0    0  501 -0.00000000000E+00 -0.00000000000E+00 -0.17720489776E+04  0.17720489776E+04  0.00000000000E+00 0.  1.
         23    2    1    2    0    0  0.83176516090E+03 -0.12116833211E+04  0.21105716044E+03  0.14876269055E+04  0.92081114377E+02 0.  0.
         13    1    3    3    0    0  0.16862953819E+03 -0.20904396010E+03  0.67951956338E+02  0.27704289699E+03  0.00000000000E+00 0. -1.
        -13    1    3    3    0    0  0.66313562271E+03 -0.10026393610E+04  0.14310520410E+03  0.12105840085E+04  0.00000000000E+00 0.  1.
         22    1    1    2    0    0 -0.83176516090E+03  0.12116833211E+04 -0.65747240040E+03  0.16100558098E+04  0.00000000000E+00 0.  1.
<mgrwt>
<rscale>  0 0.30653469E+04</rscale>
<asrwt>0</asrwt>
<pdfrwt beam="1">  1        2 0.20394365E+00 0.30653469E+04</pdfrwt>
<pdfrwt beam="2">  1       -2 0.27262292E+00 0.30653469E+04</pdfrwt>
<totfact> 0.63526001E-01</totfact>
</mgrwt>
</event>
<event>
 6    1  0.9364335E-007  0.2171147E+04  0.7818608E-02  0.8530534E-01
         -2   -1    0    0    0  501 -0.00000000000E+00  0.00000000000E+00  0.18171404280E+04  0.18171404280E+04  0.00000000000E+00 0.  1.
          2   -1    0    0  501    0  0.00000000000E+00 -0.00000000000E+00 -0.64852975617E+03  0.64852975617E+03  0.00000000000E+00 0. -1.
         23    2    1    2    0    0 -0.19526302034E+03  0.99169032519E+03  0.10250442861E+04  0.14447937688E+04  0.12302803662E+03 0.  0.
         11    1    3    3    0    0 -0.17826628613E+03  0.75088541631E+03  0.71693874049E+03  0.10533797676E+04  0.00000000000E+00 0. -1.
        -11    1    3    3    0    0 -0.16996734214E+02  0.24080490888E+03  0.30810554561E+03  0.39141400122E+03  0.00000000000E+00 0.  1.
         22    1    1    2    0    0  0.19526302034E+03 -0.99169032519E+03  0.14356638568E+03  0.10208764153E+04  0.00000000000E+00 0.  1.
<mgrwt>
<rscale>  0 0.21711468E+04</rscale>
<asrwt>0</asrwt>
<pdfrwt beam="1">  1        2 0.99773809E-01 0.21711468E+04</pdfrwt>
<pdfrwt beam="2">  1       -2 0.27956006E+00 0.21711468E+04</pdfrwt>
<totfact> 0.17508743E+00</totfact>
</mgrwt>
</event>
<event>
 6    1  0.9364335E-007  0.2778988E+04  0.7818608E-02  0.8309821E-01
          2   -1    0    0  501    0  0.00000000000E+00  0.00000000000E+00  0.10357932460E+04  0.10357932460E+04  0.00000000000E+00 0. -1.
         -2   -1    0    0    0  501 -0.00000000000E+00 -0.00000000000E+00 -0.18639761945E+04  0.18639761945E+04  0.00000000000E+00 0.  1.
         23    2    1    2    0    0 -0.35975817946E+03  0.17388108654E+03  0.97260753933E+03  0.10551808791E+04  0.88208175068E+02 0.  0.
         11    1    3    3    0    0 -0.19489580405E+03  0.48008154783E+02  0.51618173482E+03  0.55383457885E+03  0.00000000000E+00 0.  1.
        -11    1    3    3    0    0 -0.16486237541E+03  0.12587293176E+03  0.45642580451E+03  0.50134630027E+03  0.00000000000E+00 0. -1.
         22    1    1    2    0    0  0.35975817946E+03 -0.17388108654E+03 -0.18007904878E+04  0.18445885614E+04  0.00000000000E+00 0.  1.
<mgrwt>
<rscale>  0 0.27789883E+04</rscale>
<asrwt>0</asrwt>
<pdfrwt beam="1">  1        2 0.15935281E+00 0.27789883E+04</pdfrwt>
<pdfrwt beam="2">  1       -2 0.28676557E+00 0.27789883E+04</pdfrwt>
<totfact> 0.79762718E-01</totfact>
</mgrwt>
</event>
<event>
 6    1  0.9364335E-007  0.1485212E+04  0.7818608E-02  0.8894347E-01
          2   -1    0    0  501    0  0.00000000000E+00  0.00000000000E+00  0.13133012189E+04  0.13133012189E+04  0.00000000000E+00 0. -1.
         -2   -1    0    0    0  501 -0.00000000000E+00 -0.00000000000E+00 -0.41990655279E+03  0.41990655279E+03  0.00000000000E+00 0.  1.
         23    2    1    2    0    0  0.11076079953E+03  0.45907467389E+03 -0.21581404526E+03  0.52765334477E+03  0.93940615257E+02 0.  0.
         13    1    3    3    0    0  0.28351688467E+02  0.30316272142E+03 -0.12323995955E+03  0.32848065625E+03  0.00000000000E+00 0.  1.
        -13    1    3    3    0    0  0.82409111058E+02  0.15591195247E+03 -0.92574085702E+02  0.19917268852E+03  0.00000000000E+00 0. -1.
         22    1    1    2    0    0 -0.11076079953E+03 -0.45907467389E+03  0.11092087113E+04  0.12055544269E+04  0.00000000000E+00 0. -1.
<mgrwt>
<rscale>  0 0.14852122E+04</rscale>
<asrwt>0</asrwt>
<pdfrwt beam="1">  1        2 0.20204634E+00 0.14852122E+04</pdfrwt>
<pdfrwt beam="2">  1       -2 0.64601009E-01 0.14852122E+04</pdfrwt>
<totfact> 0.34747344E+01</totfact>
</mgrwt>
</event>
<event>
 6    1  0.9364335E-007  0.1666559E+04  0.7818608E-02  0.8780670E-01
         -1   -1    0    0    0  501 -0.00000000000E+00  0.00000000000E+00  0.65833384004E+03  0.65833384004E+03  0.00000000000E+00 0.  1.
          1   -1    0    0  501    0  0.00000000000E+00 -0.00000000000E+00 -0.10547153326E+04  0.10547153326E+04  0.00000000000E+00 0. -1.
         23    2    1    2    0    0  0.39353388205E+03  0.27415553173E+03  0.49853083864E+03  0.69771757535E+03  0.90811045469E+02 0.  0.
         13    1    3    3    0    0  0.80458498941E+02  0.30186908875E+02  0.13167710618E+03  0.15723765393E+03  0.00000000000E+00 0.  1.
        -13    1    3    3    0    0  0.31307538311E+03  0.24396862285E+03  0.36685373246E+03  0.54047992143E+03  0.00000000000E+00 0. -1.
         22    1    1    2    0    0 -0.39353388205E+03 -0.27415553173E+03 -0.89491233121E+03  0.10153315973E+04  0.00000000000E+00 0. -1.
<mgrwt>
<rscale>  0 0.16665591E+04</rscale>
<asrwt>0</asrwt>
<pdfrwt beam="1">  1        1 0.16226390E+00 0.16665591E+04</pdfrwt>
<pdfrwt beam="2">  1       -1 0.10128213E+00 0.16665591E+04</pdfrwt>
<totfact> 0.12124825E+01</totfact>
</mgrwt>
</event>
<event>
 6    1  0.9364335E-007  0.5330082E+04  0.7818608E-02  0.7779513E-01
         -1   -1    0    0    0  501 -0.00000000000E+00  0.00000000000E+00  0.26698717918E+04  0.26698717918E+04  0.00000000000E+00 0.  1.
          1   -1    0    0  501    0  0.00000000000E+00 -0.00000000000E+00 -0.26602193823E+04  0.26602193823E+04  0.00000000000E+00 0. -1.
         23    2    1    2    0    0 -0.22217696034E+04 -0.10659969028E+04 -0.10079212665E+04  0.26639955731E+04  0.91419729368E+02 0.  0.
         13    1    3    3    0    0 -0.89695431860E+03 -0.47046180755E+03 -0.44302400532E+03  0.11055006247E+04  0.00000000000E+00 0. -1.
        -13    1    3    3    0    0 -0.13248152848E+04 -0.59553509523E+03 -0.56489726117E+03  0.15584949484E+04  0.00000000000E+00 0.  1.
         22    1    1    2    0    0  0.22217696034E+04  0.10659969028E+04  0.10175736761E+04  0.26660956010E+04  0.00000000000E+00 0.  1.
<mgrwt>
<rscale>  0 0.53300824E+04</rscale>
<asrwt>0</asrwt>
<pdfrwt beam="1">  1        1 0.40926452E+00 0.53300824E+04</pdfrwt>
<pdfrwt beam="2">  1       -1 0.41074951E+00 0.53300824E+04</pdfrwt>
<totfact> 0.44504642E-03</totfact>
</mgrwt>
</event>
<event>
 6    1  0.9364335E-007  0.2257757E+04  0.7818608E-02  0.8494766E-01
          2   -1    0    0  501    0  0.00000000000E+00  0.00000000000E+00  0.30085292120E+04  0.30085292120E+04  0.00000000000E+00 0. -1.
         -2   -1    0    0    0  501 -0.00000000000E+00 -0.00000000000E+00 -0.42358466329E+03  0.42358466329E+03  0.00000000000E+00 0.  1.
         23    2    1    2    0    0  0.87725976320E+03 -0.64232247125E+03  0.84369187347E+03  0.13792807773E+04  0.91851162230E+02 0.  0.
         13    1    3    3    0    0  0.48162524118E+03 -0.37256136219E+03  0.41802993268E+03  0.73858910509E+03  0.00000000000E+00 0.  1.
        -13    1    3    3    0    0  0.39563452202E+03 -0.26976110907E+03  0.42566194079E+03  0.64069167219E+03  0.00000000000E+00 0. -1.
         22    1    1    2    0    0 -0.87725976320E+03  0.64232247125E+03  0.17412526752E+04  0.20528330980E+04  0.00000000000E+00 0. -1.
<mgrwt>
<rscale>  0 0.22577571E+04</rscale>
<asrwt>0</asrwt>
<pdfrwt beam="1">  1        2 0.46285063E+00 0.22577571E+04</pdfrwt>
<pdfrwt beam="2">  1       -2 0.65166873E-01 0.22577571E+04</pdfrwt>
<totfact> 0.34003118E+00</totfact>
</mgrwt>
</event>
<event>
 6    1  0.9364335E-007  0.1438922E+04  0.7818608E-02  0.8926117E-01
          2   -1    0    0  501    0  0.00000000000E+00  0.00000000000E+00  0.65737990159E+03  0.65737990159E+03  0.00000000000E+00 0. -1.
         -2   -1    0    0    0  501 -0.00000000000E+00 -0.00000000000E+00 -0.78740504734E+03  0.78740504734E+03  0.00000000000E+00 0.  1.
         23    2    1    2    0    0 -0.47384583418E+03  0.36926465390E+03 -0.45701343492E+03  0.76082032965E+03  0.95394104254E+02 0.  0.
         13    1    3    3    0    0 -0.27415055884E+03  0.16535848666E+03 -0.27725522457E+03  0.42352380993E+03  0.00000000000E+00 0. -1.
        -13    1    3    3    0    0 -0.19969527534E+03  0.20390616724E+03 -0.17975821034E+03  0.33729651972E+03  0.00000000000E+00 0.  1.
         22    1    1    2    0    0  0.47384583418E+03 -0.36926465390E+03  0.32698828916E+03  0.68396461929E+03  0.00000000000E+00 0. -1.
<mgrwt>
<rscale>  0 0.14389222E+04</rscale>
<asrwt>0</asrwt>
<pdfrwt beam="1">  1        2 0.10113537E+00 0.14389222E+04</pdfrwt>
<pdfrwt beam="2">  1       -2 0.12113924E+00 0.14389222E+04</pdfrwt>
<totfact> 0.22314196E+01</totfact>
</mgrwt>
</event>
<event>
 6    1  0.9364335E-007  0.2081616E+04  0.7818608E-02  0.8569385E-01
          1   -1    0    0  501    0  0.00000000000E+00  0.00000000000E+00  0.18670282357E+04  0.18670282357E+04  0.00000000000E+00 0. -1.
         -1   -1    0    0    0  501 -0.00000000000E+00 -0.00000000000E+00 -0.58021660286E+03  0.58021660286E+03  0.00000000000E+00 0.  1.
         23    2    1    2    0    0  0.91890379182E+03 -0.24304248549E+03  0.11381757713E+04  0.14851915928E+04  0.83043077148E+02 0.  0.
         13    1    3    3    0    0  0.49611470735E+03 -0.14748570881E+03  0.55955359505E+03  0.76222179376E+03  0.00000000000E+00 0. -1.
        -13    1    3    3    0    0  0.42278908448E+03 -0.95556776678E+02  0.57862217623E+03  0.72296979906E+03  0.00000000000E+00 0.  1.
         22    1    1    2    0    0 -0.91890379182E+03  0.24304248549E+03  0.14863586161E+03  0.96205324579E+03  0.00000000000E+00 0.  1.
<mgrwt>
<rscale>  0 0.20816155E+04</rscale>
<asrwt>0</asrwt>
<pdfrwt beam="1">  1        1 0.28723511E+00 0.20816155E+04</pdfrwt>
<pdfrwt beam="2">  1       -1 0.89264094E-01 0.20816155E+04</pdfrwt>
<totfact> 0.41559002E+00</totfact>
</mgrwt>
</event>
<event>
 6    1  0.9364335E-007  0.3198950E+04  0.7818608E-02  0.8189095E-01
         -2   -1    0    0    0  501 -0.00000000000E+00  0.00000000000E+00  0.11655686345E+04  0.11655686345E+04  0.00000000000E+00 0.  1.
          2   -1    0    0  501    0  0.00000000000E+00 -0.00000000000E+00 -0.21949117262E+04  0.21949117262E+04  0.00000000000E+00 0. -1.
         23    2    1    2    0    0 -0.24815031456E+03  0.14796055585E+04  0.63506791942E+02  0.15043736678E+04  0.91081460219E+02 0.  0.
         11    1    3    3    0    0 -0.11175926237E+03  0.84789832650E+03  0.69842737332E+02  0.85807908304E+03  0.00000000000E+00 0.  1.
        -11    1    3    3    0    0 -0.13639105220E+03  0.63170723202E+03 -0.63359453899E+01  0.64629458477E+03  0.00000000000E+00 0. -1.
         22    1    1    2    0    0  0.24815031456E+03 -0.14796055585E+04 -0.10928498836E+04  0.18561066929E+04  0.00000000000E+00 0. -1.
<mgrwt>
<rscale>  0 0.31989500E+04</rscale>
<asrwt>0</asrwt>
<pdfrwt beam="1">  1        2 0.33767872E+00 0.31989500E+04</pdfrwt>
<pdfrwt beam="2">  1       -2 0.17931825E+00 0.31989500E+04</pdfrwt>
<totfact> 0.80242014E-01</totfact>
</mgrwt>
</event>
<event>
 6    1  0.9364335E-007  0.2941564E+04  0.7818608E-02  0.8260617E-01
         -4   -1    0    0    0  501 -0.00000000000E+00  0.00000000000E+00  0.13835428592E+04  0.13835428592E+04  0.00000000000E+00 0.  1.
          4   -1    0    0  501    0  0.00000000000E+00 -0.00000000000E+00 -0.15635219456E+04  0.15635219456E+04  0.00000000000E+00 0. -1.
         23    2    1    2    0    0 -0.35934144591E+03 -0.12020202153E+04 -0.85620354942E+03  0.15218425775E+04  0.94559187893E+02 0.  0.
         13    1    3    3    0    0 -0.97926001669E+02 -0.21392947525E+03 -0.18141772544E+03  0.29709882748E+03  0.00000000000E+00 0. -1.
        -13    1    3    3    0    0 -0.26141544424E+03 -0.98809074004E+03 -0.67478582398E+03  0.12247437500E+04  0.00000000000E+00 0.  1.
         22    1    1    2    0    0  0.35934144591E+03  0.12020202153E+04  0.67622446305E+03  0.14252222273E+04  0.00000000000E+00 0.  1.
<mgrwt>
<rscale>  0 0.29415640E+04</rscale>
<asrwt>0</asrwt>
<pdfrwt beam="1">  1        4 0.24054184E+00 0.29415640E+04</pdfrwt>
<pdfrwt beam="2">  1       -4 0.21285275E+00 0.29415640E+04</pdfrwt>
<totfact> 0.13399017E-02</totfact>
</mgrwt>
</event>
<event>
 6    1  0.9364335E-007  0.1992417E+04  0.7818608E-02  0.8610174E-01
          2   -1    0    0  501    0  0.00000000000E+00  0.00000000000E+00  0.24437217802E+04  0.24437217802E+04  0.00000000000E+00 0. -1.
         -2   -1    0    0    0  501 -0.00000000000E+00 -0.00000000000E+00 -0.40611453136E+03  0.40611453136E+03  0.00000000000E+00 0.  1.
         23    2    1    2    0    0  0.13538043566E+02 -0.99397135258E+03  0.10067301778E+04  0.14177504678E+04  0.91369631767E+02 0.  0.
         13    1    3    3    0    0 -0.11037272004E+02 -0.59280593621E+03  0.65695059623E+03  0.88494337969E+03  0.00000000000E+00 0. -1.
        -13    1    3    3    0    0  0.24575315569E+02 -0.40116541637E+03  0.34977958160E+03  0.53280708810E+03  0.00000000000E+00 0.  1.
         22    1    1    2    0    0 -0.13538043566E+02  0.99397135258E+03  0.10308770711E+04  0.14320858438E+04  0.00000000000E+00 0. -1.
<mgrwt>
<rscale>  0 0.19924165E+04</rscale>
<asrwt>0</asrwt>
<pdfrwt beam="1">  1        2 0.37595719E+00 0.19924165E+04</pdfrwt>
<pdfrwt beam="2">  1       -2 0.62479160E-01 0.19924165E+04</pdfrwt>
<totfact> 0.82920948E+00</totfact>
</mgrwt>
</event>
<event>
 6    1  0.9364335E-007  0.2900374E+04  0.7818608E-02  0.8272766E-01
          1   -1    0    0  501    0  0.00000000000E+00  0.00000000000E+00  0.16540032037E+04  0.16540032037E+04  0.00000000000E+00 0. -1.
         -1   -1    0    0    0  501 -0.00000000000E+00 -0.00000000000E+00 -0.12714864235E+04  0.12714864235E+04  0.00000000000E+00 0.  1.
         23    2    1    2    0    0 -0.96196823916E+03 -0.92599138041E+03 -0.37569012719E+03  0.13900025240E+04  0.90116675930E+02 0.  0.
         13    1    3    3    0    0 -0.22074797509E+03 -0.16233953954E+03 -0.80767279152E+02  0.28566964834E+03  0.00000000000E+00 0. -1.
        -13    1    3    3    0    0 -0.74122026407E+03 -0.76365184087E+03 -0.29492284804E+03  0.11043328756E+04  0.00000000000E+00 0.  1.
         22    1    1    2    0    0  0.96196823916E+03  0.92599138041E+03  0.75820690744E+03  0.15354871032E+04  0.00000000000E+00 0. -1.
<mgrwt>
<rscale>  0 0.29003742E+04</rscale>
<asrwt>0</asrwt>
<pdfrwt beam="1">  1        1 0.25446203E+00 0.29003742E+04</pdfrwt>
<pdfrwt beam="2">  1       -1 0.19561330E+00 0.29003742E+04</pdfrwt>
<totfact> 0.70997462E-01</totfact>
</mgrwt>
</event>
<event>
 6    1  0.9364335E-007  0.2348148E+04  0.7818608E-02  0.8459175E-01
         -1   -1    0    0    0  501 -0.00000000000E+00  0.00000000000E+00  0.15521694285E+04  0.15521694285E+04  0.00000000000E+00 0.  1.
          1   -1    0    0  501    0  0.00000000000E+00 -0.00000000000E+00 -0.88807910672E+03  0.88807910672E+03  0.00000000000E+00 0. -1.
         23    2    1    2    0    0 -0.57270437342E+03  0.29610363004E+03  0.13500741689E+04  0.14988445318E+04  0.90371510073E+02 0.  0.
         13    1    3    3    0    0 -0.44016033653E+03  0.19394231844E+03  0.93931867361E+03  0.10553076875E+04  0.00000000000E+00 0. -1.
        -13    1    3    3    0    0 -0.13254403690E+03  0.10216131160E+03  0.41075549528E+03  0.44353684425E+03  0.00000000000E+00 0.  1.
         22    1    1    2    0    0  0.57270437342E+03 -0.29610363004E+03 -0.68598384716E+03  0.94140400341E+03  0.00000000000E+00 0. -1.
<mgrwt>
<rscale>  0 0.23481476E+04</rscale>
<asrwt>0</asrwt>
<pdfrwt beam="1">  1        1 0.13662755E+00 0.23481476E+04</pdfrwt>
<pdfrwt beam="2">  1       -1 0.23879530E+00 0.23481476E+04</pdfrwt>
<totfact> 0.13832639E+00</totfact>
</mgrwt>
</event>
<event>
 6    1  0.9364335E-007  0.1507481E+04  0.7818608E-02  0.8879494E-01
         -2   -1    0    0    0  501 -0.00000000000E+00  0.00000000000E+00  0.33940610668E+03  0.33940610668E+03  0.00000000000E+00 0.  1.
          2   -1    0    0  501    0  0.00000000000E+00 -0.00000000000E+00 -0.16738778873E+04  0.16738778873E+04  0.00000000000E+00 0. -1.
         23    2    1    2    0    0  0.73526077589E+03  0.10994808890E+03 -0.51306062910E+03  0.90539714476E+03  0.61772079499E+02 0.  0.
         11    1    3    3    0    0  0.55648617099E+03  0.10375262076E+03 -0.40992018310E+03  0.69891059609E+03  0.00000000000E+00 0.  1.
        -11    1    3    3    0    0  0.17877460489E+03  0.61954681387E+01 -0.10314044600E+03  0.20648654867E+03  0.00000000000E+00 0. -1.
         22    1    1    2    0    0 -0.73526077589E+03 -0.10994808890E+03 -0.82141115153E+03  0.11078868492E+04  0.00000000000E+00 0. -1.
<mgrwt>
<rscale>  0 0.15074805E+04</rscale>
<asrwt>0</asrwt>
<pdfrwt beam="1">  1        2 0.25751968E+00 0.15074805E+04</pdfrwt>
<pdfrwt beam="2">  1       -2 0.52216323E-01 0.15074805E+04</pdfrwt>
<totfact> 0.33898049E+01</totfact>
</mgrwt>
</event>
<event>
 6    1  0.9364335E-007  0.4487816E+04  0.7818608E-02  0.7912773E-01
          2   -1    0    0  501    0  0.00000000000E+00  0.00000000000E+00  0.29592330561E+04  0.29592330561E+04  0.00000000000E+00 0. -1.
         -2   -1    0    0    0  501 -0.00000000000E+00 -0.00000000000E+00 -0.17014957068E+04  0.17014957068E+04  0.00000000000E+00 0.  1.
         23    2    1    2    0    0 -0.66971372212E+03 -0.17589520133E+04  0.18961826091E+04  0.26732577557E+04  0.91487082298E+02 0.  0.
         13    1    3    3    0    0 -0.11356667662E+03 -0.31852569279E+03  0.29323933896E+03  0.44759950505E+03  0.00000000000E+00 0. -1.
        -13    1    3    3    0    0 -0.55614704550E+03 -0.14404263205E+04  0.16029432702E+04  0.22256582506E+04  0.00000000000E+00 0.  1.
         22    1    1    2    0    0  0.66971372212E+03  0.17589520133E+04 -0.63844525990E+03  0.19874710072E+04  0.00000000000E+00 0.  1.
<mgrwt>
<rscale>  0 0.44878157E+04</rscale>
<asrwt>0</asrwt>
<pdfrwt beam="1">  1        2 0.45526662E+00 0.44878157E+04</pdfrwt>
<pdfrwt beam="2">  1       -2 0.26176857E+00 0.44878157E+04</pdfrwt>
<totfact> 0.76172771E-02</totfact>
</mgrwt>
</event>
<event>
 6    1  0.9364335E-007  0.8348524E+03  0.7818608E-02  0.9510896E-01
         -2   -1    0    0    0  501 -0.00000000000E+00  0.00000000000E+00  0.11583659530E+03  0.11583659530E+03  0.00000000000E+00 0.  1.
          2   -1    0    0  501    0  0.00000000000E+00 -0.00000000000E+00 -0.15042277047E+04  0.15042277047E+04  0.00000000000E+00 0. -1.
         23    2    1    2    0    0 -0.80342702272E+02 -0.24132650828E+03 -0.72340903016E+02  0.27966078646E+03  0.91013822182E+02 0.  0.
         11    1    3    3    0    0  0.10242337734E+02 -0.62536799902E+02  0.77110401530E+01  0.63837426048E+02  0.00000000000E+00 0.  1.
        -11    1    3    3    0    0 -0.90585040006E+02 -0.17878970837E+03 -0.80051943169E+02  0.21582336041E+03  0.00000000000E+00 0. -1.
         22    1    1    2    0    0  0.80342702272E+02  0.24132650828E+03 -0.13160502064E+04  0.13404035136E+04  0.00000000000E+00 0.  1.
<mgrwt>
<rscale>  0 0.83485236E+03</rscale>
<asrwt>0</asrwt>
<pdfrwt beam="1">  1        2 0.23141963E+00 0.83485236E+03</pdfrwt>
<pdfrwt beam="2">  1       -2 0.17821016E-01 0.83485236E+03</pdfrwt>
<totfact> 0.33195861E+02</totfact>
</mgrwt>
</event>
<event>
 6    1  0.9364335E-007  0.1710124E+04  0.7818608E-02  0.8755611E-01
         -2   -1    0    0    0  501 -0.00000000000E+00  0.00000000000E+00  0.27740864890E+03  0.27740864890E+03  0.00000000000E+00 0.  1.
          2   -1    0    0  501    0  0.00000000000E+00 -0.00000000000E+00 -0.26355742610E+04  0.26355742610E+04  0.00000000000E+00 0. -1.
         23    2    1    2    0    0  0.69302197886E+03  0.12532785290E+03 -0.36398316897E+03  0.79809517048E+03  0.92117424770E+02 0.  0.
         11    1    3    3    0    0  0.40365938139E+03  0.61996499382E+02 -0.16087172490E+03  0.43893527312E+03  0.00000000000E+00 0.  1.
        -11    1    3    3    0    0  0.28936259748E+03  0.63331353518E+02 -0.20311144407E+03  0.35915989736E+03  0.00000000000E+00 0. -1.
         22    1    1    2    0    0 -0.69302197886E+03 -0.12532785290E+03 -0.19941824431E+04  0.21148877394E+04  0.00000000000E+00 0. -1.
<mgrwt>
<rscale>  0 0.17101241E+04</rscale>
<asrwt>0</asrwt>
<pdfrwt beam="1">  1        2 0.40547298E+00 0.17101241E+04</pdfrwt>
<pdfrwt beam="2">  1       -2 0.42678252E-01 0.17101241E+04</pdfrwt>
<totfact> 0.14382911E+01</totfact>
</mgrwt>
</event>
<event>
 6    1  0.9364335E-007  0.3243540E+04  0.7818608E-02  0.8177412E-01
         -2   -1    0    0    0  501 -0.00000000000E+00  0.00000000000E+00  0.78829341097E+03  0.78829341097E+03  0.00000000000E+00 0.  1.
          2   -1    0    0  501    0  0.00000000000E+00 -0.00000000000E+00 -0.33364951628E+04  0.33364951628E+04  0.00000000000E+00 0. -1.
         23    2    1    2    0    0  0.43398657314E+03 -0.32693591186E+03 -0.32165921187E+04  0.32634076368E+04  0.90183757551E+02 0.  0.
         11    1    3    3    0    0  0.94008348161E+02 -0.11428239241E+03 -0.75484148001E+03  0.76920978588E+03  0.00000000000E+00 0. -1.
        -11    1    3    3    0    0  0.33997822498E+03 -0.21265351945E+03 -0.24617506386E+04  0.24941978509E+04  0.00000000000E+00 0.  1.
         22    1    1    2    0    0 -0.43398657314E+03  0.32693591186E+03  0.66839036680E+03  0.86138093696E+03  0.00000000000E+00 0.  1.
<mgrwt>
<rscale>  0 0.32435395E+04</rscale>
<asrwt>0</asrwt>
<pdfrwt beam="1">  1        2 0.51330695E+00 0.32435395E+04</pdfrwt>
<pdfrwt beam="2">  1       -2 0.12127591E+00 0.32435395E+04</pdfrwt>
<totfact> 0.45635230E-01</totfact>
</mgrwt>
</event>
<event>
 6    1  0.9364335E-007  0.2041277E+04  0.7818608E-02  0.8587562E-01
          1   -1    0    0  501    0  0.00000000000E+00  0.00000000000E+00  0.51184397828E+03  0.51184397828E+03  0.00000000000E+00 0. -1.
         -1   -1    0    0    0  501 -0.00000000000E+00 -0.00000000000E+00 -0.20351956668E+04  0.20351956668E+04  0.00000000000E+00 0.  1.
         23    2    1    2    0    0  0.79948624045E+02  0.41111740674E+02 -0.20292194279E+04  0.20332457881E+04  0.90966975051E+02 0.  0.
         13    1    3    3    0    0 -0.26249954235E+01 -0.83063064321E+01 -0.86860820257E+03  0.86865188361E+03  0.00000000000E+00 0. -1.
        -13    1    3    3    0    0  0.82573619468E+02  0.49418047106E+02 -0.11606112253E+04  0.11645939045E+04  0.00000000000E+00 0.  1.
         22    1    1    2    0    0 -0.79948624045E+02 -0.41111740674E+02  0.50586773938E+03  0.51379385697E+03  0.00000000000E+00 0. -1.
<mgrwt>
<rscale>  0 0.20412767E+04</rscale>
<asrwt>0</asrwt>
<pdfrwt beam="1">  1        1 0.78745227E-01 0.20412767E+04</pdfrwt>
<pdfrwt beam="2">  1       -1 0.31310703E+00 0.20412767E+04</pdfrwt>
<totfact> 0.10774039E+00</totfact>
</mgrwt>
</event>
<event>
 6    1  0.9364335E-007  0.1804076E+04  0.7818608E-02  0.8704135E-01
          1   -1    0    0  501    0  0.00000000000E+00  0.00000000000E+00  0.13459173566E+04  0.13459173566E+04  0.00000000000E+00 0. -1.
         -1   -1    0    0    0  501 -0.00000000000E+00 -0.00000000000E+00 -0.60454861539E+03  0.60454861539E+03  0.00000000000E+00 0.  1.
         23    2    1    2    0    0  0.89086532799E+03 -0.11036484590E+03  0.44010725245E+03  0.10035869320E+04  0.87583700245E+02 0.  0.
         13    1    3    3    0    0  0.27430697181E+03 -0.59327145576E+02  0.10237892442E+03  0.29873980175E+03  0.00000000000E+00 0.  1.
        -13    1    3    3    0    0  0.61655835618E+03 -0.51037700319E+02  0.33772832803E+03  0.70484713022E+03  0.00000000000E+00 0. -1.
         22    1    1    2    0    0 -0.89086532799E+03  0.11036484590E+03  0.30126148879E+03  0.94687904003E+03  0.00000000000E+00 0. -1.
<mgrwt>
<rscale>  0 0.18040759E+04</rscale>
<asrwt>0</asrwt>
<pdfrwt beam="1">  1        1 0.20706421E+00 0.18040759E+04</pdfrwt>
<pdfrwt beam="2">  1       -1 0.93007480E-01 0.18040759E+04</pdfrwt>
<totfact> 0.88858668E+00</totfact>
</mgrwt>
</event>
<event>
 6    1  0.9364335E-007  0.2412004E+04  0.7818608E-02  0.8435023E-01
         -2   -1    0    0    0  501 -0.00000000000E+00  0.00000000000E+00  0.11483102963E+04  0.11483102963E+04  0.00000000000E+00 0.  1.
          2   -1    0    0  501    0  0.00000000000E+00 -0.00000000000E+00 -0.12665926431E+04  0.12665926431E+04  0.00000000000E+00 0. -1.
         23    2    1    2    0    0 -0.18866043910E+03  0.51082728371E+03  0.10161844145E+04  0.11565102711E+04  0.91367214827E+02 0.  0.
         13    1    3    3    0    0 -0.30942486352E+02  0.10700516540E+03  0.29139059061E+03  0.31195515571E+03  0.00000000000E+00 0. -1.
        -13    1    3    3    0    0 -0.15771795274E+03  0.40382211831E+03  0.72479382388E+03  0.84455511543E+03  0.00000000000E+00 0.  1.
         22    1    1    2    0    0  0.18866043910E+03 -0.51082728371E+03 -0.11344667613E+04  0.12583926682E+04  0.00000000000E+00 0. -1.
<mgrwt>
<rscale>  0 0.24120045E+04</rscale>
<asrwt>0</asrwt>
<pdfrwt beam="1">  1        2 0.19486041E+00 0.24120045E+04</pdfrwt>
<pdfrwt beam="2">  1       -2 0.17666312E+00 0.24120045E+04</pdfrwt>
<totfact> 0.29717943E+00</totfact>
</mgrwt>
</event>
<event>
 6    1  0.9364335E-007  0.3084892E+04  0.7818608E-02  0.8219896E-01
         -1   -1    0    0    0  501 -0.00000000000E+00  0.00000000000E+00  0.18243781762E+04  0.18243781762E+04  0.00000000000E+00 0.  1.
          1   -1    0    0  501    0  0.00000000000E+00 -0.00000000000E+00 -0.13040822763E+04  0.13040822763E+04  0.00000000000E+00 0. -1.
         23    2    1    2    0    0 -0.61878107362E+03  0.55733693152E+03  0.15753825986E+04  0.17843167050E+04  0.91876545609E+02 0.  0.
         11    1    3    3    0    0 -0.13769519179E+03  0.14961419323E+03  0.31410965768E+03  0.37417809891E+03  0.00000000000E+00 0.  1.
        -11    1    3    3    0    0 -0.48108588184E+03  0.40772273828E+03  0.12612729409E+04  0.14101386061E+04  0.00000000000E+00 0. -1.
         22    1    1    2    0    0  0.61878107362E+03 -0.55733693152E+03 -0.10550866986E+04  0.13441437475E+04  0.00000000000E+00 0. -1.
<mgrwt>
<rscale>  0 0.30848917E+04</rscale>
<asrwt>0</asrwt>
<pdfrwt beam="1">  1        1 0.20062804E+00 0.30848917E+04</pdfrwt>
<pdfrwt beam="2">  1       -1 0.28067357E+00 0.30848917E+04</pdfrwt>
<totfact> 0.33447244E-01</totfact>
</mgrwt>
</event>
<event>
 6    1  0.1393718E-006  0.2847338E+04  0.7818608E-02  0.8288721E-01
         -1   -1    0    0    0  501 -0.00000000000E+00  0.00000000000E+00  0.15245185328E+04  0.15245185328E+04  0.00000000000E+00 0.  1.
          1   -1    0    0  501    0  0.00000000000E+00 -0.00000000000E+00 -0.13294906811E+04  0.13294906811E+04  0.00000000000E+00 0. -1.
         23    2    1    2    0    0 -0.11097003302E+04  0.85635679597E+02  0.98550205205E+03  0.14888653555E+04  0.82082030766E+02 0.  0.
         13    1    3    3    0    0 -0.34897401417E+03  0.56229659048E+02  0.34571488838E+03  0.49443242326E+03  0.00000000000E+00 0.  1.
        -13    1    3    3    0    0 -0.76072631605E+03  0.29406020549E+02  0.63978716367E+03  0.99443293226E+03  0.00000000000E+00 0. -1.
         22    1    1    2    0    0  0.11097003302E+04 -0.85635679597E+02 -0.79047420040E+03  0.13651438584E+04  0.00000000000E+00 0. -1.
<mgrwt>
<rscale>  0 0.28473378E+04</rscale>
<asrwt>0</asrwt>
<pdfrwt beam="1">  1        1 0.20453703E+00 0.28473378E+04</pdfrwt>
<pdfrwt beam="2">  1       -1 0.23454131E+00 0.28473378E+04</pdfrwt>
<totfact> 0.65445150E-01</totfact>
</mgrwt>
</event>
<event>
 6    1  0.9364335E-007  0.1521634E+04  0.7818608E-02  0.8870193E-01
         -2   -1    0    0    0  501 -0.00000000000E+00  0.00000000000E+00  0.33382549118E+03  0.33382549118E+03  0.00000000000E+00 0.  1.
          2   -1    0    0  501    0  0.00000000000E+00 -0.00000000000E+00 -0.17339668047E+04  0.17339668047E+04  0.00000000000E+00 0. -1.
         23    2    1    2    0    0 -0.72642150357E+03 -0.19410815383E+03 -0.58130905671E+03  0.95610329213E+03  0.10414945788E+03 0.  0.
         13    1    3    3    0    0 -0.43001125352E+03 -0.15839101526E+03 -0.31544077922E+03  0.55632749084E+03  0.00000000000E+00 0.  1.
        -13    1    3    3    0    0 -0.29641025006E+03 -0.35717138568E+02 -0.26586827749E+03  0.39977580130E+03  0.00000000000E+00 0. -1.
         22    1    1    2    0    0  0.72642150357E+03  0.19410815383E+03 -0.81883225679E+03  0.11116890037E+04  0.00000000000E+00 0. -1.
<mgrwt>
<rscale>  0 0.15216338E+04</rscale>
<asrwt>0</asrwt>
<pdfrwt beam="1">  1        2 0.26676413E+00 0.15216338E+04</pdfrwt>
<pdfrwt beam="2">  1       -2 0.51357767E-01 0.15216338E+04</pdfrwt>
<totfact> 0.32440806E+01</totfact>
</mgrwt>
</event>
<event>
 6    1  0.9364335E-007  0.2559309E+04  0.7818608E-02  0.8382156E-01
          2   -1    0    0  501    0  0.00000000000E+00  0.00000000000E+00  0.12625134847E+04  0.12625134847E+04  0.00000000000E+00 0. -1.
         -2   -1    0    0    0  501 -0.00000000000E+00 -0.00000000000E+00 -0.12970285535E+04  0.12970285535E+04  0.00000000000E+00 0.  1.
         23    2    1    2    0    0  0.92703865399E+03  0.74138702943E+03  0.45629508779E+03  0.12750382417E+04  0.91988679623E+02 0.  0.
         13    1    3    3    0    0  0.47523123468E+03  0.32246208296E+03  0.21000300912E+03  0.61149634929E+03  0.00000000000E+00 0. -1.
        -13    1    3    3    0    0  0.45180741931E+03  0.41892494647E+03  0.24629207867E+03  0.66354189237E+03  0.00000000000E+00 0.  1.
         22    1    1    2    0    0 -0.92703865399E+03 -0.74138702943E+03 -0.49081015661E+03  0.12845037965E+04  0.00000000000E+00 0. -1.
<mgrwt>
<rscale>  0 0.25593093E+04</rscale>
<asrwt>0</asrwt>
<pdfrwt beam="1">  1        2 0.19423284E+00 0.25593093E+04</pdfrwt>
<pdfrwt beam="2">  1       -2 0.19954285E+00 0.25593093E+04</pdfrwt>
<totfact> 0.20669997E+00</totfact>
</mgrwt>
</event>
<event>
 6    1  0.9364335E-007  0.3663438E+04  0.7818608E-02  0.8076113E-01
         -1   -1    0    0    0  501 -0.00000000000E+00  0.00000000000E+00  0.11554783394E+04  0.11554783394E+04  0.00000000000E+00 0.  1.
          1   -1    0    0  501    0  0.00000000000E+00 -0.00000000000E+00 -0.29037272828E+04  0.29037272828E+04  0.00000000000E+00 0. -1.
         23    2    1    2    0    0  0.14619884184E+04 -0.12670932558E+03 -0.20872573425E+04  0.25530874053E+04  0.90259051923E+02 0.  0.
         13    1    3    3    0    0  0.12213480014E+04 -0.95534053414E+02 -0.16843034688E+04  0.20827135835E+04  0.00000000000E+00 0.  1.
        -13    1    3    3    0    0  0.24064041701E+03 -0.31175272168E+02 -0.40295387364E+03  0.47037382173E+03  0.00000000000E+00 0. -1.
         22    1    1    2    0    0 -0.14619884184E+04  0.12670932558E+03  0.33900839902E+03  0.15061182169E+04  0.00000000000E+00 0.  1.
<mgrwt>
<rscale>  0 0.36634377E+04</rscale>
<asrwt>0</asrwt>
<pdfrwt beam="1">  1        1 0.44672727E+00 0.36634377E+04</pdfrwt>
<pdfrwt beam="2">  1       -1 0.17776590E+00 0.36634377E+04</pdfrwt>
<totfact> 0.12197066E-01</totfact>
</mgrwt>
</event>
<event>
 6    1  0.9364335E-007  0.3702279E+04  0.7818608E-02  0.8067457E-01
          2   -1    0    0  501    0  0.00000000000E+00  0.00000000000E+00  0.15252927347E+04  0.15252927347E+04  0.00000000000E+00 0. -1.
         -2   -1    0    0    0  501 -0.00000000000E+00 -0.00000000000E+00 -0.22465962240E+04  0.22465962240E+04  0.00000000000E+00 0.  1.
         23    2    1    2    0    0 -0.11617028566E+04  0.16676027401E+03  0.10963260641E+04  0.16082947940E+04  0.85549924871E+02 0.  0.
         11    1    3    3    0    0 -0.87346684711E+03  0.12063788973E+03  0.77204724014E+03  0.11719875317E+04  0.00000000000E+00 0. -1.
        -11    1    3    3    0    0 -0.28823600953E+03  0.46122384281E+02  0.32427882393E+03  0.43630726234E+03  0.00000000000E+00 0.  1.
         22    1    1    2    0    0  0.11617028566E+04 -0.16676027401E+03 -0.18176295533E+04  0.21635941646E+04  0.00000000000E+00 0.  1.
<mgrwt>
<rscale>  0 0.37022787E+04</rscale>
<asrwt>0</asrwt>
<pdfrwt beam="1">  1        2 0.23466042E+00 0.37022787E+04</pdfrwt>
<pdfrwt beam="2">  1       -2 0.34563019E+00 0.37022787E+04</pdfrwt>
<totfact> 0.16450797E-01</totfact>
</mgrwt>
</event>
<event>
 6    1  0.9364335E-007  0.1834471E+04  0.7818608E-02  0.8688180E-01
          1   -1    0    0  501    0  0.00000000000E+00  0.00000000000E+00  0.47186582059E+03  0.47186582059E+03  0.00000000000E+00 0. -1.
         -1   -1    0    0    0  501 -0.00000000000E+00 -0.00000000000E+00 -0.17829671369E+04  0.17829671369E+04  0.00000000000E+00 0.  1.
         23    2    1    2    0    0  0.83042041252E+03 -0.30600357677E+03 -0.37189913921E+03  0.96435359694E+03  0.91829405150E+02 0.  0.
         11    1    3    3    0    0  0.62560820685E+03 -0.19665420259E+03 -0.24738789890E+03  0.70089890598E+03  0.00000000000E+00 0.  1.
        -11    1    3    3    0    0  0.20481220567E+03 -0.10934937418E+03 -0.12451124031E+03  0.26345469096E+03  0.00000000000E+00 0. -1.
         22    1    1    2    0    0 -0.83042041252E+03  0.30600357677E+03 -0.93920217707E+03  0.12904793605E+04  0.00000000000E+00 0.  1.
<mgrwt>
<rscale>  0 0.18344713E+04</rscale>
<asrwt>0</asrwt>
<pdfrwt beam="1">  1        1 0.72594743E-01 0.18344713E+04</pdfrwt>
<pdfrwt beam="2">  1       -1 0.27430263E+00 0.18344713E+04</pdfrwt>
<totfact> 0.21891503E+00</totfact>
</mgrwt>
</event>
<event>
 6    1  0.9364335E-007  0.2059203E+04  0.7818608E-02  0.8579431E-01
          1   -1    0    0  501    0  0.00000000000E+00  0.00000000000E+00  0.59181963880E+03  0.59181963880E+03  0.00000000000E+00 0. -1.
         -1   -1    0    0    0  501 -0.00000000000E+00 -0.00000000000E+00 -0.17912199521E+04  0.17912199521E+04  0.00000000000E+00 0.  1.
         23    2    1    2    0    0  0.65486145558E+03 -0.70664944176E+02  0.31193497788E+03  0.73441245818E+03  0.90670656547E+02 0.  0.
         11    1    3    3    0    0  0.64676950414E+03 -0.80916462219E+02  0.30609667233E+03  0.72010654639E+03  0.00000000000E+00 0.  1.
        -11    1    3    3    0    0  0.80919514407E+01  0.10251518044E+02  0.58383055558E+01  0.14305911788E+02  0.00000000000E+00 0. -1.
         22    1    1    2    0    0 -0.65486145558E+03  0.70664944176E+02 -0.15113352912E+04  0.16486271328E+04  0.00000000000E+00 0.  1.
<mgrwt>
<rscale>  0 0.20592029E+04</rscale>
<asrwt>0</asrwt>
<pdfrwt beam="1">  1        1 0.91049177E-01 0.20592029E+04</pdfrwt>
<pdfrwt beam="2">  1       -1 0.27557230E+00 0.20592029E+04</pdfrwt>
<totfact> 0.15333157E+00</totfact>
</mgrwt>
</event>
<event>
 6    1  0.9364335E-007  0.1414023E+04  0.7818608E-02  0.8943730E-01
         -1   -1    0    0    0  501 -0.00000000000E+00  0.00000000000E+00  0.82548166847E+03  0.82548166847E+03  0.00000000000E+00 0.  1.
          1   -1    0    0  501    0  0.00000000000E+00 -0.00000000000E+00 -0.60554356535E+03  0.60554356535E+03  0.00000000000E+00 0. -1.
         23    2    1    2    0    0 -0.50884978469E+03 -0.21662325327E+03 -0.33087842648E+03  0.65047889533E+03  0.88252608597E+02 0.  0.
         11    1    3    3    0    0 -0.33502517054E+02  0.27204029570E+01 -0.37519023657E+02  0.50373568241E+02  0.00000000000E+00 0. -1.
        -11    1    3    3    0    0 -0.47534726763E+03 -0.21934365623E+03 -0.29335940282E+03  0.60010532709E+03  0.00000000000E+00 0.  1.
         22    1    1    2    0    0  0.50884978469E+03  0.21662325327E+03  0.55081652961E+03  0.78054633849E+03  0.00000000000E+00 0.  1.
<mgrwt>
<rscale>  0 0.14140228E+04</rscale>
<asrwt>0</asrwt>
<pdfrwt beam="1">  1        1 0.93160549E-01 0.14140228E+04</pdfrwt>
<pdfrwt beam="2">  1       -1 0.12699718E+00 0.14140228E+04</pdfrwt>
<totfact> 0.17710232E+01</totfact>
</mgrwt>
</event>
<event>
 6    1  0.9364335E-007  0.1803518E+04  0.7818608E-02  0.8704431E-01
         -2   -1    0    0    0  501 -0.00000000000E+00  0.00000000000E+00  0.79641177631E+03  0.79641177631E+03  0.00000000000E+00 0.  1.
          2   -1    0    0  501    0  0.00000000000E+00 -0.00000000000E+00 -0.10210408248E+04  0.10210408248E+04  0.00000000000E+00 0. -1.
         23    2    1    2    0    0  0.51825414183E+03  0.56246429868E+03  0.36435416938E+03  0.85212640043E+03  0.91716949065E+02 0.  0.
         11    1    3    3    0    0  0.38498750868E+03  0.44117196605E+03  0.31687897260E+03  0.66577801762E+03  0.00000000000E+00 0. -1.
        -11    1    3    3    0    0  0.13326663315E+03  0.12129233263E+03  0.47475196781E+02  0.18634838281E+03  0.00000000000E+00 0.  1.
         22    1    1    2    0    0 -0.51825414183E+03 -0.56246429868E+03 -0.58898321789E+03  0.96532620071E+03  0.00000000000E+00 0. -1.
<mgrwt>
<rscale>  0 0.18035176E+04</rscale>
<asrwt>0</asrwt>
<pdfrwt beam="1">  1        2 0.15708320E+00 0.18035176E+04</pdfrwt>
<pdfrwt beam="2">  1       -2 0.12252489E+00 0.18035176E+04</pdfrwt>
<totfact> 0.11619128E+01</totfact>
</mgrwt>
</event>
<event>
 6    1  0.9364335E-007  0.6612025E+03  0.7818608E-02  0.9785983E-01
         -1   -1    0    0    0  501 -0.00000000000E+00  0.00000000000E+00  0.31970544422E+03  0.31970544422E+03  0.00000000000E+00 0.  1.
          1   -1    0    0  501    0  0.00000000000E+00 -0.00000000000E+00 -0.34186843825E+03  0.34186843825E+03  0.00000000000E+00 0. -1.
         23    2    1    2    0    0  0.14323517408E+03 -0.14852543794E+03 -0.26160911881E+03  0.34548755331E+03  0.91357526434E+02 0.  0.
         13    1    3    3    0    0  0.34694923584E+02 -0.73179642907E+02 -0.47495018902E+02  0.93887031474E+02  0.00000000000E+00 0.  1.
        -13    1    3    3    0    0  0.10854025050E+03 -0.75345795029E+02 -0.21411409991E+03  0.25160052183E+03  0.00000000000E+00 0. -1.
         22    1    1    2    0    0 -0.14323517408E+03  0.14852543794E+03  0.23944612479E+03  0.31608632916E+03  0.00000000000E+00 0.  1.
<mgrwt>
<rscale>  0 0.66120254E+03</rscale>
<asrwt>0</asrwt>
<pdfrwt beam="1">  1        1 0.52595144E-01 0.66120254E+03</pdfrwt>
<pdfrwt beam="2">  1       -1 0.49185453E-01 0.66120254E+03</pdfrwt>
<totfact> 0.31012776E+02</totfact>
</mgrwt>
</event>
<event>
 6    1  0.9364335E-007  0.3493666E+04  0.7818608E-02  0.8115293E-01
          2   -1    0    0  501    0  0.00000000000E+00  0.00000000000E+00  0.26476547146E+04  0.26476547146E+04  0.00000000000E+00 0. -1.
         -2   -1    0    0    0  501 -0.00000000000E+00 -0.00000000000E+00 -0.11525016260E+04  0.11525016260E+04  0.00000000000E+00 0.  1.
         23    2    1    2    0    0  0.48919476657E+03  0.13800201400E+04  0.17820585412E+04  0.23081503603E+04  0.89768228022E+02 0.  0.
         13    1    3    3    0    0  0.17204255720E+03  0.61783413486E+03  0.77162841038E+03  0.10033583923E+04  0.00000000000E+00 0. -1.
        -13    1    3    3    0    0  0.31715220938E+03  0.76218600519E+03  0.10104301308E+04  0.13047919680E+04  0.00000000000E+00 0.  1.
         22    1    1    2    0    0 -0.48919476657E+03 -0.13800201400E+04 -0.28690545257E+03  0.14920059803E+04  0.00000000000E+00 0.  1.
<mgrwt>
<rscale>  0 0.34936665E+04</rscale>
<asrwt>0</asrwt>
<pdfrwt beam="1">  1        2 0.40733149E+00 0.34936665E+04</pdfrwt>
<pdfrwt beam="2">  1       -2 0.17730794E+00 0.34936665E+04</pdfrwt>
<totfact> 0.44384442E-01</totfact>
</mgrwt>
</event>
<event>
 6    1  0.9364335E-007  0.3268831E+04  0.7818608E-02  0.8170872E-01
          2   -1    0    0  501    0  0.00000000000E+00  0.00000000000E+00  0.18400304615E+04  0.18400304615E+04  0.00000000000E+00 0. -1.
         -2   -1    0    0    0  501 -0.00000000000E+00 -0.00000000000E+00 -0.14517767249E+04  0.14517767249E+04  0.00000000000E+00 0.  1.
         23    2    1    2    0    0  0.61890435042E+03  0.14974576388E+04  0.40012407648E+03  0.16714483126E+04  0.90654344698E+02 0.  0.
         13    1    3    3    0    0  0.23216558265E+03  0.67261732406E+03  0.15987509555E+03  0.72929758574E+03  0.00000000000E+00 0.  1.
        -13    1    3    3    0    0  0.38673876778E+03  0.82484031473E+03  0.24024898093E+03  0.94215072687E+03  0.00000000000E+00 0. -1.
         22    1    1    2    0    0 -0.61890435042E+03 -0.14974576388E+04 -0.11870339889E+02  0.16203588738E+04  0.00000000000E+00 0. -1.
<mgrwt>
<rscale>  0 0.32688306E+04</rscale>
<asrwt>0</asrwt>
<pdfrwt beam="1">  1        2 0.28308161E+00 0.32688306E+04</pdfrwt>
<pdfrwt beam="2">  1       -2 0.22335026E+00 0.32688306E+04</pdfrwt>
<totfact> 0.64622755E-01</totfact>
</mgrwt>
</event>
<event>
 6    1  0.9364335E-007  0.1306583E+04  0.7818608E-02  0.9024361E-01
          2   -1    0    0  501    0  0.00000000000E+00  0.00000000000E+00  0.44027570819E+03  0.44027570819E+03  0.00000000000E+00 0. -1.
         -2   -1    0    0    0  501 -0.00000000000E+00 -0.00000000000E+00 -0.96936932867E+03  0.96936932867E+03  0.00000000000E+00 0.  1.
         23    2    1    2    0    0  0.42506718356E+03  0.22517155202E+03 -0.73766807814E+03  0.88534775215E+03  0.91115917168E+02 0.  0.
         11    1    3    3    0    0  0.30088160205E+03  0.15070175262E+03 -0.58534314924E+03  0.67517950136E+03  0.00000000000E+00 0.  1.
        -11    1    3    3    0    0  0.12418558151E+03  0.74469799395E+02 -0.15232492889E+03  0.21016825079E+03  0.00000000000E+00 0. -1.
         22    1    1    2    0    0 -0.42506718356E+03 -0.22517155202E+03  0.20857445765E+03  0.52429728472E+03  0.00000000000E+00 0. -1.
<mgrwt>
<rscale>  0 0.13065830E+04</rscale>
<asrwt>0</asrwt>
<pdfrwt beam="1">  1        2 0.67734725E-01 0.13065830E+04</pdfrwt>
<pdfrwt beam="2">  1       -2 0.14913374E+00 0.13065830E+04</pdfrwt>
<totfact> 0.21235539E+01</totfact>
</mgrwt>
</event>
<event>
 6    1  0.9364335E-007  0.1266221E+04  0.7818608E-02  0.9056789E-01
         -2   -1    0    0    0  501 -0.00000000000E+00  0.00000000000E+00  0.48877069356E+03  0.48877069356E+03  0.00000000000E+00 0.  1.
          2   -1    0    0  501    0  0.00000000000E+00 -0.00000000000E+00 -0.82007583191E+03  0.82007583191E+03  0.00000000000E+00 0. -1.
         23    2    1    2    0    0 -0.53491266323E+02  0.57218473743E+03  0.97914854546E+02  0.59156938822E+03  0.10055015180E+03 0.  0.
         13    1    3    3    0    0 -0.22409650138E+02  0.47684816721E+03  0.48653599232E+02  0.47984741294E+03  0.00000000000E+00 0.  1.
        -13    1    3    3    0    0 -0.31081616185E+02  0.95336570216E+02  0.49261255314E+02  0.11172197528E+03  0.00000000000E+00 0. -1.
         22    1    1    2    0    0  0.53491266323E+02 -0.57218473743E+03 -0.42921999289E+03  0.71727713725E+03  0.00000000000E+00 0. -1.
<mgrwt>
<rscale>  0 0.12662212E+04</rscale>
<asrwt>0</asrwt>
<pdfrwt beam="1">  1        2 0.12616551E+00 0.12662212E+04</pdfrwt>
<pdfrwt beam="2">  1       -2 0.75195492E-01 0.12662212E+04</pdfrwt>
<totfact> 0.51992898E+01</totfact>
</mgrwt>
</event>
<event>
 6    1  0.9364335E-007  0.2039444E+04  0.7818608E-02  0.8588398E-01
         -2   -1    0    0    0  501 -0.00000000000E+00  0.00000000000E+00  0.53645800179E+03  0.53645800179E+03  0.00000000000E+00 0.  1.
          2   -1    0    0  501    0  0.00000000000E+00 -0.00000000000E+00 -0.19383303673E+04  0.19383303673E+04  0.00000000000E+00 0. -1.
         23    2    1    2    0    0  0.20359495800E+03  0.96776276752E+03 -0.99524160861E+03  0.14055062484E+04  0.83224237985E+02 0.  0.
         13    1    3    3    0    0  0.14621036351E+03  0.75149789212E+03 -0.72192040159E+03  0.10522811499E+04  0.00000000000E+00 0.  1.
        -13    1    3    3    0    0  0.57384594487E+02  0.21626487540E+03 -0.27332120702E+03  0.35322509852E+03  0.00000000000E+00 0. -1.
         22    1    1    2    0    0 -0.20359495800E+03 -0.96776276752E+03 -0.40663075695E+03  0.10692821207E+04  0.00000000000E+00 0.  1.
<mgrwt>
<rscale>  0 0.20394439E+04</rscale>
<asrwt>0</asrwt>
<pdfrwt beam="1">  1        2 0.29820467E+00 0.20394439E+04</pdfrwt>
<pdfrwt beam="2">  1       -2 0.82532002E-01 0.20394439E+04</pdfrwt>
<totfact> 0.86258810E+00</totfact>
</mgrwt>
</event>
<event>
 6    1  0.9364335E-007  0.1831850E+04  0.7818608E-02  0.8689543E-01
         -1   -1    0    0    0  501 -0.00000000000E+00  0.00000000000E+00  0.30138436571E+03  0.30138436571E+03  0.00000000000E+00 0.  1.
          1   -1    0    0  501    0  0.00000000000E+00 -0.00000000000E+00 -0.27835497726E+04  0.27835497726E+04  0.00000000000E+00 0. -1.
         23    2    1    2    0    0 -0.21708805168E+02  0.59726017421E+03 -0.24079674085E+04  0.24826913875E+04  0.90876274398E+02 0.  0.
         11    1    3    3    0    0  0.24035642966E+02  0.62021340880E+02 -0.30836469324E+03  0.31545703812E+03  0.00000000000E+00 0.  1.
        -11    1    3    3    0    0 -0.45744448134E+02  0.53523883333E+03 -0.20996027152E+04  0.21672343494E+04  0.00000000000E+00 0. -1.
         22    1    1    2    0    0  0.21708805168E+02 -0.59726017421E+03 -0.74197998372E+02  0.60224275079E+03  0.00000000000E+00 0.  1.
<mgrwt>
<rscale>  0 0.18318498E+04</rscale>
<asrwt>0</asrwt>
<pdfrwt beam="1">  1        1 0.42823842E+00 0.18318498E+04</pdfrwt>
<pdfrwt beam="2">  1       -1 0.46366826E-01 0.18318498E+04</pdfrwt>
<totfact> 0.37378494E+00</totfact>
</mgrwt>
</event>
<event>
 6    1  0.9364335E-007  0.5403096E+04  0.7818608E-02  0.7769166E-01
          2   -1    0    0  501    0  0.00000000000E+00  0.00000000000E+00  0.38819580965E+04  0.38819580965E+04  0.00000000000E+00 0. -1.
         -2   -1    0    0    0  501 -0.00000000000E+00 -0.00000000000E+00 -0.18800725292E+04  0.18800725292E+04  0.00000000000E+00 0.  1.
         23    2    1    2    0    0 -0.18249911967E+04  0.13819004326E+03 -0.11167950764E+04  0.21459749964E+04  0.91038927217E+02 0.  0.
         11    1    3    3    0    0 -0.93627465848E+02 -0.90864526336E+01 -0.71761999845E+02  0.11831504809E+03  0.00000000000E+00 0.  1.
        -11    1    3    3    0    0 -0.17313637309E+04  0.14727649589E+03 -0.10450330766E+04  0.20276599483E+04  0.00000000000E+00 0. -1.
         22    1    1    2    0    0  0.18249911967E+04 -0.13819004326E+03  0.31186806438E+04  0.36160556293E+04  0.00000000000E+00 0. -1.
<mgrwt>
<rscale>  0 0.54030964E+04</rscale>
<asrwt>0</asrwt>
<pdfrwt beam="1">  1        2 0.59722432E+00 0.54030964E+04</pdfrwt>
<pdfrwt beam="2">  1       -2 0.28924193E+00 0.54030964E+04</pdfrwt>
<totfact> 0.11028595E-02</totfact>
</mgrwt>
</event>
<event>
 6    1  0.9364335E-007  0.1143054E+04  0.7818608E-02  0.9164216E-01
          2   -1    0    0  501    0  0.00000000000E+00  0.00000000000E+00  0.10429901724E+04  0.10429901724E+04  0.00000000000E+00 0. -1.
         -2   -1    0    0    0  501 -0.00000000000E+00 -0.00000000000E+00 -0.31317922340E+03  0.31317922340E+03  0.00000000000E+00 0.  1.
         23    2    1    2    0    0  0.30322519471E+03 -0.34230656616E+03  0.76699451640E+03  0.89736451180E+03  0.88674544894E+02 0.  0.
         13    1    3    3    0    0  0.26610231475E+03 -0.25139551249E+03  0.63314230189E+03  0.73135444215E+03  0.00000000000E+00 0. -1.
        -13    1    3    3    0    0  0.37122879957E+02 -0.90911053664E+02  0.13385221451E+03  0.16601006965E+03  0.00000000000E+00 0.  1.
         22    1    1    2    0    0 -0.30322519471E+03  0.34230656616E+03 -0.37183567364E+02  0.45880488404E+03  0.00000000000E+00 0.  1.
<mgrwt>
<rscale>  0 0.11430535E+04</rscale>
<asrwt>0</asrwt>
<pdfrwt beam="1">  1        2 0.16046002E+00 0.11430535E+04</pdfrwt>
<pdfrwt beam="2">  1       -2 0.48181420E-01 0.11430535E+04</pdfrwt>
<totfact> 0.95535763E+01</totfact>
</mgrwt>
</event>
<event>
 6    1  0.9364335E-007  0.1086848E+04  0.7818608E-02  0.9218106E-01
         -1   -1    0    0    0  501 -0.00000000000E+00  0.00000000000E+00  0.15538551334E+03  0.15538551334E+03  0.00000000000E+00 0.  1.
          1   -1    0    0  501    0  0.00000000000E+00 -0.00000000000E+00 -0.19004962860E+04  0.19004962860E+04  0.00000000000E+00 0. -1.
         23    2    1    2    0    0 -0.23637375040E+02 -0.52238519399E+03 -0.11306539879E+04  0.12490347526E+04  0.90908506843E+02 0.  0.
         11    1    3    3    0    0  0.30327223114E+02 -0.97820950021E+02 -0.20042070606E+03  0.22507140676E+03  0.00000000000E+00 0.  1.
        -11    1    3    3    0    0 -0.53964598154E+02 -0.42456424397E+03 -0.93023328181E+03  0.10239633459E+04  0.00000000000E+00 0. -1.
         22    1    1    2    0    0  0.23637375040E+02  0.52238519399E+03 -0.61445678482E+03  0.80684704673E+03  0.00000000000E+00 0.  1.
<mgrwt>
<rscale>  0 0.10868479E+04</rscale>
<asrwt>0</asrwt>
<pdfrwt beam="1">  1        1 0.29238402E+00 0.10868479E+04</pdfrwt>
<pdfrwt beam="2">  1       -1 0.23905465E-01 0.10868479E+04</pdfrwt>
<totfact> 0.52628445E+01</totfact>
</mgrwt>
</event>
<event>
 6    1  0.1185284E-006  0.2902640E+04  0.7818608E-02  0.8272093E-01
         -1   -1    0    0    0  501 -0.00000000000E+00  0.00000000000E+00  0.11501683146E+04  0.11501683146E+04  0.00000000000E+00 0.  1.
          1   -1    0    0  501    0  0.00000000000E+00 -0.00000000000E+00 -0.18313226997E+04  0.18313226997E+04  0.00000000000E+00 0. -1.
         23    2    1    2    0    0  0.49763815344E+03 -0.45813134076E+03 -0.16582089736E+04  0.17931460619E+04  0.90486141699E+02 0.  0.
         13    1    3    3    0    0  0.25665617322E+03 -0.27698406172E+03 -0.83304350495E+03  0.91463328326E+03  0.00000000000E+00 0.  1.
        -13    1    3    3    0    0  0.24098198023E+03 -0.18114727904E+03 -0.82516546866E+03  0.87851277860E+03  0.00000000000E+00 0. -1.
         22    1    1    2    0    0 -0.49763815344E+03  0.45813134076E+03  0.97705458853E+03  0.11883449525E+04  0.00000000000E+00 0.  1.
<mgrwt>
<rscale>  0 0.29026397E+04</rscale>
<asrwt>0</asrwt>
<pdfrwt beam="1">  1        1 0.28174195E+00 0.29026397E+04</pdfrwt>
<pdfrwt beam="2">  1       -1 0.17694897E+00 0.29026397E+04</pdfrwt>
<totfact> 0.72882969E-01</totfact>
</mgrwt>
</event>
<event>
 6    1  0.9364335E-007  0.3407249E+04  0.7818608E-02  0.8136129E-01
         -1   -1    0    0    0  501 -0.00000000000E+00  0.00000000000E+00  0.13752246616E+04  0.13752246616E+04  0.00000000000E+00 0.  1.
          1   -1    0    0  501    0  0.00000000000E+00 -0.00000000000E+00 -0.21104458445E+04  0.21104458445E+04  0.00000000000E+00 0. -1.
         23    2    1    2    0    0  0.80422945284E+03  0.13631943186E+04  0.27358810405E+03  0.16087634918E+04  0.90475183099E+02 0.  0.
         11    1    3    3    0    0  0.13330121502E+03  0.20683987412E+03  0.10993197248E+02  0.24631848863E+03  0.00000000000E+00 0.  1.
        -11    1    3    3    0    0  0.67092823781E+03  0.11563544445E+04  0.26259490680E+03  0.13624450032E+04  0.00000000000E+00 0. -1.
         22    1    1    2    0    0 -0.80422945284E+03 -0.13631943186E+04 -0.10088092870E+04  0.18769070144E+04  0.00000000000E+00 0. -1.
<mgrwt>
<rscale>  0 0.34072494E+04</rscale>
<asrwt>0</asrwt>
<pdfrwt beam="1">  1        1 0.32468397E+00 0.34072494E+04</pdfrwt>
<pdfrwt beam="2">  1       -1 0.21157303E+00 0.34072494E+04</pdfrwt>
<totfact> 0.25857932E-01</totfact>
</mgrwt>
</event>
<event>
 6    1  0.9364335E-007  0.1675232E+04  0.7818608E-02  0.8775618E-01
         -2   -1    0    0    0  501 -0.00000000000E+00  0.00000000000E+00  0.52543238890E+03  0.52543238890E+03  0.00000000000E+00 0.  1.
          2   -1    0    0  501    0  0.00000000000E+00 -0.00000000000E+00 -0.13352818323E+04  0.13352818323E+04  0.00000000000E+00 0. -1.
         23    2    1    2    0    0  0.10591350028E+03 -0.35254426851E+03 -0.12387848519E+04  0.12954791236E+04  0.90405306823E+02 0.  0.
         11    1    3    3    0    0  0.84753403746E+01 -0.13109446794E+03 -0.54888816875E+03  0.56438977021E+03  0.00000000000E+00 0.  1.
        -11    1    3    3    0    0  0.97438159909E+02 -0.22144980057E+03 -0.68989668318E+03  0.73108935339E+03  0.00000000000E+00 0. -1.
         22    1    1    2    0    0 -0.10591350028E+03  0.35254426851E+03  0.42893540856E+03  0.56523509757E+03  0.00000000000E+00 0.  1.
<mgrwt>
<rscale>  0 0.16752317E+04</rscale>
<asrwt>0</asrwt>
<pdfrwt beam="1">  1        2 0.20542797E+00 0.16752317E+04</pdfrwt>
<pdfrwt beam="2">  1       -2 0.80835753E-01 0.16752317E+04</pdfrwt>
<totfact> 0.20300718E+01</totfact>
</mgrwt>
</event>
<event>
 6    1  0.9364335E-007  0.1695152E+04  0.7818608E-02  0.8764134E-01
         -2   -1    0    0    0  501 -0.00000000000E+00  0.00000000000E+00  0.16181445030E+04  0.16181445030E+04  0.00000000000E+00 0.  1.
          2   -1    0    0  501    0  0.00000000000E+00 -0.00000000000E+00 -0.44395617623E+03  0.44395617623E+03  0.00000000000E+00 0. -1.
         23    2    1    2    0    0 -0.12685661761E+03 -0.77053084404E+03  0.98137552801E+03  0.12577455596E+04  0.94950422176E+02 0.  0.
         11    1    3    3    0    0 -0.39436687366E+02 -0.31522281515E+03  0.32832216893E+03  0.45685459625E+03  0.00000000000E+00 0. -1.
        -11    1    3    3    0    0 -0.87419930239E+02 -0.45530802889E+03  0.65305335908E+03  0.80089096336E+03  0.00000000000E+00 0.  1.
         22    1    1    2    0    0  0.12685661761E+03  0.77053084404E+03  0.19281279871E+03  0.80435511958E+03  0.00000000000E+00 0.  1.
<mgrwt>
<rscale>  0 0.16951522E+04</rscale>
<asrwt>0</asrwt>
<pdfrwt beam="1">  1        2 0.68300951E-01 0.16951522E+04</pdfrwt>
<pdfrwt beam="2">  1       -2 0.24894530E+00 0.16951522E+04</pdfrwt>
<totfact> 0.43860199E+00</totfact>
</mgrwt>
</event>
<event>
 6    1  0.9364335E-007  0.1909471E+04  0.7818608E-02  0.8650157E-01
         -2   -1    0    0    0  501 -0.00000000000E+00  0.00000000000E+00  0.25049152467E+03  0.25049152467E+03  0.00000000000E+00 0.  1.
          2   -1    0    0  501    0  0.00000000000E+00 -0.00000000000E+00 -0.36389238580E+04  0.36389238580E+04  0.00000000000E+00 0. -1.
         23    2    1    2    0    0  0.59885826161E+03 -0.72010601545E+03 -0.20525255480E+04  0.22579035593E+04  0.89908100725E+02 0.  0.
         13    1    3    3    0    0  0.20382179928E+03 -0.31029273085E+03 -0.84372422249E+03  0.92178927543E+03  0.00000000000E+00 0.  1.
        -13    1    3    3    0    0  0.39503646233E+03 -0.40981328460E+03 -0.12088013256E+04  0.13361142838E+04  0.00000000000E+00 0. -1.
         22    1    1    2    0    0 -0.59885826161E+03  0.72010601545E+03 -0.13359067853E+04  0.16315118234E+04  0.00000000000E+00 0.  1.
<mgrwt>
<rscale>  0 0.19094707E+04</rscale>
<asrwt>0</asrwt>
<pdfrwt beam="1">  1        2 0.55983436E+00 0.19094707E+04</pdfrwt>
<pdfrwt beam="2">  1       -2 0.38537163E-01 0.19094707E+04</pdfrwt>
<totfact> 0.38831851E+00</totfact>
</mgrwt>
</event>
<event>
 6    1  0.9364335E-007  0.9941262E+03  0.7818608E-02  0.9315011E-01
         -2   -1    0    0    0  501 -0.00000000000E+00  0.00000000000E+00  0.27045457288E+03  0.27045457288E+03  0.00000000000E+00 0.  1.
          2   -1    0    0  501    0  0.00000000000E+00 -0.00000000000E+00 -0.91354241298E+03  0.91354241298E+03  0.00000000000E+00 0. -1.
         23    2    1    2    0    0  0.44092012828E+02  0.40232204621E+03  0.10121687893E+02  0.41556363030E+03  0.93720583646E+02 0.  0.
         11    1    3    3    0    0 -0.29421815541E+02  0.13687954806E+03  0.36191169588E+01  0.14005267550E+03  0.00000000000E+00 0.  1.
        -11    1    3    3    0    0  0.73513828369E+02  0.26544249815E+03  0.65025709342E+01  0.27551095480E+03  0.00000000000E+00 0. -1.
         22    1    1    2    0    0 -0.44092012828E+02 -0.40232204621E+03 -0.65320952800E+03  0.76843335555E+03  0.00000000000E+00 0. -1.
<mgrwt>
<rscale>  0 0.99412620E+03</rscale>
<asrwt>0</asrwt>
<pdfrwt beam="1">  1        2 0.14054499E+00 0.99412620E+03</pdfrwt>
<pdfrwt beam="2">  1       -2 0.41608396E-01 0.99412620E+03</pdfrwt>
<totfact> 0.15681349E+02</totfact>
</mgrwt>
</event>
<event>
 6    1  0.9364335E-007  0.1639567E+04  0.7818608E-02  0.8796602E-01
          3   -1    0    0  501    0  0.00000000000E+00  0.00000000000E+00  0.95313805186E+03  0.95313805186E+03  0.00000000000E+00 0. -1.
         -3   -1    0    0    0  501 -0.00000000000E+00 -0.00000000000E+00 -0.70508682441E+03  0.70508682441E+03  0.00000000000E+00 0.  1.
         23    2    1    2    0    0  0.65283982457E+03 -0.48137966188E+03  0.22719512575E+03  0.84683027905E+03  0.87049876164E+02 0.  0.
         11    1    3    3    0    0  0.53308276250E+03 -0.41169461911E+03  0.21807923405E+03  0.70797474771E+03  0.00000000000E+00 0.  1.
        -11    1    3    3    0    0  0.11975706207E+03 -0.69685042768E+02  0.91158916988E+01  0.13885553134E+03  0.00000000000E+00 0. -1.
         22    1    1    2    0    0 -0.65283982457E+03  0.48137966188E+03  0.20856101704E+02  0.81139459721E+03  0.00000000000E+00 0. -1.
<mgrwt>
<rscale>  0 0.16395671E+04</rscale>
<asrwt>0</asrwt>
<pdfrwt beam="1">  1        3 0.14663662E+00 0.16395671E+04</pdfrwt>
<pdfrwt beam="2">  1       -3 0.10847490E+00 0.16395671E+04</pdfrwt>
<totfact> 0.61890680E-01</totfact>
</mgrwt>
</event>
<event>
 6    1  0.9364335E-007  0.3637018E+04  0.7818608E-02  0.8082065E-01
          2   -1    0    0  501    0  0.00000000000E+00  0.00000000000E+00  0.18792939420E+04  0.18792939420E+04  0.00000000000E+00 0. -1.
         -2   -1    0    0    0  501 -0.00000000000E+00 -0.00000000000E+00 -0.17596898277E+04  0.17596898277E+04  0.00000000000E+00 0.  1.
         23    2    1    2    0    0 -0.16417288864E+04  0.17846827338E+03 -0.69937251266E+03  0.17956586826E+04  0.90241521042E+02 0.  0.
         11    1    3    3    0    0 -0.75403548272E+03  0.12137767503E+03 -0.29908617722E+03  0.82021618528E+03  0.00000000000E+00 0. -1.
        -11    1    3    3    0    0 -0.88769340366E+03  0.57090598351E+02 -0.40028633544E+03  0.97544249736E+03  0.00000000000E+00 0.  1.
         22    1    1    2    0    0  0.16417288864E+04 -0.17846827338E+03  0.81897662704E+03  0.18433250871E+04  0.00000000000E+00 0. -1.
<mgrwt>
<rscale>  0 0.36370177E+04</rscale>
<asrwt>0</asrwt>
<pdfrwt beam="1">  1        2 0.28912214E+00 0.36370177E+04</pdfrwt>
<pdfrwt beam="2">  1       -2 0.27072151E+00 0.36370177E+04</pdfrwt>
<totfact> 0.30398494E-01</totfact>
</mgrwt>
</event>
<event>
 6    1  0.9364335E-007  0.4815943E+04  0.7818608E-02  0.7857544E-01
         -1   -1    0    0    0  501 -0.00000000000E+00  0.00000000000E+00  0.23695126071E+04  0.23695126071E+04  0.00000000000E+00 0.  1.
          1   -1    0    0  501    0  0.00000000000E+00 -0.00000000000E+00 -0.24470543143E+04  0.24470543143E+04  0.00000000000E+00 0. -1.
         23    2    1    2    0    0  0.19156384473E+03  0.18123245426E+04 -0.16115767181E+04  0.24344501382E+04  0.90282904642E+02 0.  0.
         11    1    3    3    0    0  0.15904027862E+03  0.14036722309E+04 -0.11998132829E+04  0.18534134606E+04  0.00000000000E+00 0. -1.
        -11    1    3    3    0    0  0.32523566116E+02  0.40865231167E+03 -0.41176343511E+03  0.58103667757E+03  0.00000000000E+00 0.  1.
         22    1    1    2    0    0 -0.19156384473E+03 -0.18123245426E+04  0.15340350109E+04  0.23821167832E+04  0.00000000000E+00 0.  1.
<mgrwt>
<rscale>  0 0.48159427E+04</rscale>
<asrwt>0</asrwt>
<pdfrwt beam="1">  1        1 0.37646989E+00 0.48159427E+04</pdfrwt>
<pdfrwt beam="2">  1       -1 0.36454040E+00 0.48159427E+04</pdfrwt>
<totfact> 0.13425500E-02</totfact>
</mgrwt>
</event>
<event>
 6    1  0.9364335E-007  0.2695544E+04  0.7818608E-02  0.8336452E-01
          2   -1    0    0  501    0  0.00000000000E+00  0.00000000000E+00  0.16109020523E+04  0.16109020523E+04  0.00000000000E+00 0. -1.
         -2   -1    0    0    0  501 -0.00000000000E+00 -0.00000000000E+00 -0.11276228791E+04  0.11276228791E+04  0.00000000000E+00 0.  1.
         23    2    1    2    0    0  0.13022319895E+03  0.35973350018E+03  0.15530901109E+04  0.16023639767E+04  0.95473287648E+02 0.  0.
         11    1    3    3    0    0  0.78371174061E+02  0.22945824682E+03  0.78550538863E+03  0.82207776003E+03  0.00000000000E+00 0. -1.
        -11    1    3    3    0    0  0.51852024887E+02  0.13027525335E+03  0.76758472223E+03  0.78028621667E+03  0.00000000000E+00 0.  1.
         22    1    1    2    0    0 -0.13022319895E+03 -0.35973350018E+03 -0.10698109377E+04  0.11361609547E+04  0.00000000000E+00 0.  1.
<mgrwt>
<rscale>  0 0.26955445E+04</rscale>
<asrwt>0</asrwt>
<pdfrwt beam="1">  1        2 0.24783108E+00 0.26955445E+04</pdfrwt>
<pdfrwt beam="2">  1       -2 0.17348044E+00 0.26955445E+04</pdfrwt>
<totfact> 0.19437511E+00</totfact>
</mgrwt>
</event>
<event>
 6    1  0.9364335E-007  0.1298502E+04  0.7818608E-02  0.9030754E-01
         -2   -1    0    0    0  501 -0.00000000000E+00  0.00000000000E+00  0.17660356044E+03  0.17660356044E+03  0.00000000000E+00 0.  1.
          2   -1    0    0  501    0  0.00000000000E+00 -0.00000000000E+00 -0.23868536941E+04  0.23868536941E+04  0.00000000000E+00 0. -1.
         23    2    1    2    0    0 -0.16870508093E+03  0.21997834058E+02 -0.23408024345E+04  0.23490062992E+04  0.97617862257E+02 0.  0.
         13    1    3    3    0    0 -0.72762722218E+02  0.45272876722E+02 -0.14964428128E+04  0.14988946391E+04  0.00000000000E+00 0. -1.
        -13    1    3    3    0    0 -0.95942358712E+02 -0.23275042664E+02 -0.84435962171E+03  0.85011166007E+03  0.00000000000E+00 0.  1.
         22    1    1    2    0    0  0.16870508093E+03 -0.21997834058E+02  0.13055230082E+03  0.21445095543E+03  0.00000000000E+00 0.  1.
<mgrwt>
<rscale>  0 0.12985020E+04</rscale>
<asrwt>0</asrwt>
<pdfrwt beam="1">  1        2 0.36720824E+00 0.12985020E+04</pdfrwt>
<pdfrwt beam="2">  1       -2 0.27169780E-01 0.12985020E+04</pdfrwt>
<totfact> 0.49041053E+01</totfact>
</mgrwt>
</event>
<event>
 6    1  0.9364335E-007  0.1455869E+04  0.7818608E-02  0.8914342E-01
          2   -1    0    0  501    0  0.00000000000E+00  0.00000000000E+00  0.23161511568E+04  0.23161511568E+04  0.00000000000E+00 0. -1.
         -2   -1    0    0    0  501 -0.00000000000E+00 -0.00000000000E+00 -0.22877967932E+03  0.22877967932E+03  0.00000000000E+00 0.  1.
         23    2    1    2    0    0  0.87304987782E+02 -0.44772776847E+03  0.63403320007E+02  0.47019484857E+03  0.94767605692E+02 0.  0.
         11    1    3    3    0    0  0.99519538390E+02 -0.29366602776E+03  0.58699775658E+02  0.31557810134E+03  0.00000000000E+00 0. -1.
        -11    1    3    3    0    0 -0.12214550608E+02 -0.15406174071E+03  0.47035443491E+01  0.15461674723E+03  0.00000000000E+00 0.  1.
         22    1    1    2    0    0 -0.87304987782E+02  0.44772776847E+03  0.20239681574E+04  0.20747359875E+04  0.00000000000E+00 0. -1.
<mgrwt>
<rscale>  0 0.14558686E+04</rscale>
<asrwt>0</asrwt>
<pdfrwt beam="1">  1        2 0.35633093E+00 0.14558686E+04</pdfrwt>
<pdfrwt beam="2">  1       -2 0.35196875E-01 0.14558686E+04</pdfrwt>
<totfact> 0.32672864E+01</totfact>
</mgrwt>
</event>
<event>
 6    1  0.9364335E-007  0.1947327E+04  0.7818608E-02  0.8631651E-01
         -2   -1    0    0    0  501 -0.00000000000E+00  0.00000000000E+00  0.26292641013E+03  0.26292641013E+03  0.00000000000E+00 0.  1.
          2   -1    0    0  501    0  0.00000000000E+00 -0.00000000000E+00 -0.36056517157E+04  0.36056517157E+04  0.00000000000E+00 0. -1.
         23    2    1    2    0    0  0.12138299720E+03 -0.67158295957E+03 -0.30487675548E+04  0.31254976034E+04  0.89410078876E+02 0.  0.
         13    1    3    3    0    0  0.48513733128E+02 -0.45842751380E+03 -0.21579020133E+04  0.22065925013E+04  0.00000000000E+00 0. -1.
        -13    1    3    3    0    0  0.72869264070E+02 -0.21315544577E+03 -0.89086554150E+03  0.91890510214E+03  0.00000000000E+00 0.  1.
         22    1    1    2    0    0 -0.12138299720E+03  0.67158295957E+03 -0.29395775084E+03  0.74308052246E+03  0.00000000000E+00 0.  1.
<mgrwt>
<rscale>  0 0.19473275E+04</rscale>
<asrwt>0</asrwt>
<pdfrwt beam="1">  1        2 0.55471566E+00 0.19473275E+04</pdfrwt>
<pdfrwt beam="2">  1       -2 0.40450216E-01 0.19473275E+04</pdfrwt>
<totfact> 0.37189206E+00</totfact>
</mgrwt>
</event>
<event>
 6    1  0.9364335E-007  0.3605354E+03  0.7818608E-02  0.1058372E+00
          2   -1    0    0  501    0  0.00000000000E+00  0.00000000000E+00  0.66664590455E+03  0.66664590455E+03  0.00000000000E+00 0. -1.
         -2   -1    0    0    0  501 -0.00000000000E+00 -0.00000000000E+00 -0.48746171061E+02  0.48746171061E+02  0.00000000000E+00 0.  1.
         23    2    1    2    0    0  0.99088381976E+02 -0.81552856913E+02  0.11179980108E+03  0.19327473487E+03  0.91578118048E+02 0.  0.
         13    1    3    3    0    0  0.49867584611E+02  0.58186733317E+01  0.66271320358E+02  0.83141571168E+02  0.00000000000E+00 0.  1.
        -13    1    3    3    0    0  0.49220797365E+02 -0.87371530244E+02  0.45528480717E+02  0.11013316370E+03  0.00000000000E+00 0. -1.
         22    1    1    2    0    0 -0.99088381976E+02  0.81552856913E+02  0.50609993242E+03  0.52211734074E+03  0.00000000000E+00 0. -1.
<mgrwt>
<rscale>  0 0.36053535E+03</rscale>
<asrwt>0</asrwt>
<pdfrwt beam="1">  1        2 0.10256090E+00 0.36053535E+03</pdfrwt>
<pdfrwt beam="2">  1       -2 0.74994114E-02 0.36053535E+03</pdfrwt>
<totfact> 0.46789839E+03</totfact>
</mgrwt>
</event>
<event>
 6    1  0.9364335E-007  0.1160314E+04  0.7818608E-02  0.9148321E-01
         -2   -1    0    0    0  501 -0.00000000000E+00  0.00000000000E+00  0.22638278584E+03  0.22638278584E+03  0.00000000000E+00 0.  1.
          2   -1    0    0  501    0  0.00000000000E+00 -0.00000000000E+00 -0.14867830450E+04  0.14867830450E+04  0.00000000000E+00 0. -1.
         23    2    1    2    0    0 -0.30398771116E+03 -0.39516489493E+03 -0.10621581457E+04  0.11766364670E+04  0.87918292912E+02 0.  0.
         11    1    3    3    0    0 -0.21411719788E+03 -0.27783199870E+03 -0.64717037668E+03  0.73611567731E+03  0.00000000000E+00 0. -1.
        -11    1    3    3    0    0 -0.89870513277E+02 -0.11733289623E+03 -0.41498776901E+03  0.44052078966E+03  0.00000000000E+00 0.  1.
         22    1    1    2    0    0  0.30398771116E+03  0.39516489493E+03 -0.19824211346E+03  0.53652936385E+03  0.00000000000E+00 0.  1.
<mgrwt>
<rscale>  0 0.11603139E+04</rscale>
<asrwt>0</asrwt>
<pdfrwt beam="1">  1        2 0.22873586E+00 0.11603139E+04</pdfrwt>
<pdfrwt beam="2">  1       -2 0.34828120E-01 0.11603139E+04</pdfrwt>
<totfact> 0.98729787E+01</totfact>
</mgrwt>
</event>
<event>
 6    1  0.9364335E-007  0.3373468E+04  0.7818608E-02  0.8144449E-01
          1   -1    0    0  501    0  0.00000000000E+00  0.00000000000E+00  0.17732089723E+04  0.17732089723E+04  0.00000000000E+00 0. -1.
         -1   -1    0    0    0  501 -0.00000000000E+00 -0.00000000000E+00 -0.16044765663E+04  0.16044765663E+04  0.00000000000E+00 0.  1.
         23    2    1    2    0    0  0.85502362854E+02  0.11560881693E+04 -0.11405268244E+04  0.16289687971E+04  0.94272984681E+02 0.  0.
         11    1    3    3    0    0  0.85324034139E+02  0.65924680054E+03 -0.61175849412E+03  0.90340189836E+03  0.00000000000E+00 0.  1.
        -11    1    3    3    0    0  0.17832871472E+00  0.49684136879E+03 -0.52876833023E+03  0.72556689877E+03  0.00000000000E+00 0. -1.
         22    1    1    2    0    0 -0.85502362854E+02 -0.11560881693E+04  0.13092592304E+04  0.17487167414E+04  0.00000000000E+00 0. -1.
<mgrwt>
<rscale>  0 0.33734684E+04</rscale>
<asrwt>0</asrwt>
<pdfrwt beam="1">  1        1 0.27280138E+00 0.33734684E+04</pdfrwt>
<pdfrwt beam="2">  1       -1 0.24684255E+00 0.33734684E+04</pdfrwt>
<totfact> 0.25614601E-01</totfact>
</mgrwt>
</event>
<event>
 6    1  0.9364335E-007  0.2776384E+04  0.7818608E-02  0.8310638E-01
          2   -1    0    0  501    0  0.00000000000E+00  0.00000000000E+00  0.93239424524E+03  0.93239424524E+03  0.00000000000E+00 0. -1.
         -2   -1    0    0    0  501 -0.00000000000E+00 -0.00000000000E+00 -0.20668045389E+04  0.20668045389E+04  0.00000000000E+00 0.  1.
         23    2    1    2    0    0 -0.10737962691E+04  0.60493421242E+03  0.11876716729E+03  0.12415191838E+04  0.90996783931E+02 0.  0.
         13    1    3    3    0    0 -0.53163272356E+03  0.26769952621E+03  0.93528361437E+02  0.60253128009E+03  0.00000000000E+00 0.  1.
        -13    1    3    3    0    0 -0.54216354557E+03  0.33723468621E+03  0.25238805855E+02  0.63898790368E+03  0.00000000000E+00 0. -1.
         22    1    1    2    0    0  0.10737962691E+04 -0.60493421242E+03 -0.12531774610E+04  0.17576796004E+04  0.00000000000E+00 0.  1.
<mgrwt>
<rscale>  0 0.27763837E+04</rscale>
<asrwt>0</asrwt>
<pdfrwt beam="1">  1        2 0.14344527E+00 0.27763837E+04</pdfrwt>
<pdfrwt beam="2">  1       -2 0.31796993E+00 0.27763837E+04</pdfrwt>
<totfact> 0.59925233E-01</totfact>
</mgrwt>
</event>
<event>
 6    1  0.9364335E-007  0.1348575E+04  0.7818608E-02  0.8991908E-01
         -2   -1    0    0    0  501 -0.00000000000E+00  0.00000000000E+00  0.30518467425E+03  0.30518467425E+03  0.00000000000E+00 0.  1.
          2   -1    0    0  501    0  0.00000000000E+00 -0.00000000000E+00 -0.14897975109E+04  0.14897975109E+04  0.00000000000E+00 0. -1.
         23    2    1    2    0    0  0.25411819364E+03  0.59460708838E+03 -0.83448027989E+03  0.10596411396E+04  0.91369367939E+02 0.  0.
         11    1    3    3    0    0  0.19175820183E+03  0.37635354022E+03 -0.59496238756E+03  0.72965295711E+03  0.00000000000E+00 0.  1.
        -11    1    3    3    0    0  0.62359991816E+02  0.21825354817E+03 -0.23951789233E+03  0.32998818253E+03  0.00000000000E+00 0. -1.
         22    1    1    2    0    0 -0.25411819364E+03 -0.59460708838E+03 -0.35013255674E+03  0.73534104549E+03  0.00000000000E+00 0.  1.
<mgrwt>
<rscale>  0 0.13485746E+04</rscale>
<asrwt>0</asrwt>
<pdfrwt beam="1">  1        2 0.22919961E+00 0.13485746E+04</pdfrwt>
<pdfrwt beam="2">  1       -2 0.46951489E-01 0.13485746E+04</pdfrwt>
<totfact> 0.54018348E+01</totfact>
</mgrwt>
</event>
<event>
 6    1  0.9364335E-007  0.3090458E+04  0.7818608E-02  0.8218361E-01
          2   -1    0    0  501    0  0.00000000000E+00  0.00000000000E+00  0.29421416099E+04  0.29421416099E+04  0.00000000000E+00 0. -1.
         -2   -1    0    0    0  501 -0.00000000000E+00 -0.00000000000E+00 -0.81156287490E+03  0.81156287490E+03  0.00000000000E+00 0.  1.
         23    2    1    2    0    0  0.72502467138E+03 -0.13529294600E+04  0.12666009487E+04  0.19923026246E+04  0.94408086730E+02 0.  0.
         13    1    3    3    0    0  0.42183730130E+03 -0.82915315520E+03  0.82093763382E+03  0.12407176400E+04  0.00000000000E+00 0. -1.
        -13    1    3    3    0    0  0.30318737008E+03 -0.52377630482E+03  0.44566331484E+03  0.75158498459E+03  0.00000000000E+00 0.  1.
         22    1    1    2    0    0 -0.72502467138E+03  0.13529294600E+04  0.86397778632E+03  0.17614018602E+04  0.00000000000E+00 0. -1.
<mgrwt>
<rscale>  0 0.30904582E+04</rscale>
<asrwt>0</asrwt>
<pdfrwt beam="1">  1        2 0.45263717E+00 0.30904582E+04</pdfrwt>
<pdfrwt beam="2">  1       -2 0.12485583E+00 0.30904582E+04</pdfrwt>
<totfact> 0.77261350E-01</totfact>
</mgrwt>
</event>
<event>
 6    1  0.9364335E-007  0.1044881E+04  0.7818608E-02  0.9260645E-01
         -1   -1    0    0    0  501 -0.00000000000E+00  0.00000000000E+00  0.79436875069E+03  0.79436875069E+03  0.00000000000E+00 0.  1.
          1   -1    0    0  501    0  0.00000000000E+00 -0.00000000000E+00 -0.34359884711E+03  0.34359884711E+03  0.00000000000E+00 0. -1.
         23    2    1    2    0    0  0.18879988203E+03 -0.22658215123E+03 -0.23729235193E+03  0.38935919938E+03  0.91148555402E+02 0.  0.
         13    1    3    3    0    0  0.16170595628E+03 -0.19036362724E+03 -0.23671590286E+03  0.34412431698E+03  0.00000000000E+00 0. -1.
        -13    1    3    3    0    0  0.27093925749E+02 -0.36218523987E+02 -0.57644907026E+00  0.45234882401E+02  0.00000000000E+00 0.  1.
         22    1    1    2    0    0 -0.18879988203E+03  0.22658215123E+03  0.68806225552E+03  0.74860839841E+03  0.00000000000E+00 0.  1.
<mgrwt>
<rscale>  0 0.10448812E+04</rscale>
<asrwt>0</asrwt>
<pdfrwt beam="1">  1        1 0.52861361E-01 0.10448812E+04</pdfrwt>
<pdfrwt beam="2">  1       -1 0.12221058E+00 0.10448812E+04</pdfrwt>
<totfact> 0.43445992E+01</totfact>
</mgrwt>
</event>
<event>
 6    1  0.9364335E-007  0.2802698E+04  0.7818608E-02  0.8302431E-01
         -1   -1    0    0    0  501 -0.00000000000E+00  0.00000000000E+00  0.64557108171E+03  0.64557108171E+03  0.00000000000E+00 0.  1.
          1   -1    0    0  501    0  0.00000000000E+00 -0.00000000000E+00 -0.30419255680E+04  0.30419255680E+04  0.00000000000E+00 0. -1.
         23    2    1    2    0    0  0.48784757529E+03  0.40947262693E+03 -0.28395637598E+04  0.29115471996E+04  0.91223136912E+02 0.  0.
         13    1    3    3    0    0  0.21536303247E+03  0.22292679425E+03 -0.15209091290E+04  0.15521733698E+04  0.00000000000E+00 0. -1.
        -13    1    3    3    0    0  0.27248454282E+03  0.18654583268E+03 -0.13186546308E+04  0.13593738298E+04  0.00000000000E+00 0.  1.
         22    1    1    2    0    0 -0.48784757529E+03 -0.40947262693E+03  0.44320927353E+03  0.77594945007E+03  0.00000000000E+00 0.  1.
<mgrwt>
<rscale>  0 0.28026981E+04</rscale>
<asrwt>0</asrwt>
<pdfrwt beam="1">  1        1 0.46798855E+00 0.28026981E+04</pdfrwt>
<pdfrwt beam="2">  1       -1 0.99318628E-01 0.28026981E+04</pdfrwt>
<totfact> 0.46642134E-01</totfact>
</mgrwt>
</event>
<event>
 6    1  0.9364335E-007  0.3691589E+04  0.7818608E-02  0.8069828E-01
         -2   -1    0    0    0  501 -0.00000000000E+00  0.00000000000E+00  0.11872212032E+04  0.11872212032E+04  0.00000000000E+00 0.  1.
          2   -1    0    0  501    0  0.00000000000E+00 -0.00000000000E+00 -0.28696907681E+04  0.28696907681E+04  0.00000000000E+00 0. -1.
         23    2    1    2    0    0  0.65412366888E+03 -0.15848146750E+04 -0.15898390896E+04  0.23399100106E+04  0.89862108921E+02 0.  0.
         13    1    3    3    0    0  0.43003631244E+03 -0.92897275693E+03 -0.93522676395E+03  0.13865679620E+04  0.00000000000E+00 0.  1.
        -13    1    3    3    0    0  0.22408735644E+03 -0.65584191803E+03 -0.65461232563E+03  0.95334204859E+03  0.00000000000E+00 0. -1.
         22    1    1    2    0    0 -0.65412366888E+03  0.15848146750E+04 -0.92630475252E+02  0.17170019607E+04  0.00000000000E+00 0.  1.
<mgrwt>
<rscale>  0 0.36915892E+04</rscale>
<asrwt>0</asrwt>
<pdfrwt beam="1">  1        2 0.44149088E+00 0.36915892E+04</pdfrwt>
<pdfrwt beam="2">  1       -2 0.18264942E+00 0.36915892E+04</pdfrwt>
<totfact> 0.29481791E-01</totfact>
</mgrwt>
</event>
<event>
 6    1  0.9364335E-007  0.2777591E+04  0.7818608E-02  0.8310259E-01
         -2   -1    0    0    0  501 -0.00000000000E+00  0.00000000000E+00  0.91981029320E+03  0.91981029320E+03  0.00000000000E+00 0.  1.
          2   -1    0    0  501    0  0.00000000000E+00 -0.00000000000E+00 -0.20969035628E+04  0.20969035628E+04  0.00000000000E+00 0. -1.
         23    2    1    2    0    0  0.59525458706E+03  0.10435073181E+04 -0.13429301982E+04  0.18039742165E+04  0.87326458621E+02 0.  0.
         13    1    3    3    0    0  0.44783690201E+03  0.72374511120E+03 -0.91100314392E+03  0.12467123185E+04  0.00000000000E+00 0. -1.
        -13    1    3    3    0    0  0.14741768505E+03  0.31976220686E+03 -0.43192705432E+03  0.55726189808E+03  0.00000000000E+00 0.  1.
         22    1    1    2    0    0 -0.59525458706E+03 -0.10435073181E+04  0.16583692863E+03  0.12127396395E+04  0.00000000000E+00 0.  1.
<mgrwt>
<rscale>  0 0.27775914E+04</rscale>
<asrwt>0</asrwt>
<pdfrwt beam="1">  1        2 0.32260054E+00 0.27775914E+04</pdfrwt>
<pdfrwt beam="2">  1       -2 0.14150928E+00 0.27775914E+04</pdfrwt>
<totfact> 0.17962169E+00</totfact>
</mgrwt>
</event>
<event>
 6    1  0.9364335E-007  0.2758216E+04  0.7818608E-02  0.8316359E-01
         -2   -1    0    0    0  501 -0.00000000000E+00  0.00000000000E+00  0.18313828505E+04  0.18313828505E+04  0.00000000000E+00 0.  1.
          2   -1    0    0  501    0  0.00000000000E+00 -0.00000000000E+00 -0.10385258158E+04  0.10385258158E+04  0.00000000000E+00 0. -1.
         23    2    1    2    0    0 -0.99768788132E+03  0.94874567234E+03  0.34604004256E+03  0.14224471352E+04  0.90070429234E+02 0.  0.
         11    1    3    3    0    0 -0.35307542948E+03  0.27835641013E+03  0.12015102230E+03  0.46538244286E+03  0.00000000000E+00 0. -1.
        -11    1    3    3    0    0 -0.64461245184E+03  0.67038926221E+03  0.22588902026E+03  0.95706469239E+03  0.00000000000E+00 0.  1.
         22    1    1    2    0    0  0.99768788132E+03 -0.94874567234E+03  0.44681699221E+03  0.14474615310E+04  0.00000000000E+00 0.  1.
<mgrwt>
<rscale>  0 0.27582156E+04</rscale>
<asrwt>0</asrwt>
<pdfrwt beam="1">  1        2 0.15977320E+00 0.27582156E+04</pdfrwt>
<pdfrwt beam="2">  1       -2 0.28175121E+00 0.27582156E+04</pdfrwt>
<totfact> 0.85391572E-01</totfact>
</mgrwt>
</event>
<event>
 6    1  0.9364335E-007  0.2346423E+04  0.7818608E-02  0.8459839E-01
         -2   -1    0    0    0  501 -0.00000000000E+00  0.00000000000E+00  0.87565579779E+03  0.87565579779E+03  0.00000000000E+00 0.  1.
          2   -1    0    0  501    0  0.00000000000E+00 -0.00000000000E+00 -0.15718795811E+04  0.15718795811E+04  0.00000000000E+00 0. -1.
         23    2    1    2    0    0  0.11288534269E+04 -0.23329292499E+03 -0.13160004132E+03  0.11639717387E+04  0.93680250991E+02 0.  0.
         13    1    3    3    0    0  0.68872952993E+03 -0.15170117841E+03 -0.35389988360E+02  0.70612609654E+03  0.00000000000E+00 0. -1.
        -13    1    3    3    0    0  0.44012389697E+03 -0.81591746586E+02 -0.96210052956E+02  0.45784564220E+03  0.00000000000E+00 0.  1.
         22    1    1    2    0    0 -0.11288534269E+04  0.23329292499E+03 -0.56462374200E+03  0.12835636402E+04  0.00000000000E+00 0. -1.
<mgrwt>
<rscale>  0 0.23464232E+04</rscale>
<asrwt>0</asrwt>
<pdfrwt beam="1">  1        2 0.24182763E+00 0.23464232E+04</pdfrwt>
<pdfrwt beam="2">  1       -2 0.13471628E+00 0.23464232E+04</pdfrwt>
<totfact> 0.41434409E+00</totfact>
</mgrwt>
</event>
<event>
 6    1  0.9364335E-007  0.1863056E+04  0.7818608E-02  0.8673468E-01
          1   -1    0    0  501    0  0.00000000000E+00  0.00000000000E+00  0.11046626797E+04  0.11046626797E+04  0.00000000000E+00 0. -1.
         -1   -1    0    0    0  501 -0.00000000000E+00 -0.00000000000E+00 -0.78552849471E+03  0.78552849471E+03  0.00000000000E+00 0.  1.
         23    2    1    2    0    0 -0.27411014951E+03 -0.45021002142E+03  0.93645947637E+03  0.10784547930E+04  0.91010726267E+02 0.  0.
         11    1    3    3    0    0 -0.19141461772E+03 -0.37884009642E+03  0.71432215042E+03  0.83091245575E+03  0.00000000000E+00 0. -1.
        -11    1    3    3    0    0 -0.82695531789E+02 -0.71369924996E+02  0.22213732595E+03  0.24754233729E+03  0.00000000000E+00 0.  1.
         22    1    1    2    0    0  0.27411014951E+03  0.45021002142E+03 -0.61732529139E+03  0.81173638137E+03  0.00000000000E+00 0.  1.
<mgrwt>
<rscale>  0 0.18630556E+04</rscale>
<asrwt>0</asrwt>
<pdfrwt beam="1">  1        1 0.16994811E+00 0.18630556E+04</pdfrwt>
<pdfrwt beam="2">  1       -1 0.12085054E+00 0.18630556E+04</pdfrwt>
<totfact> 0.71827600E+00</totfact>
</mgrwt>
</event>
<event>
 6    1  0.9364335E-007  0.1101638E+04  0.7818608E-02  0.9203596E-01
         -1   -1    0    0    0  501 -0.00000000000E+00  0.00000000000E+00  0.26346797586E+03  0.26346797586E+03  0.00000000000E+00 0.  1.
          1   -1    0    0  501    0  0.00000000000E+00 -0.00000000000E+00 -0.11515700345E+04  0.11515700345E+04  0.00000000000E+00 0. -1.
         23    2    1    2    0    0 -0.46441019206E+03 -0.28322711785E+03 -0.51979674896E+03  0.75811851153E+03  0.93062293842E+02 0.  0.
         11    1    3    3    0    0 -0.17789035589E+03 -0.13834464093E+03 -0.16296149864E+03  0.27810190296E+03  0.00000000000E+00 0. -1.
        -11    1    3    3    0    0 -0.28651983616E+03 -0.14488247691E+03 -0.35683525032E+03  0.48001660857E+03  0.00000000000E+00 0.  1.
         22    1    1    2    0    0  0.46441019206E+03  0.28322711785E+03 -0.36830530964E+03  0.65691949878E+03  0.00000000000E+00 0.  1.
<mgrwt>
<rscale>  0 0.11016385E+04</rscale>
<asrwt>0</asrwt>
<pdfrwt beam="1">  1        1 0.17716462E+00 0.11016385E+04</pdfrwt>
<pdfrwt beam="2">  1       -1 0.40533535E-01 0.11016385E+04</pdfrwt>
<totfact> 0.68665992E+01</totfact>
</mgrwt>
</event>
<event>
 6    1  0.9364335E-007  0.1326481E+04  0.7818608E-02  0.9008825E-01
         -1   -1    0    0    0  501 -0.00000000000E+00  0.00000000000E+00  0.60499442090E+03  0.60499442090E+03  0.00000000000E+00 0.  1.
          1   -1    0    0  501    0  0.00000000000E+00 -0.00000000000E+00 -0.72709472892E+03  0.72709472892E+03  0.00000000000E+00 0. -1.
         23    2    1    2    0    0 -0.43459179706E+03  0.36458576789E+03 -0.40049505094E+03  0.70019007156E+03  0.89872344236E+02 0.  0.
         13    1    3    3    0    0 -0.14242122673E+03  0.10581713226E+03 -0.17613779470E+03  0.25001118780E+03  0.00000000000E+00 0. -1.
        -13    1    3    3    0    0 -0.29217057033E+03  0.25876863563E+03 -0.22435725624E+03  0.45017888376E+03  0.00000000000E+00 0.  1.
         22    1    1    2    0    0  0.43459179706E+03 -0.36458576789E+03  0.27839474292E+03  0.63189907826E+03  0.00000000000E+00 0.  1.
<mgrwt>
<rscale>  0 0.13264814E+04</rscale>
<asrwt>0</asrwt>
<pdfrwt beam="1">  1        1 0.11186073E+00 0.13264814E+04</pdfrwt>
<pdfrwt beam="2">  1       -1 0.93076065E-01 0.13264814E+04</pdfrwt>
<totfact> 0.28266506E+01</totfact>
</mgrwt>
</event>
<event>
 6    1  0.9364335E-007  0.1157943E+04  0.7818608E-02  0.9150487E-01
         -2   -1    0    0    0  501 -0.00000000000E+00  0.00000000000E+00  0.10622474077E+04  0.10622474077E+04  0.00000000000E+00 0.  1.
          2   -1    0    0  501    0  0.00000000000E+00 -0.00000000000E+00 -0.31556481976E+03  0.31556481976E+03  0.00000000000E+00 0. -1.
         23    2    1    2    0    0 -0.33157459710E+03 -0.23469440111E+03 -0.10935154875E+03  0.43027984356E+03  0.90331651204E+02 0.  0.
         13    1    3    3    0    0 -0.27101858260E+03 -0.14350426584E+03 -0.78709054082E+02  0.31660647754E+03  0.00000000000E+00 0. -1.
        -13    1    3    3    0    0 -0.60556014497E+02 -0.91190135268E+02 -0.30642494667E+02  0.11367336602E+03  0.00000000000E+00 0.  1.
         22    1    1    2    0    0  0.33157459710E+03  0.23469440111E+03  0.85603413667E+03  0.94753238387E+03  0.00000000000E+00 0.  1.
<mgrwt>
<rscale>  0 0.11579429E+04</rscale>
<asrwt>0</asrwt>
<pdfrwt beam="1">  1        2 0.48548434E-01 0.11579429E+04</pdfrwt>
<pdfrwt beam="2">  1       -2 0.16342268E+00 0.11579429E+04</pdfrwt>
<totfact> 0.24375579E+01</totfact>
</mgrwt>
</event>
<event>
 6    1  0.9364335E-007  0.2876951E+04  0.7818608E-02  0.8279769E-01
          2   -1    0    0  501    0  0.00000000000E+00  0.00000000000E+00  0.17438596400E+04  0.17438596400E+04  0.00000000000E+00 0. -1.
         -2   -1    0    0    0  501 -0.00000000000E+00 -0.00000000000E+00 -0.11865697858E+04  0.11865697858E+04  0.00000000000E+00 0.  1.
         23    2    1    2    0    0 -0.10264074617E+04 -0.90454254294E+03 -0.16926782363E+03  0.13813666289E+04  0.88389353581E+02 0.  0.
         11    1    3    3    0    0 -0.27570742382E+03 -0.21817259284E+03 -0.94981241223E+01  0.35171590549E+03  0.00000000000E+00 0. -1.
        -11    1    3    3    0    0 -0.75070003790E+03 -0.68636995011E+03 -0.15976969951E+03  0.10296507234E+04  0.00000000000E+00 0.  1.
         22    1    1    2    0    0  0.10264074617E+04  0.90454254294E+03  0.72655767791E+03  0.15490627969E+04  0.00000000000E+00 0. -1.
<mgrwt>
<rscale>  0 0.28769506E+04</rscale>
<asrwt>0</asrwt>
<pdfrwt beam="1">  1        2 0.26828610E+00 0.28769506E+04</pdfrwt>
<pdfrwt beam="2">  1       -2 0.18254920E+00 0.28769506E+04</pdfrwt>
<totfact> 0.13962467E+00</totfact>
</mgrwt>
</event>
<event>
 6    1  0.9364335E-007  0.8619853E+03  0.7818608E-02  0.9474390E-01
          3   -1    0    0  501    0  0.00000000000E+00  0.00000000000E+00  0.11263145819E+04  0.11263145819E+04  0.00000000000E+00 0. -1.
         -3   -1    0    0    0  501 -0.00000000000E+00 -0.00000000000E+00 -0.16492254242E+03  0.16492254242E+03  0.00000000000E+00 0.  1.
         23    2    1    2    0    0 -0.33770125774E+03 -0.13587510622E+02  0.92327166014E+02  0.35876700994E+03  0.77218533478E+02 0.  0.
         11    1    3    3    0    0 -0.59203687876E+02 -0.44817957427E+01  0.48564256427E+02  0.76704955208E+02  0.00000000000E+00 0. -1.
        -11    1    3    3    0    0 -0.27849756986E+03 -0.91057148791E+01  0.43762909587E+02  0.28206205473E+03  0.00000000000E+00 0.  1.
         22    1    1    2    0    0  0.33770125774E+03  0.13587510622E+02  0.86906487349E+03  0.93247011440E+03  0.00000000000E+00 0. -1.
<mgrwt>
<rscale>  0 0.86198530E+03</rscale>
<asrwt>0</asrwt>
<pdfrwt beam="1">  1        3 0.17327916E+00 0.86198530E+03</pdfrwt>
<pdfrwt beam="2">  1       -3 0.25372700E-01 0.86198530E+03</pdfrwt>
<totfact> 0.86435606E+00</totfact>
</mgrwt>
</event>
<event>
 6    1  0.9364335E-007  0.1314199E+04  0.7818608E-02  0.9018381E-01
         -1   -1    0    0    0  501 -0.00000000000E+00  0.00000000000E+00  0.73706952365E+03  0.73706952365E+03  0.00000000000E+00 0.  1.
          1   -1    0    0  501    0  0.00000000000E+00 -0.00000000000E+00 -0.58580572501E+03  0.58580572501E+03  0.00000000000E+00 0. -1.
         23    2    1    2    0    0 -0.23681084160E+03 -0.19216398576E+03 -0.50634731381E+03  0.59798991474E+03  0.90542607623E+02 0.  0.
         11    1    3    3    0    0 -0.10636993232E+03 -0.10325915971E+03 -0.32719795981E+03  0.35921514649E+03  0.00000000000E+00 0.  1.
        -11    1    3    3    0    0 -0.13044090928E+03 -0.88904826055E+02 -0.17914935401E+03  0.23877476825E+03  0.00000000000E+00 0. -1.
         22    1    1    2    0    0  0.23681084160E+03  0.19216398576E+03  0.65761111245E+03  0.72488533393E+03  0.00000000000E+00 0.  1.
<mgrwt>
<rscale>  0 0.13141987E+04</rscale>
<asrwt>0</asrwt>
<pdfrwt beam="1">  1        1 0.90123957E-01 0.13141987E+04</pdfrwt>
<pdfrwt beam="2">  1       -1 0.11339531E+00 0.13141987E+04</pdfrwt>
<totfact> 0.24713558E+01</totfact>
</mgrwt>
</event>
<event>
 6    1  0.9364335E-007  0.2537825E+04  0.7818608E-02  0.8389633E-01
          1   -1    0    0  501    0  0.00000000000E+00  0.00000000000E+00  0.22722686198E+04  0.22722686198E+04  0.00000000000E+00 0. -1.
         -1   -1    0    0    0  501 -0.00000000000E+00 -0.00000000000E+00 -0.70860391070E+03  0.70860391070E+03  0.00000000000E+00 0.  1.
         23    2    1    2    0    0  0.33728098165E+03 -0.41753114009E+03  0.21313123014E+04  0.21996462492E+04  0.88661052119E+02 0.  0.
         13    1    3    3    0    0  0.26005145183E+03 -0.37289870188E+03  0.17594403918E+04  0.18172260982E+04  0.00000000000E+00 0.  1.
        -13    1    3    3    0    0  0.77229529828E+02 -0.44632438210E+02  0.37187190957E+03  0.38242015107E+03  0.00000000000E+00 0. -1.
         22    1    1    2    0    0 -0.33728098165E+03  0.41753114009E+03 -0.56764759228E+03  0.78122628127E+03  0.00000000000E+00 0.  1.
<mgrwt>
<rscale>  0 0.25378246E+04</rscale>
<asrwt>0</asrwt>
<pdfrwt beam="1">  1        1 0.34957978E+00 0.25378246E+04</pdfrwt>
<pdfrwt beam="2">  1       -1 0.10901599E+00 0.25378246E+04</pdfrwt>
<totfact> 0.13418045E+00</totfact>
</mgrwt>
</event>
<event>
 6    1  0.9364335E-007  0.1794220E+04  0.7818608E-02  0.8709379E-01
         -2   -1    0    0    0  501 -0.00000000000E+00  0.00000000000E+00  0.10391558426E+04  0.10391558426E+04  0.00000000000E+00 0.  1.
          2   -1    0    0  501    0  0.00000000000E+00 -0.00000000000E+00 -0.77448054020E+03  0.77448054020E+03  0.00000000000E+00 0. -1.
         23    2    1    2    0    0 -0.64397538345E+03 -0.26813759983E+03  0.69866179424E+03  0.99208520237E+03  0.97481685964E+02 0.  0.
         11    1    3    3    0    0 -0.45495444375E+03 -0.20760826963E+03  0.44034854054E+03  0.66632692927E+03  0.00000000000E+00 0. -1.
        -11    1    3    3    0    0 -0.18902093969E+03 -0.60529330202E+02  0.25831325370E+03  0.32575827310E+03  0.00000000000E+00 0.  1.
         22    1    1    2    0    0  0.64397538345E+03  0.26813759983E+03 -0.43398649186E+03  0.82155118042E+03  0.00000000000E+00 0. -1.
<mgrwt>
<rscale>  0 0.17942196E+04</rscale>
<asrwt>0</asrwt>
<pdfrwt beam="1">  1        2 0.11915085E+00 0.17942196E+04</pdfrwt>
<pdfrwt beam="2">  1       -2 0.15987013E+00 0.17942196E+04</pdfrwt>
<totfact> 0.85694164E+00</totfact>
</mgrwt>
</event>
<event>
 6    1  0.9364335E-007  0.2823347E+04  0.7818608E-02  0.8296057E-01
          2   -1    0    0  501    0  0.00000000000E+00  0.00000000000E+00  0.16559563823E+04  0.16559563823E+04  0.00000000000E+00 0. -1.
         -2   -1    0    0    0  501 -0.00000000000E+00 -0.00000000000E+00 -0.12034264181E+04  0.12034264181E+04  0.00000000000E+00 0.  1.
         23    2    1    2    0    0 -0.12198681130E+04  0.22711621549E+03 -0.45165021133E+03  0.13240646645E+04  0.97464527146E+02 0.  0.
         11    1    3    3    0    0 -0.43471664487E+03  0.12219684308E+03 -0.18904775178E+03  0.48954027643E+03  0.00000000000E+00 0. -1.
        -11    1    3    3    0    0 -0.78515146810E+03  0.10491937241E+03 -0.26260245955E+03  0.83452438809E+03  0.00000000000E+00 0.  1.
         22    1    1    2    0    0  0.12198681130E+04 -0.22711621549E+03  0.90418017556E+03  0.15353181358E+04  0.00000000000E+00 0. -1.
<mgrwt>
<rscale>  0 0.28233467E+04</rscale>
<asrwt>0</asrwt>
<pdfrwt beam="1">  1        2 0.25476252E+00 0.28233467E+04</pdfrwt>
<pdfrwt beam="2">  1       -2 0.18514253E+00 0.28233467E+04</pdfrwt>
<totfact> 0.15069038E+00</totfact>
</mgrwt>
</event>
<event>
 6    1  0.9364335E-007  0.3285349E+04  0.7818608E-02  0.8166633E-01
          2   -1    0    0  501    0  0.00000000000E+00  0.00000000000E+00  0.22653891637E+04  0.22653891637E+04  0.00000000000E+00 0. -1.
         -2   -1    0    0    0  501 -0.00000000000E+00 -0.00000000000E+00 -0.11911330112E+04  0.11911330112E+04  0.00000000000E+00 0.  1.
         23    2    1    2    0    0 -0.10960100227E+04 -0.83033826844E+03 -0.40536929360E+03  0.14366233975E+04  0.94143040418E+02 0.  0.
         13    1    3    3    0    0 -0.60499054694E+03 -0.45727230555E+03 -0.17467626231E+03  0.77821804138E+03  0.00000000000E+00 0. -1.
        -13    1    3    3    0    0 -0.49101947580E+03 -0.37306596289E+03 -0.23069303129E+03  0.65840535612E+03  0.00000000000E+00 0.  1.
         22    1    1    2    0    0  0.10960100227E+04  0.83033826844E+03  0.14796254462E+04  0.20198987774E+04  0.00000000000E+00 0. -1.
<mgrwt>
<rscale>  0 0.32853492E+04</rscale>
<asrwt>0</asrwt>
<pdfrwt beam="1">  1        2 0.34852141E+00 0.32853492E+04</pdfrwt>
<pdfrwt beam="2">  1       -2 0.18325123E+00 0.32853492E+04</pdfrwt>
<totfact> 0.68306029E-01</totfact>
</mgrwt>
</event>
<event>
 6    1  0.1404611E-006  0.3018124E+04  0.7818608E-02  0.8238574E-01
          2   -1    0    0  501    0  0.00000000000E+00  0.00000000000E+00  0.21855889108E+04  0.21855889108E+04  0.00000000000E+00 0. -1.
         -2   -1    0    0    0  501 -0.00000000000E+00 -0.00000000000E+00 -0.10419471401E+04  0.10419471401E+04  0.00000000000E+00 0.  1.
         23    2    1    2    0    0 -0.77733887514E+03 -0.45132681843E+02  0.19529478782E+04  0.21044736923E+04  0.92257361788E+02 0.  0.
         11    1    3    3    0    0 -0.11975617293E+03 -0.50138800516E+01  0.39971741556E+03  0.41730168014E+03  0.00000000000E+00 0. -1.
        -11    1    3    3    0    0 -0.65758270221E+03 -0.40118801792E+02  0.15532304627E+04  0.16871720122E+04  0.00000000000E+00 0.  1.
         22    1    1    2    0    0  0.77733887514E+03  0.45132681843E+02 -0.80930610753E+03  0.11230623587E+04  0.00000000000E+00 0.  1.
<mgrwt>
<rscale>  0 0.30181240E+04</rscale>
<asrwt>0</asrwt>
<pdfrwt beam="1">  1        2 0.33624445E+00 0.30181240E+04</pdfrwt>
<pdfrwt beam="2">  1       -2 0.16029956E+00 0.30181240E+04</pdfrwt>
<totfact> 0.11269690E+00</totfact>
</mgrwt>
</event>
<event>
 6    1  0.9364335E-007  0.5459239E+04  0.7818608E-02  0.7761323E-01
         -2   -1    0    0    0  501 -0.00000000000E+00  0.00000000000E+00  0.17655927764E+04  0.17655927764E+04  0.00000000000E+00 0.  1.
          2   -1    0    0  501    0  0.00000000000E+00 -0.00000000000E+00 -0.42200117509E+04  0.42200117509E+04  0.00000000000E+00 0. -1.
         23    2    1    2    0    0 -0.10771152996E+04 -0.11469987015E+04 -0.36720429453E+04  0.39960338388E+04  0.92755910073E+02 0.  0.
         13    1    3    3    0    0 -0.16699290196E+03 -0.18211199734E+03 -0.49558945692E+03  0.55376919261E+03  0.00000000000E+00 0.  1.
        -13    1    3    3    0    0 -0.91012239767E+03 -0.96488670421E+03 -0.31764534884E+04  0.34422646462E+04  0.00000000000E+00 0. -1.
         22    1    1    2    0    0  0.10771152996E+04  0.11469987015E+04  0.12176239708E+04  0.19895706884E+04  0.00000000000E+00 0.  1.
<mgrwt>
<rscale>  0 0.54592389E+04</rscale>
<asrwt>0</asrwt>
<pdfrwt beam="1">  1        2 0.64923257E+00 0.54592389E+04</pdfrwt>
<pdfrwt beam="2">  1       -2 0.27162966E+00 0.54592389E+04</pdfrwt>
<totfact> 0.73756682E-03</totfact>
</mgrwt>
</event>
<event>
 6    1  0.9364335E-007  0.2131348E+04  0.7818608E-02  0.8547559E-01
         -2   -1    0    0    0  501 -0.00000000000E+00  0.00000000000E+00  0.41888941655E+03  0.41888941655E+03  0.00000000000E+00 0.  1.
          2   -1    0    0  501    0  0.00000000000E+00 -0.00000000000E+00 -0.27111241585E+04  0.27111241585E+04  0.00000000000E+00 0. -1.
         23    2    1    2    0    0 -0.95142686975E+03 -0.35538121486E+03 -0.16123316187E+04  0.19078118105E+04  0.92864197137E+02 0.  0.
         11    1    3    3    0    0 -0.85842244355E+03 -0.34208506527E+03 -0.14278335374E+04  0.17007703825E+04  0.00000000000E+00 0.  1.
        -11    1    3    3    0    0 -0.93004426198E+02 -0.13296149586E+02 -0.18449808131E+03  0.20704142797E+03  0.00000000000E+00 0. -1.
         22    1    1    2    0    0  0.95142686975E+03  0.35538121486E+03 -0.67990312324E+03  0.12222017646E+04  0.00000000000E+00 0.  1.
<mgrwt>
<rscale>  0 0.21313481E+04</rscale>
<asrwt>0</asrwt>
<pdfrwt beam="1">  1        2 0.41709605E+00 0.21313481E+04</pdfrwt>
<pdfrwt beam="2">  1       -2 0.64444522E-01 0.21313481E+04</pdfrwt>
<totfact> 0.53494910E+00</totfact>
</mgrwt>
</event>
<event>
 6    1  0.9364335E-007  0.1999575E+04  0.7818608E-02  0.8606819E-01
         -1   -1    0    0    0  501 -0.00000000000E+00  0.00000000000E+00  0.32262553067E+03  0.32262553067E+03  0.00000000000E+00 0.  1.
          1   -1    0    0  501    0  0.00000000000E+00 -0.00000000000E+00 -0.30982510987E+04  0.30982510987E+04  0.00000000000E+00 0. -1.
         23    2    1    2    0    0 -0.22369924519E+03  0.93768898699E+03 -0.18316012679E+04  0.20716235516E+04  0.86942201357E+02 0.  0.
         11    1    3    3    0    0 -0.60083014202E+02  0.26829133191E+03 -0.44180788848E+03  0.52036950112E+03  0.00000000000E+00 0.  1.
        -11    1    3    3    0    0 -0.16361623099E+03  0.66939765508E+03 -0.13897933794E+04  0.15512540505E+04  0.00000000000E+00 0. -1.
         22    1    1    2    0    0  0.22369924519E+03 -0.93768898699E+03 -0.94402430012E+03  0.13492530778E+04  0.00000000000E+00 0.  1.
<mgrwt>
<rscale>  0 0.19995749E+04</rscale>
<asrwt>0</asrwt>
<pdfrwt beam="1">  1        1 0.47665402E+00 0.19995749E+04</pdfrwt>
<pdfrwt beam="2">  1       -1 0.49634696E-01 0.19995749E+04</pdfrwt>
<totfact> 0.19156924E+00</totfact>
</mgrwt>
</event>
<event>
 6    1  0.9364335E-007  0.3770175E+04  0.7818608E-02  0.8052586E-01
         -2   -1    0    0    0  501 -0.00000000000E+00  0.00000000000E+00  0.87559613314E+03  0.87559613314E+03  0.00000000000E+00 0.  1.
          2   -1    0    0  501    0  0.00000000000E+00 -0.00000000000E+00 -0.40584409515E+04  0.40584409515E+04  0.00000000000E+00 0. -1.
         23    2    1    2    0    0 -0.14382139006E+04  0.11077481871E+04 -0.22516836832E+04  0.28937855488E+04  0.91379008961E+02 0.  0.
         13    1    3    3    0    0 -0.27844323166E+03  0.24068298780E+03 -0.40922288317E+03  0.55038377700E+03  0.00000000000E+00 0. -1.
        -13    1    3    3    0    0 -0.11597706689E+04  0.86706519930E+03 -0.18424608001E+04  0.23434017718E+04  0.00000000000E+00 0.  1.
         22    1    1    2    0    0  0.14382139006E+04 -0.11077481871E+04 -0.93116113513E+03  0.20402515358E+04  0.00000000000E+00 0.  1.
<mgrwt>
<rscale>  0 0.37701752E+04</rscale>
<asrwt>0</asrwt>
<pdfrwt beam="1">  1        2 0.62437555E+00 0.37701752E+04</pdfrwt>
<pdfrwt beam="2">  1       -2 0.13470709E+00 0.37701752E+04</pdfrwt>
<totfact> 0.97371133E-02</totfact>
</mgrwt>
</event>
<event>
 6    1  0.9364335E-007  0.3710535E+04  0.7818608E-02  0.8065631E-01
         -1   -1    0    0    0  501 -0.00000000000E+00  0.00000000000E+00  0.87352188828E+03  0.87352188828E+03  0.00000000000E+00 0.  1.
          1   -1    0    0  501    0  0.00000000000E+00 -0.00000000000E+00 -0.39403897083E+04  0.39403897083E+04  0.00000000000E+00 0. -1.
         23    2    1    2    0    0  0.94927214277E+03  0.17360446338E+03 -0.35883150943E+04  0.37170235574E+04  0.94883082172E+02 0.  0.
         13    1    3    3    0    0  0.30222885405E+03  0.33575909544E+02 -0.12821715506E+04  0.13177380267E+04  0.00000000000E+00 0. -1.
        -13    1    3    3    0    0  0.64704328872E+03  0.14002855384E+03 -0.23061435437E+04  0.23992855306E+04  0.00000000000E+00 0.  1.
         22    1    1    2    0    0 -0.94927214277E+03 -0.17360446338E+03  0.52144727427E+03  0.10968880392E+04  0.00000000000E+00 0.  1.
<mgrwt>
<rscale>  0 0.37105345E+04</rscale>
<asrwt>0</asrwt>
<pdfrwt beam="1">  1        1 0.60621380E+00 0.37105345E+04</pdfrwt>
<pdfrwt beam="2">  1       -1 0.13438798E+00 0.37105345E+04</pdfrwt>
<totfact> 0.40305012E-02</totfact>
</mgrwt>
</event>
<event>
 6    1  0.9364335E-007  0.6691822E+04  0.7818608E-02  0.7610081E-01
          2   -1    0    0  501    0  0.00000000000E+00  0.00000000000E+00  0.38766845114E+04  0.38766845114E+04  0.00000000000E+00 0. -1.
         -2   -1    0    0    0  501 -0.00000000000E+00 -0.00000000000E+00 -0.28878081701E+04  0.28878081701E+04  0.00000000000E+00 0.  1.
         23    2    1    2    0    0 -0.24794739937E+04  0.16740268283E+04 -0.10189799431E+04  0.31614878291E+04  0.80796419237E+02 0.  0.
         13    1    3    3    0    0 -0.16952288418E+04  0.11885518404E+04 -0.69666357862E+03  0.21844441960E+04  0.00000000000E+00 0. -1.
        -13    1    3    3    0    0 -0.78424515189E+03  0.48547498790E+03 -0.32231636446E+03  0.97704363308E+03  0.00000000000E+00 0.  1.
         22    1    1    2    0    0  0.24794739937E+04 -0.16740268283E+04  0.20078562844E+04  0.36030048524E+04  0.00000000000E+00 0. -1.
<mgrwt>
<rscale>  0 0.66918222E+04</rscale>
<asrwt>0</asrwt>
<pdfrwt beam="1">  1        2 0.59641300E+00 0.66918222E+04</pdfrwt>
<pdfrwt beam="2">  1       -2 0.44427818E+00 0.66918222E+04</pdfrwt>
<totfact> 0.10367456E-03</totfact>
</mgrwt>
</event>
<event>
 6    1  0.1040443E-006  0.2478424E+04  0.7818608E-02  0.8410713E-01
          2   -1    0    0  501    0  0.00000000000E+00  0.00000000000E+00  0.19901528591E+04  0.19901528591E+04  0.00000000000E+00 0. -1.
         -2   -1    0    0    0  501 -0.00000000000E+00 -0.00000000000E+00 -0.77162249392E+03  0.77162249392E+03  0.00000000000E+00 0.  1.
         23    2    1    2    0    0  0.69353696863E+03 -0.13288430802E+03  0.17426290826E+04  0.18823828174E+04  0.89203056597E+02 0.  0.
         11    1    3    3    0    0  0.44221948942E+03 -0.12793726081E+03  0.11170983673E+04  0.12082362276E+04  0.00000000000E+00 0. -1.
        -11    1    3    3    0    0  0.25131747921E+03 -0.49470472080E+01  0.62553071539E+03  0.67414658980E+03  0.00000000000E+00 0.  1.
         22    1    1    2    0    0 -0.69353696863E+03  0.13288430802E+03 -0.52409871743E+03  0.87939253567E+03  0.00000000000E+00 0.  1.
<mgrwt>
<rscale>  0 0.24784243E+04</rscale>
<asrwt>0</asrwt>
<pdfrwt beam="1">  1        2 0.30617736E+00 0.24784243E+04</pdfrwt>
<pdfrwt beam="2">  1       -2 0.11871115E+00 0.24784243E+04</pdfrwt>
<totfact> 0.32973303E+00</totfact>
</mgrwt>
</event>
<event>
 6    1  0.9364335E-007  0.3459781E+04  0.7818608E-02  0.8123388E-01
          2   -1    0    0  501    0  0.00000000000E+00  0.00000000000E+00  0.24577943830E+04  0.24577943830E+04  0.00000000000E+00 0. -1.
         -2   -1    0    0    0  501 -0.00000000000E+00 -0.00000000000E+00 -0.12175638420E+04  0.12175638420E+04  0.00000000000E+00 0.  1.
         23    2    1    2    0    0 -0.87273685647E+03 -0.70860870387E+03 -0.77453505790E+03  0.13681789224E+04  0.90626111345E+02 0.  0.
         11    1    3    3    0    0 -0.59735911518E+03 -0.43336101881E+03 -0.52602289438E+03  0.90627797641E+03  0.00000000000E+00 0. -1.
        -11    1    3    3    0    0 -0.27537774129E+03 -0.27524768506E+03 -0.24851216351E+03  0.46190094603E+03  0.00000000000E+00 0.  1.
         22    1    1    2    0    0  0.87273685647E+03  0.70860870387E+03  0.20147655988E+04  0.23071793025E+04  0.00000000000E+00 0. -1.
<mgrwt>
<rscale>  0 0.34597812E+04</rscale>
<asrwt>0</asrwt>
<pdfrwt beam="1">  1        2 0.37812221E+00 0.34597812E+04</pdfrwt>
<pdfrwt beam="2">  1       -2 0.18731751E+00 0.34597812E+04</pdfrwt>
<totfact> 0.49052318E-01</totfact>
</mgrwt>
</event>
<event>
 6    1  0.9364335E-007  0.5843536E+04  0.7818608E-02  0.7710110E-01
          1   -1    0    0  501    0  0.00000000000E+00  0.00000000000E+00  0.30338167024E+04  0.30338167024E+04  0.00000000000E+00 0. -1.
         -1   -1    0    0    0  501 -0.00000000000E+00 -0.00000000000E+00 -0.28138576236E+04  0.28138576236E+04  0.00000000000E+00 0.  1.
         23    2    1    2    0    0 -0.12409302155E+04 -0.14365888425E+04  0.23316764523E+04  0.30081240855E+04  0.91652241653E+02 0.  0.
         11    1    3    3    0    0 -0.66579124764E+03 -0.83959739587E+03  0.13248083732E+04  0.17039128494E+04  0.00000000000E+00 0.  1.
        -11    1    3    3    0    0 -0.57513896787E+03 -0.59699144666E+03  0.10068680791E+04  0.13042112362E+04  0.00000000000E+00 0. -1.
         22    1    1    2    0    0  0.12409302155E+04  0.14365888425E+04 -0.21117173736E+04  0.28395502405E+04  0.00000000000E+00 0.  1.
<mgrwt>
<rscale>  0 0.58435360E+04</rscale>
<asrwt>0</asrwt>
<pdfrwt beam="1">  1        1 0.46674103E+00 0.58435360E+04</pdfrwt>
<pdfrwt beam="2">  1       -1 0.43290117E+00 0.58435360E+04</pdfrwt>
<totfact> 0.16248971E-03</totfact>
</mgrwt>
</event>
<event>
 6    1  0.1168009E-006  0.4584449E+04  0.7818608E-02  0.7896017E-01
          2   -1    0    0  501    0  0.00000000000E+00  0.00000000000E+00  0.28799230155E+04  0.28799230155E+04  0.00000000000E+00 0. -1.
         -2   -1    0    0    0  501 -0.00000000000E+00 -0.00000000000E+00 -0.18244560124E+04  0.18244560124E+04  0.00000000000E+00 0.  1.
         23    2    1    2    0    0 -0.16190611233E+04 -0.12746089729E+04 -0.50039971780E+03  0.21223820860E+04  0.90104864495E+02 0.  0.
         11    1    3    3    0    0 -0.97893755518E+03 -0.77420049006E+03 -0.34821128488E+03  0.12957454359E+04  0.00000000000E+00 0.  1.
        -11    1    3    3    0    0 -0.64012356811E+03 -0.50040848283E+03 -0.15218843293E+03  0.82663665008E+03  0.00000000000E+00 0. -1.
         22    1    1    2    0    0  0.16190611233E+04  0.12746089729E+04  0.15558667209E+04  0.25819969419E+04  0.00000000000E+00 0. -1.
<mgrwt>
<rscale>  0 0.45844489E+04</rscale>
<asrwt>0</asrwt>
<pdfrwt beam="1">  1        2 0.44306508E+00 0.45844489E+04</pdfrwt>
<pdfrwt beam="2">  1       -2 0.28068554E+00 0.45844489E+04</pdfrwt>
<totfact> 0.64859075E-02</totfact>
</mgrwt>
</event>
<event>
 6    1  0.9364335E-007  0.1841960E+04  0.7818608E-02  0.8684299E-01
          1   -1    0    0  501    0  0.00000000000E+00  0.00000000000E+00  0.22998626901E+04  0.22998626901E+04  0.00000000000E+00 0. -1.
         -1   -1    0    0    0  501 -0.00000000000E+00 -0.00000000000E+00 -0.36880638643E+03  0.36880638643E+03  0.00000000000E+00 0.  1.
         23    2    1    2    0    0  0.14881311273E+02  0.23454382024E+03  0.22547240701E+04  0.22686777266E+04  0.88801677626E+02 0.  0.
         11    1    3    3    0    0 -0.22339311664E+02  0.13093570413E+03  0.93779351736E+03  0.94715356974E+03  0.00000000000E+00 0.  1.
        -11    1    3    3    0    0  0.37220622937E+02  0.10360811611E+03  0.13169305527E+04  0.13215241569E+04  0.00000000000E+00 0. -1.
         22    1    1    2    0    0 -0.14881311273E+02 -0.23454382024E+03 -0.32366776639E+03  0.39999134995E+03  0.00000000000E+00 0.  1.
<mgrwt>
<rscale>  0 0.18419599E+04</rscale>
<asrwt>0</asrwt>
<pdfrwt beam="1">  1        1 0.35382502E+00 0.18419599E+04</pdfrwt>
<pdfrwt beam="2">  1       -1 0.56739446E-01 0.18419599E+04</pdfrwt>
<totfact> 0.55060006E+00</totfact>
</mgrwt>
</event>
<event>
 6    1  0.9364335E-007  0.6321693E+03  0.7818608E-02  0.9840825E-01
          2   -1    0    0  501    0  0.00000000000E+00  0.00000000000E+00  0.20194158387E+04  0.20194158387E+04  0.00000000000E+00 0. -1.
         -2   -1    0    0    0  501 -0.00000000000E+00 -0.00000000000E+00 -0.49474454294E+02  0.49474454294E+02  0.00000000000E+00 0.  1.
         23    2    1    2    0    0 -0.44143597124E+02  0.26750342511E+03  0.14936339775E+04  0.15208250729E+04  0.91976649282E+02 0.  0.
         13    1    3    3    0    0  0.22964309550E+01  0.10798455489E+03  0.81619621920E+03  0.82331173071E+03  0.00000000000E+00 0. -1.
        -13    1    3    3    0    0 -0.46440028079E+02  0.15951887022E+03  0.67743775825E+03  0.69751334215E+03  0.00000000000E+00 0.  1.
         22    1    1    2    0    0  0.44143597124E+02 -0.26750342511E+03  0.47630740699E+03  0.54806522017E+03  0.00000000000E+00 0.  1.
<mgrwt>
<rscale>  0 0.63216927E+03</rscale>
<asrwt>0</asrwt>
<pdfrwt beam="1">  1        2 0.31067930E+00 0.63216927E+03</pdfrwt>
<pdfrwt beam="2">  1       -2 0.76114561E-02 0.63216927E+03</pdfrwt>
<totfact> 0.71661243E+02</totfact>
</mgrwt>
</event>
<event>
 6    1  0.9364335E-007  0.2295963E+04  0.7818608E-02  0.8479515E-01
          2   -1    0    0  501    0  0.00000000000E+00  0.00000000000E+00  0.51943330927E+04  0.51943330927E+04  0.00000000000E+00 0. -1.
         -2   -1    0    0    0  501 -0.00000000000E+00 -0.00000000000E+00 -0.25371132897E+03  0.25371132897E+03  0.00000000000E+00 0.  1.
         23    2    1    2    0    0 -0.36094603000E+03 -0.70327033559E+03  0.50470295726E+03  0.94224295477E+03  0.90694593241E+02 0.  0.
         13    1    3    3    0    0 -0.22388185842E+03 -0.34183938977E+03  0.27600647330E+03  0.49310934713E+03  0.00000000000E+00 0. -1.
        -13    1    3    3    0    0 -0.13706417158E+03 -0.36143094582E+03  0.22869648396E+03  0.44913360764E+03  0.00000000000E+00 0.  1.
         22    1    1    2    0    0  0.36094603000E+03  0.70327033559E+03  0.44359188065E+04  0.45058014669E+04  0.00000000000E+00 0. -1.
<mgrwt>
<rscale>  0 0.22959627E+04</rscale>
<asrwt>0</asrwt>
<pdfrwt beam="1">  1        2 0.79912809E+00 0.22959627E+04</pdfrwt>
<pdfrwt beam="2">  1       -2 0.39032516E-01 0.22959627E+04</pdfrwt>
<totfact> 0.10765122E-01</totfact>
</mgrwt>
</event>
<event>
 6    1  0.9364335E-007  0.4000430E+04  0.7818608E-02  0.8004460E-01
         -1   -1    0    0    0  501 -0.00000000000E+00  0.00000000000E+00  0.28619188697E+04  0.28619188697E+04  0.00000000000E+00 0.  1.
          1   -1    0    0  501    0  0.00000000000E+00 -0.00000000000E+00 -0.13979641858E+04  0.13979641858E+04  0.00000000000E+00 0. -1.
         23    2    1    2    0    0 -0.14229475546E+04 -0.83482389748E+03 -0.47002577250E+03  0.17178383886E+04  0.91289756773E+02 0.  0.
         11    1    3    3    0    0 -0.31519583639E+03 -0.22979779755E+03 -0.11275871049E+03  0.40604183261E+03  0.00000000000E+00 0. -1.
        -11    1    3    3    0    0 -0.11077517182E+04 -0.60502609993E+03 -0.35726706201E+03  0.13117965560E+04  0.00000000000E+00 0.  1.
         22    1    1    2    0    0  0.14229475546E+04  0.83482389748E+03  0.19339804564E+04  0.25420446669E+04  0.00000000000E+00 0.  1.
<mgrwt>
<rscale>  0 0.40004300E+04</rscale>
<asrwt>0</asrwt>
<pdfrwt beam="1">  1        1 0.21507141E+00 0.40004300E+04</pdfrwt>
<pdfrwt beam="2">  1       -1 0.44029521E+00 0.40004300E+04</pdfrwt>
<totfact> 0.22768948E-02</totfact>
</mgrwt>
</event>
<event>
 6    1  0.9364335E-007  0.1042879E+04  0.7818608E-02  0.9262727E-01
          1   -1    0    0  501    0  0.00000000000E+00  0.00000000000E+00  0.34255681521E+03  0.34255681521E+03  0.00000000000E+00 0. -1.
         -1   -1    0    0    0  501 -0.00000000000E+00 -0.00000000000E+00 -0.79373440495E+03  0.79373440495E+03  0.00000000000E+00 0.  1.
         23    2    1    2    0    0  0.40358835802E+03 -0.32166981835E+03 -0.26948685096E+03  0.58914721780E+03  0.90090213820E+02 0.  0.
         11    1    3    3    0    0  0.16185011127E+03 -0.15537119411E+03 -0.16172268734E+03  0.27656806410E+03  0.00000000000E+00 0.  1.
        -11    1    3    3    0    0  0.24173824675E+03 -0.16629862425E+03 -0.10776416362E+03  0.31257915370E+03  0.00000000000E+00 0. -1.
         22    1    1    2    0    0 -0.40358835802E+03  0.32166981835E+03 -0.18169073878E+03  0.54714400237E+03  0.00000000000E+00 0.  1.
<mgrwt>
<rscale>  0 0.10428790E+04</rscale>
<asrwt>0</asrwt>
<pdfrwt beam="1">  1        1 0.52701049E-01 0.10428790E+04</pdfrwt>
<pdfrwt beam="2">  1       -1 0.12211298E+00 0.10428790E+04</pdfrwt>
<totfact> 0.43711691E+01</totfact>
</mgrwt>
</event>
<event>
 6    1  0.9364335E-007  0.3568006E+04  0.7818608E-02  0.8097860E-01
          2   -1    0    0  501    0  0.00000000000E+00  0.00000000000E+00  0.40553971891E+04  0.40553971891E+04  0.00000000000E+00 0. -1.
         -2   -1    0    0    0  501 -0.00000000000E+00 -0.00000000000E+00 -0.78479791802E+03  0.78479791802E+03  0.00000000000E+00 0.  1.
         23    2    1    2    0    0  0.15209330628E+04 -0.80402424323E+03  0.10014775640E+04  0.19926337493E+04  0.89104335527E+02 0.  0.
         13    1    3    3    0    0  0.11033137246E+04 -0.62111617405E+03  0.71232575222E+03  0.14527540927E+04  0.00000000000E+00 0.  1.
        -13    1    3    3    0    0  0.41761933815E+03 -0.18290806918E+03  0.28915181183E+03  0.53987965664E+03  0.00000000000E+00 0. -1.
         22    1    1    2    0    0 -0.15209330628E+04  0.80402424323E+03  0.22691217071E+04  0.28475613578E+04  0.00000000000E+00 0. -1.
<mgrwt>
<rscale>  0 0.35680063E+04</rscale>
<asrwt>0</asrwt>
<pdfrwt beam="1">  1        2 0.62390725E+00 0.35680063E+04</pdfrwt>
<pdfrwt beam="2">  1       -2 0.12073814E+00 0.35680063E+04</pdfrwt>
<totfact> 0.13132124E-01</totfact>
</mgrwt>
</event>
<event>
 6    1  0.9364335E-007  0.4042984E+04  0.7818608E-02  0.7995931E-01
         -2   -1    0    0    0  501 -0.00000000000E+00  0.00000000000E+00  0.16584658428E+04  0.16584658428E+04  0.00000000000E+00 0.  1.
          2   -1    0    0  501    0  0.00000000000E+00 -0.00000000000E+00 -0.24639825089E+04  0.24639825089E+04  0.00000000000E+00 0. -1.
         23    2    1    2    0    0 -0.14030454072E+04  0.10197067483E+04  0.65362504789E+03  0.18558577825E+04  0.92973860270E+02 0.  0.
         13    1    3    3    0    0 -0.62984240890E+03  0.50669657800E+03  0.27851583415E+03  0.85499353920E+03  0.00000000000E+00 0. -1.
        -13    1    3    3    0    0 -0.77320299828E+03  0.51301017026E+03  0.37510921375E+03  0.10008642433E+04  0.00000000000E+00 0.  1.
         22    1    1    2    0    0  0.14030454072E+04 -0.10197067483E+04 -0.14591417140E+04  0.22665905692E+04  0.00000000000E+00 0. -1.
<mgrwt>
<rscale>  0 0.40429845E+04</rscale>
<asrwt>0</asrwt>
<pdfrwt beam="1">  1        2 0.37907423E+00 0.40429845E+04</pdfrwt>
<pdfrwt beam="2">  1       -2 0.25514859E+00 0.40429845E+04</pdfrwt>
<totfact> 0.17155175E-01</totfact>
</mgrwt>
</event>
<event>
 6    1  0.9364335E-007  0.3079796E+04  0.7818608E-02  0.8221305E-01
          2   -1    0    0  501    0  0.00000000000E+00  0.00000000000E+00  0.16084531381E+04  0.16084531381E+04  0.00000000000E+00 0. -1.
         -2   -1    0    0    0  501 -0.00000000000E+00 -0.00000000000E+00 -0.14742645151E+04  0.14742645151E+04  0.00000000000E+00 0.  1.
         23    2    1    2    0    0  0.71393474397E+00 -0.14771437523E+04 -0.36358876340E+03  0.15239564460E+04  0.91061987992E+02 0.  0.
         11    1    3    3    0    0  0.45296247395E+02 -0.72997663087E+03 -0.17220386240E+03  0.75137993177E+03  0.00000000000E+00 0.  1.
        -11    1    3    3    0    0 -0.44582312651E+02 -0.74716712142E+03 -0.19138490100E+03  0.77257651418E+03  0.00000000000E+00 0. -1.
         22    1    1    2    0    0 -0.71393474397E+00  0.14771437523E+04  0.49777738641E+03  0.15587612072E+04  0.00000000000E+00 0. -1.
<mgrwt>
<rscale>  0 0.30797957E+04</rscale>
<asrwt>0</asrwt>
<pdfrwt beam="1">  1        2 0.24745433E+00 0.30797957E+04</pdfrwt>
<pdfrwt beam="2">  1       -2 0.22680992E+00 0.30797957E+04</pdfrwt>
<totfact> 0.83993353E-01</totfact>
</mgrwt>
</event>
<event>
 6    1  0.9364335E-007  0.5621206E+04  0.7818608E-02  0.7739228E-01
         -2   -1    0    0    0  501 -0.00000000000E+00  0.00000000000E+00  0.30269422772E+04  0.30269422772E+04  0.00000000000E+00 0.  1.
          2   -1    0    0  501    0  0.00000000000E+00 -0.00000000000E+00 -0.26097253566E+04  0.26097253566E+04  0.00000000000E+00 0. -1.
         23    2    1    2    0    0  0.43904309753E+03  0.59782181224E+03  0.29264630231E+04  0.30200924364E+04  0.81380209097E+02 0.  0.
         11    1    3    3    0    0  0.17365545656E+03  0.17431959172E+03  0.92358542593E+03  0.95579996685E+03  0.00000000000E+00 0.  1.
        -11    1    3    3    0    0  0.26538764097E+03  0.42350222052E+03  0.20028775972E+04  0.20642924696E+04  0.00000000000E+00 0. -1.
         22    1    1    2    0    0 -0.43904309753E+03 -0.59782181224E+03 -0.25092461024E+04  0.26165751973E+04  0.00000000000E+00 0. -1.
<mgrwt>
<rscale>  0 0.56212056E+04</rscale>
<asrwt>0</asrwt>
<pdfrwt beam="1">  1        2 0.40149621E+00 0.56212056E+04</pdfrwt>
<pdfrwt beam="2">  1       -2 0.46568343E+00 0.56212056E+04</pdfrwt>
<totfact> 0.57287288E-03</totfact>
</mgrwt>
</event>
<event>
 6    1  0.9364335E-007  0.2628904E+04  0.7818608E-02  0.8358449E-01
         -1   -1    0    0    0  501 -0.00000000000E+00  0.00000000000E+00  0.94464683976E+03  0.94464683976E+03  0.00000000000E+00 0.  1.
          1   -1    0    0  501    0  0.00000000000E+00 -0.00000000000E+00 -0.18290266960E+04  0.18290266960E+04  0.00000000000E+00 0. -1.
         23    2    1    2    0    0 -0.28742695723E+03  0.20934276400E+03 -0.17760739317E+04  0.18136959460E+04  0.92820931131E+02 0.  0.
         11    1    3    3    0    0 -0.14207186929E+03  0.12506214504E+03 -0.72614285322E+03  0.75040549001E+03  0.00000000000E+00 0. -1.
        -11    1    3    3    0    0 -0.14535508794E+03  0.84280618960E+02 -0.10499310785E+04  0.10632904560E+04  0.00000000000E+00 0.  1.
         22    1    1    2    0    0  0.28742695723E+03 -0.20934276400E+03  0.89169407546E+03  0.95997758973E+03  0.00000000000E+00 0.  1.
<mgrwt>
<rscale>  0 0.26289042E+04</rscale>
<asrwt>0</asrwt>
<pdfrwt beam="1">  1        1 0.28138872E+00 0.26289042E+04</pdfrwt>
<pdfrwt beam="2">  1       -1 0.14533028E+00 0.26289042E+04</pdfrwt>
<totfact> 0.12988308E+00</totfact>
</mgrwt>
</event>
<event>
 6    1  0.9364335E-007  0.2085000E+04  0.7818608E-02  0.8567880E-01
         -2   -1    0    0    0  501 -0.00000000000E+00  0.00000000000E+00  0.13741651296E+04  0.13741651296E+04  0.00000000000E+00 0.  1.
          2   -1    0    0  501    0  0.00000000000E+00 -0.00000000000E+00 -0.79088448340E+03  0.79088448340E+03  0.00000000000E+00 0. -1.
         23    2    1    2    0    0  0.42229611529E+03  0.61800674098E+03  0.10426680727E+04  0.12868109503E+04  0.91974839944E+02 0.  0.
         11    1    3    3    0    0  0.16747596628E+03  0.22612627287E+03  0.31980364312E+03  0.42597612693E+03  0.00000000000E+00 0.  1.
        -11    1    3    3    0    0  0.25482014902E+03  0.39188046811E+03  0.72286442959E+03  0.86083482341E+03  0.00000000000E+00 0. -1.
         22    1    1    2    0    0 -0.42229611529E+03 -0.61800674098E+03 -0.45938742654E+03  0.87823866263E+03  0.00000000000E+00 0. -1.
<mgrwt>
<rscale>  0 0.20849996E+04</rscale>
<asrwt>0</asrwt>
<pdfrwt beam="1">  1        2 0.12167454E+00 0.20849996E+04</pdfrwt>
<pdfrwt beam="2">  1       -2 0.21141002E+00 0.20849996E+04</pdfrwt>
<totfact> 0.36171442E+00</totfact>
</mgrwt>
</event>
<event>
 6    1  0.9364335E-007  0.1187229E+04  0.7818608E-02  0.9124109E-01
         -1   -1    0    0    0  501 -0.00000000000E+00  0.00000000000E+00  0.10277578164E+04  0.10277578164E+04  0.00000000000E+00 0.  1.
          1   -1    0    0  501    0  0.00000000000E+00 -0.00000000000E+00 -0.34286113767E+03  0.34286113767E+03  0.00000000000E+00 0. -1.
         23    2    1    2    0    0  0.35711256512E+00 -0.17211014071E+03  0.99615311249E+03  0.10149469203E+04  0.90411279358E+02 0.  0.
         13    1    3    3    0    0 -0.40518581239E+02 -0.11703450520E+03  0.70740677446E+03  0.71816653736E+03  0.00000000000E+00 0.  1.
        -13    1    3    3    0    0  0.40875693804E+02 -0.55075635510E+02  0.28874633803E+03  0.29678038293E+03  0.00000000000E+00 0. -1.
         22    1    1    2    0    0 -0.35711256512E+00  0.17211014071E+03 -0.31125643375E+03  0.35567203378E+03  0.00000000000E+00 0. -1.
<mgrwt>
<rscale>  0 0.11872291E+04</rscale>
<asrwt>0</asrwt>
<pdfrwt beam="1">  1        1 0.52747868E-01 0.11872291E+04</pdfrwt>
<pdfrwt beam="2">  1       -1 0.15811659E+00 0.11872291E+04</pdfrwt>
<totfact> 0.22019276E+01</totfact>
</mgrwt>
</event>
<event>
 6    1  0.9364335E-007  0.2175928E+04  0.7818608E-02  0.8528515E-01
          2   -1    0    0  501    0  0.00000000000E+00  0.00000000000E+00  0.19861882863E+04  0.19861882863E+04  0.00000000000E+00 0. -1.
         -2   -1    0    0    0  501 -0.00000000000E+00 -0.00000000000E+00 -0.59594851965E+03  0.59594851965E+03  0.00000000000E+00 0.  1.
         23    2    1    2    0    0 -0.60150495244E+03 -0.13717471847E+03  0.17569687701E+04  0.18644214912E+04  0.92212398743E+02 0.  0.
         11    1    3    3    0    0 -0.15336616569E+03 -0.40436065574E+02  0.58054351670E+03  0.60181976618E+03  0.00000000000E+00 0.  1.
        -11    1    3    3    0    0 -0.44813878675E+03 -0.96738652892E+02  0.11764252534E+04  0.12626017250E+04  0.00000000000E+00 0. -1.
         22    1    1    2    0    0  0.60150495244E+03  0.13717471847E+03 -0.36672900339E+03  0.71771531482E+03  0.00000000000E+00 0.  1.
<mgrwt>
<rscale>  0 0.21759283E+04</rscale>
<asrwt>0</asrwt>
<pdfrwt beam="1">  1        2 0.30556743E+00 0.21759283E+04</pdfrwt>
<pdfrwt beam="2">  1       -2 0.91684388E-01 0.21759283E+04</pdfrwt>
<totfact> 0.63050141E+00</totfact>
</mgrwt>
</event>
<event>
 6    1  0.9364335E-007  0.2804604E+04  0.7818608E-02  0.8301840E-01
         -1   -1    0    0    0  501 -0.00000000000E+00  0.00000000000E+00  0.11100395538E+04  0.11100395538E+04  0.00000000000E+00 0.  1.
          1   -1    0    0  501    0  0.00000000000E+00 -0.00000000000E+00 -0.17715140774E+04  0.17715140774E+04  0.00000000000E+00 0. -1.
         23    2    1    2    0    0  0.86430918564E+03  0.10840393820E+04 -0.53688711793E+03  0.14895429374E+04  0.91206551299E+02 0.  0.
         11    1    3    3    0    0  0.44316196990E+03  0.61021414681E+03 -0.25923058353E+03  0.79746744885E+03  0.00000000000E+00 0. -1.
        -11    1    3    3    0    0  0.42114721574E+03  0.47382523516E+03 -0.27765653440E+03  0.69207548858E+03  0.00000000000E+00 0.  1.
         22    1    1    2    0    0 -0.86430918564E+03 -0.10840393820E+04 -0.12458740567E+03  0.13920106938E+04  0.00000000000E+00 0.  1.
<mgrwt>
<rscale>  0 0.28046039E+04</rscale>
<asrwt>0</asrwt>
<pdfrwt beam="1">  1        1 0.27254062E+00 0.28046039E+04</pdfrwt>
<pdfrwt beam="2">  1       -1 0.17077532E+00 0.28046039E+04</pdfrwt>
<totfact> 0.89530046E-01</totfact>
</mgrwt>
</event>
<event>
 6    1  0.9364335E-007  0.2321015E+04  0.7818608E-02  0.8469681E-01
          1   -1    0    0  501    0  0.00000000000E+00  0.00000000000E+00  0.15109606409E+04  0.15109606409E+04  0.00000000000E+00 0. -1.
         -1   -1    0    0    0  501 -0.00000000000E+00 -0.00000000000E+00 -0.89133837340E+03  0.89133837340E+03  0.00000000000E+00 0.  1.
         23    2    1    2    0    0 -0.20711881354E+03  0.10146348682E+04 -0.22781676815E+03  0.10641902602E+04  0.90654901805E+02 0.  0.
         11    1    3    3    0    0 -0.11169876756E+03  0.47909774337E+03 -0.64029205838E+02  0.49609575848E+03  0.00000000000E+00 0.  1.
        -11    1    3    3    0    0 -0.95420045981E+02  0.53553712487E+03 -0.16378756231E+03  0.56809450169E+03  0.00000000000E+00 0. -1.
         22    1    1    2    0    0  0.20711881354E+03 -0.10146348682E+04  0.84743903569E+03  0.13381087542E+04  0.00000000000E+00 0. -1.
<mgrwt>
<rscale>  0 0.23210146E+04</rscale>
<asrwt>0</asrwt>
<pdfrwt beam="1">  1        1 0.23245548E+00 0.23210146E+04</pdfrwt>
<pdfrwt beam="2">  1       -1 0.13712898E+00 0.23210146E+04</pdfrwt>
<totfact> 0.25660683E+00</totfact>
</mgrwt>
</event>
<event>
 6    1  0.9364335E-007  0.2487487E+04  0.7818608E-02  0.8407457E-01
          2   -1    0    0  501    0  0.00000000000E+00  0.00000000000E+00  0.15863054184E+04  0.15863054184E+04  0.00000000000E+00 0. -1.
         -2   -1    0    0    0  501 -0.00000000000E+00 -0.00000000000E+00 -0.97515732257E+03  0.97515732257E+03  0.00000000000E+00 0.  1.
         23    2    1    2    0    0 -0.46199527490E+03 -0.10233629017E+03 -0.87651076441E+03  0.10003601707E+04  0.92395891360E+02 0.  0.
         13    1    3    3    0    0 -0.21787527892E+03 -0.95572709271E+02 -0.43347052269E+03  0.49446989187E+03  0.00000000000E+00 0. -1.
        -13    1    3    3    0    0 -0.24411999599E+03 -0.67635808942E+01 -0.44304024172E+03  0.50589027887E+03  0.00000000000E+00 0.  1.
         22    1    1    2    0    0  0.46199527490E+03  0.10233629017E+03  0.14876588603E+04  0.15611025703E+04  0.00000000000E+00 0. -1.
<mgrwt>
<rscale>  0 0.24874866E+04</rscale>
<asrwt>0</asrwt>
<pdfrwt beam="1">  1        2 0.24404699E+00 0.24874866E+04</pdfrwt>
<pdfrwt beam="2">  1       -2 0.15002420E+00 0.24874866E+04</pdfrwt>
<totfact> 0.30354992E+00</totfact>
</mgrwt>
</event>
<event>
 6    1  0.9364335E-007  0.2807455E+04  0.7818608E-02  0.8300958E-01
          2   -1    0    0  501    0  0.00000000000E+00  0.00000000000E+00  0.11091716638E+04  0.11091716638E+04  0.00000000000E+00 0. -1.
         -2   -1    0    0    0  501 -0.00000000000E+00 -0.00000000000E+00 -0.17765061182E+04  0.17765061182E+04  0.00000000000E+00 0.  1.
         23    2    1    2    0    0  0.86430766788E+03  0.11035357347E+04 -0.29525765116E+03  0.14354157332E+04  0.91773547581E+02 0.  0.
         11    1    3    3    0    0  0.37753824961E+03  0.42328706317E+03 -0.14668924985E+03  0.58585390993E+03  0.00000000000E+00 0.  1.
        -11    1    3    3    0    0  0.48676941827E+03  0.68024867154E+03 -0.14856840131E+03  0.84956182327E+03  0.00000000000E+00 0. -1.
         22    1    1    2    0    0 -0.86430766788E+03 -0.11035357347E+04 -0.37207680330E+03  0.14502620488E+04  0.00000000000E+00 0.  1.
<mgrwt>
<rscale>  0 0.28074545E+04</rscale>
<asrwt>0</asrwt>
<pdfrwt beam="1">  1        2 0.17064180E+00 0.28074545E+04</pdfrwt>
<pdfrwt beam="2">  1       -2 0.27330863E+00 0.28074545E+04</pdfrwt>
<totfact> 0.86513256E-01</totfact>
</mgrwt>
</event>
<event>
 6    1  0.9364335E-007  0.2872951E+04  0.7818608E-02  0.8280971E-01
         -2   -1    0    0    0  501 -0.00000000000E+00  0.00000000000E+00  0.18234726726E+04  0.18234726726E+04  0.00000000000E+00 0.  1.
          2   -1    0    0  501    0  0.00000000000E+00 -0.00000000000E+00 -0.11316106781E+04  0.11316106781E+04  0.00000000000E+00 0. -1.
         23    2    1    2    0    0  0.88080372657E+03  0.30180488095E+03 -0.77704634901E+03  0.12159476135E+04  0.88465695839E+02 0.  0.
         13    1    3    3    0    0  0.26134002613E+03  0.51457862452E+02 -0.24406478622E+03  0.36126740891E+03  0.00000000000E+00 0. -1.
        -13    1    3    3    0    0  0.61946370044E+03  0.25034701850E+03 -0.53298156279E+03  0.85468020459E+03  0.00000000000E+00 0.  1.
         22    1    1    2    0    0 -0.88080372657E+03 -0.30180488095E+03  0.14689083435E+04  0.17391357373E+04  0.00000000000E+00 0.  1.
<mgrwt>
<rscale>  0 0.28729505E+04</rscale>
<asrwt>0</asrwt>
<pdfrwt beam="1">  1        2 0.17409395E+00 0.28729505E+04</pdfrwt>
<pdfrwt beam="2">  1       -2 0.28053426E+00 0.28729505E+04</pdfrwt>
<totfact> 0.75317645E-01</totfact>
</mgrwt>
</event>
<event>
 6    1  0.9364335E-007  0.1232177E+04  0.7818608E-02  0.9085149E-01
          1   -1    0    0  501    0  0.00000000000E+00  0.00000000000E+00  0.31592398104E+03  0.31592398104E+03  0.00000000000E+00 0. -1.
         -1   -1    0    0    0  501 -0.00000000000E+00 -0.00000000000E+00 -0.12014436370E+04  0.12014436370E+04  0.00000000000E+00 0.  1.
         23    2    1    2    0    0 -0.20507832469E+03 -0.47235924802E+03 -0.85414428260E+03  0.10014560050E+04  0.90395221083E+02 0.  0.
         11    1    3    3    0    0 -0.16414912520E+03 -0.26700912036E+03 -0.51515931607E+03  0.60301569349E+03  0.00000000000E+00 0.  1.
        -11    1    3    3    0    0 -0.40929199492E+02 -0.20535012765E+03 -0.33898496653E+03  0.39844031151E+03  0.00000000000E+00 0. -1.
         22    1    1    2    0    0  0.20507832469E+03  0.47235924802E+03 -0.31375373391E+02  0.51591161307E+03  0.00000000000E+00 0. -1.
<mgrwt>
<rscale>  0 0.12321767E+04</rscale>
<asrwt>0</asrwt>
<pdfrwt beam="1">  1        1 0.48603690E-01 0.12321767E+04</pdfrwt>
<pdfrwt beam="2">  1       -1 0.18483748E+00 0.12321767E+04</pdfrwt>
<totfact> 0.15549482E+01</totfact>
</mgrwt>
</event>
<event>
 6    1  0.9364335E-007  0.2465547E+04  0.7818608E-02  0.8415363E-01
          2   -1    0    0  501    0  0.00000000000E+00  0.00000000000E+00  0.12468309228E+04  0.12468309228E+04  0.00000000000E+00 0. -1.
         -2   -1    0    0    0  501 -0.00000000000E+00 -0.00000000000E+00 -0.12188743597E+04  0.12188743597E+04  0.00000000000E+00 0.  1.
         23    2    1    2    0    0 -0.64864164155E+03 -0.10305308118E+04 -0.15840263149E+03  0.12338532287E+04  0.12071728583E+03 0.  0.
         13    1    3    3    0    0 -0.30046455990E+03 -0.37278532267E+03 -0.42716443884E+02  0.48070005527E+03  0.00000000000E+00 0.  1.
        -13    1    3    3    0    0 -0.34817708165E+03 -0.65774548912E+03 -0.11568618761E+03  0.75315317343E+03  0.00000000000E+00 0. -1.
         22    1    1    2    0    0  0.64864164155E+03  0.10305308118E+04  0.18635919460E+03  0.12318520539E+04  0.00000000000E+00 0.  1.
<mgrwt>
<rscale>  0 0.24655468E+04</rscale>
<asrwt>0</asrwt>
<pdfrwt beam="1">  1        2 0.19182014E+00 0.24655468E+04</pdfrwt>
<pdfrwt beam="2">  1       -2 0.18751913E+00 0.24655468E+04</pdfrwt>
<totfact> 0.25594200E+00</totfact>
</mgrwt>
</event>
<event>
 6    1  0.9364335E-007  0.1687541E+04  0.7818608E-02  0.8768502E-01
         -2   -1    0    0    0  501 -0.00000000000E+00  0.00000000000E+00  0.21356831917E+04  0.21356831917E+04  0.00000000000E+00 0.  1.
          2   -1    0    0  501    0  0.00000000000E+00 -0.00000000000E+00 -0.33335891229E+03  0.33335891229E+03  0.00000000000E+00 0. -1.
         23    2    1    2    0    0 -0.51791848549E+03  0.65142736874E+03  0.10837665701E+04  0.13695320513E+04  0.92037420482E+02 0.  0.
         13    1    3    3    0    0 -0.41553607874E+03  0.50035267227E+03  0.78498878986E+03  0.10194265200E+04  0.00000000000E+00 0. -1.
        -13    1    3    3    0    0 -0.10238240675E+03  0.15107469646E+03  0.29877778027E+03  0.35010553139E+03  0.00000000000E+00 0.  1.
         22    1    1    2    0    0  0.51791848549E+03 -0.65142736874E+03  0.71855770933E+03  0.10995100527E+04  0.00000000000E+00 0. -1.
<mgrwt>
<rscale>  0 0.16875414E+04</rscale>
<asrwt>0</asrwt>
<pdfrwt beam="1">  1        2 0.51285988E-01 0.16875414E+04</pdfrwt>
<pdfrwt beam="2">  1       -2 0.32856664E+00 0.16875414E+04</pdfrwt>
<totfact> 0.19770052E+00</totfact>
</mgrwt>
</event>
<event>
 6    1  0.9364335E-007  0.5438355E+03  0.7818608E-02  0.1002931E+00
         -1   -1    0    0    0  501 -0.00000000000E+00  0.00000000000E+00  0.11123104446E+04  0.11123104446E+04  0.00000000000E+00 0.  1.
          1   -1    0    0  501    0  0.00000000000E+00 -0.00000000000E+00 -0.66473591965E+02  0.66473591965E+02  0.00000000000E+00 0. -1.
         23    2    1    2    0    0  0.21990198907E+02  0.21660223721E+03  0.86223351090E+03  0.89398536188E+03  0.91449996865E+02 0.  0.
         11    1    3    3    0    0  0.50865425654E+02  0.19030012220E+03  0.70949540896E+03  0.73633223709E+03  0.00000000000E+00 0. -1.
        -11    1    3    3    0    0 -0.28875226747E+02  0.26302115014E+02  0.15273810194E+03  0.15765312479E+03  0.00000000000E+00 0.  1.
         22    1    1    2    0    0 -0.21990198907E+02 -0.21660223721E+03  0.18360334177E+03  0.28479867472E+03  0.00000000000E+00 0. -1.
<mgrwt>
<rscale>  0 0.54383553E+03</rscale>
<asrwt>0</asrwt>
<pdfrwt beam="1">  1        1 0.10226707E-01 0.54383553E+03</pdfrwt>
<pdfrwt beam="2">  1       -1 0.17112467E+00 0.54383553E+03</pdfrwt>
<totfact> 0.16162282E+02</totfact>
</mgrwt>
</event>
<event>
 6    1  0.9364335E-007  0.2952420E+04  0.7818608E-02  0.8257450E-01
         -2   -1    0    0    0  501 -0.00000000000E+00  0.00000000000E+00  0.72404730824E+03  0.72404730824E+03  0.00000000000E+00 0.  1.
          2   -1    0    0  501    0  0.00000000000E+00 -0.00000000000E+00 -0.30097430968E+04  0.30097430968E+04  0.00000000000E+00 0. -1.
         23    2    1    2    0    0  0.11304299980E+04  0.92091531626E+03 -0.85732767560E+03  0.16926651110E+04  0.64400577997E+02 0.  0.
         11    1    3    3    0    0  0.58279811736E+03  0.51233731385E+03 -0.47166317647E+03  0.90808001894E+03  0.00000000000E+00 0. -1.
        -11    1    3    3    0    0  0.54763188063E+03  0.40857800241E+03 -0.38566449913E+03  0.78458509202E+03  0.00000000000E+00 0.  1.
         22    1    1    2    0    0 -0.11304299980E+04 -0.92091531626E+03 -0.14283681130E+04  0.20411252941E+04  0.00000000000E+00 0. -1.
<mgrwt>
<rscale>  0 0.29524203E+04</rscale>
<asrwt>0</asrwt>
<pdfrwt beam="1">  1        2 0.46303739E+00 0.29524203E+04</pdfrwt>
<pdfrwt beam="2">  1       -2 0.11139190E+00 0.29524203E+04</pdfrwt>
<totfact> 0.93966414E-01</totfact>
</mgrwt>
</event>
<event>
 6    1  0.9364335E-007  0.3021151E+04  0.7818608E-02  0.8237717E-01
         -2   -1    0    0    0  501 -0.00000000000E+00  0.00000000000E+00  0.98700890606E+03  0.98700890606E+03  0.00000000000E+00 0.  1.
          2   -1    0    0  501    0  0.00000000000E+00 -0.00000000000E+00 -0.23118713539E+04  0.23118713539E+04  0.00000000000E+00 0. -1.
         23    2    1    2    0    0 -0.91411809570E+03 -0.58842087934E+03  0.48000058991E+03  0.11918962522E+04  0.91460841166E+02 0.  0.
         11    1    3    3    0    0 -0.56006723330E+03 -0.34272257342E+03  0.24342150372E+03  0.70027715700E+03  0.00000000000E+00 0.  1.
        -11    1    3    3    0    0 -0.35405086240E+03 -0.24569830593E+03  0.23657908619E+03  0.49161909516E+03  0.00000000000E+00 0. -1.
         22    1    1    2    0    0  0.91411809570E+03  0.58842087934E+03 -0.18048630378E+04  0.21069840078E+04  0.00000000000E+00 0. -1.
<mgrwt>
<rscale>  0 0.30211505E+04</rscale>
<asrwt>0</asrwt>
<pdfrwt beam="1">  1        2 0.35567251E+00 0.30211505E+04</pdfrwt>
<pdfrwt beam="2">  1       -2 0.15184753E+00 0.30211505E+04</pdfrwt>
<totfact> 0.11061775E+00</totfact>
</mgrwt>
</event>
<event>
 6    1  0.9364335E-007  0.1967402E+04  0.7818608E-02  0.8622015E-01
         -1   -1    0    0    0  501 -0.00000000000E+00  0.00000000000E+00  0.39830969444E+03  0.39830969444E+03  0.00000000000E+00 0.  1.
          1   -1    0    0  501    0  0.00000000000E+00 -0.00000000000E+00 -0.24294349080E+04  0.24294349080E+04  0.00000000000E+00 0. -1.
         23    2    1    2    0    0 -0.88507747206E+03 -0.17864593516E+03 -0.15710660225E+04  0.18143685809E+04  0.91697321230E+02 0.  0.
         13    1    3    3    0    0 -0.40510979069E+03 -0.57410192901E+02 -0.78923766806E+03  0.88899154633E+03  0.00000000000E+00 0.  1.
        -13    1    3    3    0    0 -0.47996768137E+03 -0.12123574226E+03 -0.78182835442E+03  0.92537703458E+03  0.00000000000E+00 0. -1.
         22    1    1    2    0    0  0.88507747206E+03  0.17864593516E+03 -0.46005919109E+03  0.10133760215E+04  0.00000000000E+00 0.  1.
<mgrwt>
<rscale>  0 0.19674018E+04</rscale>
<asrwt>0</asrwt>
<pdfrwt beam="1">  1        1 0.37375922E+00 0.19674018E+04</pdfrwt>
<pdfrwt beam="2">  1       -1 0.61278414E-01 0.19674018E+04</pdfrwt>
<totfact> 0.38109239E+00</totfact>
</mgrwt>
</event>
<event>
 6    1  0.9364335E-007  0.2967853E+04  0.7818608E-02  0.8252971E-01
          2   -1    0    0  501    0  0.00000000000E+00  0.00000000000E+00  0.25958224399E+04  0.25958224399E+04  0.00000000000E+00 0. -1.
         -2   -1    0    0    0  501 -0.00000000000E+00 -0.00000000000E+00 -0.84830063112E+03  0.84830063112E+03  0.00000000000E+00 0.  1.
         23    2    1    2    0    0  0.12565649442E+04 -0.77920006480E+03  0.74796065996E+03  0.16594016109E+04  0.89779493730E+02 0.  0.
         13    1    3    3    0    0  0.64116640383E+03 -0.34544529608E+03  0.35979570509E+03  0.81232983411E+03  0.00000000000E+00 0. -1.
        -13    1    3    3    0    0  0.61539854038E+03 -0.43375476872E+03  0.38816495487E+03  0.84707177681E+03  0.00000000000E+00 0.  1.
         22    1    1    2    0    0 -0.12565649442E+04  0.77920006480E+03  0.99956114886E+03  0.17847214601E+04  0.00000000000E+00 0. -1.
<mgrwt>
<rscale>  0 0.29678530E+04</rscale>
<asrwt>0</asrwt>
<pdfrwt beam="1">  1        2 0.39935729E+00 0.29678530E+04</pdfrwt>
<pdfrwt beam="2">  1       -2 0.13050779E+00 0.29678530E+04</pdfrwt>
<totfact> 0.11292497E+00</totfact>
</mgrwt>
</event>
<event>
 6    1  0.9364335E-007  0.2140684E+04  0.7818608E-02  0.8543530E-01
          1   -1    0    0  501    0  0.00000000000E+00  0.00000000000E+00  0.11380023861E+04  0.11380023861E+04  0.00000000000E+00 0. -1.
         -1   -1    0    0    0  501 -0.00000000000E+00 -0.00000000000E+00 -0.10067045346E+04  0.10067045346E+04  0.00000000000E+00 0.  1.
         23    2    1    2    0    0  0.43251763118E+03 -0.78330591117E+03  0.65056139200E+03  0.11101663095E+04  0.92733263905E+02 0.  0.
         13    1    3    3    0    0  0.28512279308E+03 -0.48546058589E+03  0.46043874484E+03  0.72730380540E+03  0.00000000000E+00 0. -1.
        -13    1    3    3    0    0  0.14739483809E+03 -0.29784532528E+03  0.19012264715E+03  0.38286250410E+03  0.00000000000E+00 0.  1.
         22    1    1    2    0    0 -0.43251763118E+03  0.78330591117E+03 -0.51926354054E+03  0.10345406112E+04  0.00000000000E+00 0.  1.
<mgrwt>
<rscale>  0 0.21406842E+04</rscale>
<asrwt>0</asrwt>
<pdfrwt beam="1">  1        1 0.17507729E+00 0.21406842E+04</pdfrwt>
<pdfrwt beam="2">  1       -1 0.15487762E+00 0.21406842E+04</pdfrwt>
<totfact> 0.34804143E+00</totfact>
</mgrwt>
</event>
<event>
 6    1  0.9364335E-007  0.1006578E+04  0.7818608E-02  0.9301360E-01
          2   -1    0    0  501    0  0.00000000000E+00  0.00000000000E+00  0.15807252875E+04  0.15807252875E+04  0.00000000000E+00 0. -1.
         -2   -1    0    0    0  501 -0.00000000000E+00 -0.00000000000E+00 -0.16024271199E+03  0.16024271199E+03  0.00000000000E+00 0.  1.
         23    2    1    2    0    0 -0.24953162855E+03 -0.17235184819E+03  0.14016372530E+04  0.14371155034E+04  0.93502875417E+02 0.  0.
         13    1    3    3    0    0 -0.10897517715E+03 -0.13080701722E+03  0.71148341154E+03  0.73157003075E+03  0.00000000000E+00 0.  1.
        -13    1    3    3    0    0 -0.14055645140E+03 -0.41544830966E+02  0.69015384148E+03  0.70554547261E+03  0.00000000000E+00 0. -1.
         22    1    1    2    0    0  0.24953162855E+03  0.17235184819E+03  0.18845322477E+02  0.30385249612E+03  0.00000000000E+00 0.  1.
<mgrwt>
<rscale>  0 0.10065778E+04</rscale>
<asrwt>0</asrwt>
<pdfrwt beam="1">  1        2 0.24318849E+00 0.10065778E+04</pdfrwt>
<pdfrwt beam="2">  1       -2 0.24652726E-01 0.10065778E+04</pdfrwt>
<totfact> 0.16782883E+02</totfact>
</mgrwt>
</event>
<event>
 6    1  0.9364335E-007  0.3236018E+04  0.7818608E-02  0.8179369E-01
          2   -1    0    0  501    0  0.00000000000E+00  0.00000000000E+00  0.12781967217E+04  0.12781967217E+04  0.00000000000E+00 0. -1.
         -2   -1    0    0    0  501 -0.00000000000E+00 -0.00000000000E+00 -0.20481617822E+04  0.20481617822E+04  0.00000000000E+00 0.  1.
         23    2    1    2    0    0 -0.81066701669E+03 -0.31999912524E+03 -0.17849901111E+04  0.19885033902E+04  0.91518217585E+02 0.  0.
         11    1    3    3    0    0 -0.73527331615E+03 -0.28438894496E+03 -0.16671110914E+04  0.18441158620E+04  0.00000000000E+00 0. -1.
        -11    1    3    3    0    0 -0.75393700539E+02 -0.35610180286E+02 -0.11787901970E+03  0.14438752822E+03  0.00000000000E+00 0.  1.
         22    1    1    2    0    0  0.81066701669E+03  0.31999912524E+03  0.10150250506E+04  0.13378551137E+04  0.00000000000E+00 0. -1.
<mgrwt>
<rscale>  0 0.32360183E+04</rscale>
<asrwt>0</asrwt>
<pdfrwt beam="1">  1        2 0.19664565E+00 0.32360183E+04</pdfrwt>
<pdfrwt beam="2">  1       -2 0.31510181E+00 0.32360183E+04</pdfrwt>
<totfact> 0.36683632E-01</totfact>
</mgrwt>
</event>
<event>
 6    1  0.9364335E-007  0.2756267E+04  0.7818608E-02  0.8316976E-01
          1   -1    0    0  501    0  0.00000000000E+00  0.00000000000E+00  0.20813315939E+04  0.20813315939E+04  0.00000000000E+00 0. -1.
         -1   -1    0    0    0  501 -0.00000000000E+00 -0.00000000000E+00 -0.91251751485E+03  0.91251751485E+03  0.00000000000E+00 0.  1.
         23    2    1    2    0    0 -0.27801832126E+03  0.13269948460E+04  0.84379575409E+03  0.15996301805E+04  0.92822041324E+02 0.  0.
         11    1    3    3    0    0 -0.99173206908E+02  0.58818051713E+03  0.41778878738E+03  0.72824385789E+03  0.00000000000E+00 0. -1.
        -11    1    3    3    0    0 -0.17884511435E+03  0.73881432890E+03  0.42600696671E+03  0.87138632260E+03  0.00000000000E+00 0.  1.
         22    1    1    2    0    0  0.27801832126E+03 -0.13269948460E+04  0.32501832496E+03  0.13942189283E+04  0.00000000000E+00 0.  1.
<mgrwt>
<rscale>  0 0.27562667E+04</rscale>
<asrwt>0</asrwt>
<pdfrwt beam="1">  1        1 0.32020486E+00 0.27562667E+04</pdfrwt>
<pdfrwt beam="2">  1       -1 0.14038731E+00 0.27562667E+04</pdfrwt>
<totfact> 0.94871951E-01</totfact>
</mgrwt>
</event>
<event>
 6    1  0.9364335E-007  0.2995563E+04  0.7818608E-02  0.8244999E-01
         -2   -1    0    0    0  501 -0.00000000000E+00  0.00000000000E+00  0.10283805200E+04  0.10283805200E+04  0.00000000000E+00 0.  1.
          2   -1    0    0  501    0  0.00000000000E+00 -0.00000000000E+00 -0.21814390259E+04  0.21814390259E+04  0.00000000000E+00 0. -1.
         23    2    1    2    0    0  0.40047555149E+03 -0.11853591833E+04  0.30211301665E+03  0.12907100595E+04  0.95932903762E+02 0.  0.
         13    1    3    3    0    0  0.16353664541E+03 -0.51714557157E+03  0.83387738256E+02  0.54875977575E+03  0.00000000000E+00 0.  1.
        -13    1    3    3    0    0  0.23693890607E+03 -0.66821361174E+03  0.21872527839E+03  0.74195028373E+03  0.00000000000E+00 0. -1.
         22    1    1    2    0    0 -0.40047555149E+03  0.11853591833E+04 -0.14551715226E+04  0.19191094864E+04  0.00000000000E+00 0. -1.
<mgrwt>
<rscale>  0 0.29955630E+04</rscale>
<asrwt>0</asrwt>
<pdfrwt beam="1">  1        2 0.33560600E+00 0.29955630E+04</pdfrwt>
<pdfrwt beam="2">  1       -2 0.15821239E+00 0.29955630E+04</pdfrwt>
<totfact> 0.11763548E+00</totfact>
</mgrwt>
</event>
<event>
 6    1  0.9364335E-007  0.8757283E+04  0.7818608E-02  0.7419172E-01
         -2   -1    0    0    0  501 -0.00000000000E+00  0.00000000000E+00  0.46375709261E+04  0.46375709261E+04  0.00000000000E+00 0.  1.
          2   -1    0    0  501    0  0.00000000000E+00 -0.00000000000E+00 -0.41341690842E+04  0.41341690842E+04  0.00000000000E+00 0. -1.
         23    2    1    2    0    0 -0.11453476270E+04 -0.39314442623E+04 -0.13001883010E+04  0.42972553945E+04  0.88538880085E+02 0.  0.
         11    1    3    3    0    0 -0.50317163431E+03 -0.17420962576E+04 -0.62171881504E+03  0.19169286239E+04  0.00000000000E+00 0.  1.
        -11    1    3    3    0    0 -0.64217599270E+03 -0.21893480047E+04 -0.67846948600E+03  0.23803267705E+04  0.00000000000E+00 0. -1.
         22    1    1    2    0    0  0.11453476270E+04  0.39314442623E+04  0.18035901429E+04  0.44744846159E+04  0.00000000000E+00 0.  1.
<mgrwt>
<rscale>  0 0.87572832E+04</rscale>
<asrwt>0</asrwt>
<pdfrwt beam="1">  1        2 0.63602601E+00 0.87572832E+04</pdfrwt>
<pdfrwt beam="2">  1       -2 0.71347246E+00 0.87572832E+04</pdfrwt>
<totfact> 0.30221475E-05</totfact>
</mgrwt>
</event>
<event>
 6    1  0.9364335E-007  0.3534132E+04  0.7818608E-02  0.8105748E-01
         -2   -1    0    0    0  501 -0.00000000000E+00  0.00000000000E+00  0.27031876538E+04  0.27031876538E+04  0.00000000000E+00 0.  1.
          2   -1    0    0  501    0  0.00000000000E+00 -0.00000000000E+00 -0.11551262348E+04  0.11551262348E+04  0.00000000000E+00 0. -1.
         23    2    1    2    0    0 -0.12197218212E+04  0.92590968306E+03  0.17348097878E+04  0.23156198115E+04  0.86602824920E+02 0.  0.
         11    1    3    3    0    0 -0.86613748993E+03  0.70139549088E+03  0.12853300161E+04  0.17012416161E+04  0.00000000000E+00 0. -1.
        -11    1    3    3    0    0 -0.35358433127E+03  0.22451419218E+03  0.44947977168E+03  0.61437819538E+03  0.00000000000E+00 0.  1.
         22    1    1    2    0    0  0.12197218212E+04 -0.92590968306E+03 -0.18674836886E+03  0.15426940771E+04  0.00000000000E+00 0. -1.
<mgrwt>
<rscale>  0 0.35341324E+04</rscale>
<asrwt>0</asrwt>
<pdfrwt beam="1">  1        2 0.17771173E+00 0.35341324E+04</pdfrwt>
<pdfrwt beam="2">  1       -2 0.41587502E+00 0.35341324E+04</pdfrwt>
<totfact> 0.96334504E-02</totfact>
</mgrwt>
</event>
<event>
 6    1  0.9364335E-007  0.3058241E+04  0.7818608E-02  0.8227293E-01
         -2   -1    0    0    0  501 -0.00000000000E+00  0.00000000000E+00  0.69237634612E+03  0.69237634612E+03  0.00000000000E+00 0.  1.
          2   -1    0    0  501    0  0.00000000000E+00 -0.00000000000E+00 -0.33770795993E+04  0.33770795993E+04  0.00000000000E+00 0. -1.
         23    2    1    2    0    0 -0.13619798265E+04 -0.37112778076E+03 -0.21208592884E+04  0.25493753903E+04  0.92443937127E+02 0.  0.
         13    1    3    3    0    0 -0.10222532011E+04 -0.27142433077E+03 -0.16579570371E+04  0.19665945975E+04  0.00000000000E+00 0.  1.
        -13    1    3    3    0    0 -0.33972662549E+03 -0.99703449991E+02 -0.46290225139E+03  0.58278079271E+03  0.00000000000E+00 0. -1.
         22    1    1    2    0    0  0.13619798265E+04  0.37112778076E+03 -0.56384396471E+03  0.15200805551E+04  0.00000000000E+00 0.  1.
<mgrwt>
<rscale>  0 0.30582413E+04</rscale>
<asrwt>0</asrwt>
<pdfrwt beam="1">  1        2 0.51955070E+00 0.30582413E+04</pdfrwt>
<pdfrwt beam="2">  1       -2 0.10651944E+00 0.30582413E+04</pdfrwt>
<totfact> 0.59736031E-01</totfact>
</mgrwt>
</event>
<event>
 6    1  0.9364335E-007  0.9116237E+03  0.7818608E-02  0.9411167E-01
          3   -1    0    0  501    0  0.00000000000E+00  0.00000000000E+00  0.12498220722E+04  0.12498220722E+04  0.00000000000E+00 0. -1.
         -3   -1    0    0    0  501 -0.00000000000E+00 -0.00000000000E+00 -0.16623523178E+03  0.16623523178E+03  0.00000000000E+00 0.  1.
         23    2    1    2    0    0  0.17351069982E+02  0.98683365686E+02  0.12305904932E+04  0.12381541274E+04  0.92915094667E+02 0.  0.
         11    1    3    3    0    0 -0.23417394956E+02  0.58833642804E+02  0.93337251698E+03  0.93551805293E+03  0.00000000000E+00 0. -1.
        -11    1    3    3    0    0  0.40768464939E+02  0.39849722883E+02  0.29721797625E+03  0.30263607444E+03  0.00000000000E+00 0.  1.
         22    1    1    2    0    0 -0.17351069982E+02 -0.98683365686E+02 -0.14700365283E+03  0.17790317658E+03  0.00000000000E+00 0.  1.
<mgrwt>
<rscale>  0 0.91162374E+03</rscale>
<asrwt>0</asrwt>
<pdfrwt beam="1">  1        3 0.19228031E+00 0.91162374E+03</pdfrwt>
<pdfrwt beam="2">  1       -3 0.25574652E-01 0.91162374E+03</pdfrwt>
<totfact> 0.63678203E+00</totfact>
</mgrwt>
</event>
<event>
 6    1  0.9364335E-007  0.1918052E+04  0.7818608E-02  0.8645923E-01
          2   -1    0    0  501    0  0.00000000000E+00  0.00000000000E+00  0.12748084462E+04  0.12748084462E+04  0.00000000000E+00 0. -1.
         -2   -1    0    0    0  501 -0.00000000000E+00 -0.00000000000E+00 -0.72146588780E+03  0.72146588780E+03  0.00000000000E+00 0.  1.
         23    2    1    2    0    0 -0.15557922542E+03 -0.79286182239E+03  0.81057208879E+03  0.11483345979E+04  0.93864118481E+02 0.  0.
         11    1    3    3    0    0 -0.10961287382E+03 -0.49945539771E+03  0.44956548888E+03  0.68086695117E+03  0.00000000000E+00 0.  1.
        -11    1    3    3    0    0 -0.45966351597E+02 -0.29340642468E+03  0.36100659991E+03  0.46746764669E+03  0.00000000000E+00 0. -1.
         22    1    1    2    0    0  0.15557922542E+03  0.79286182239E+03 -0.25722953040E+03  0.84793973612E+03  0.00000000000E+00 0.  1.
<mgrwt>
<rscale>  0 0.19180519E+04</rscale>
<asrwt>0</asrwt>
<pdfrwt beam="1">  1        2 0.19612438E+00 0.19180519E+04</pdfrwt>
<pdfrwt beam="2">  1       -2 0.11099475E+00 0.19180519E+04</pdfrwt>
<totfact> 0.10283499E+01</totfact>
</mgrwt>
</event>
<event>
 6    1  0.9364335E-007  0.3032403E+04  0.7818608E-02  0.8234538E-01
         -2   -1    0    0    0  501 -0.00000000000E+00  0.00000000000E+00  0.10773768770E+04  0.10773768770E+04  0.00000000000E+00 0.  1.
          2   -1    0    0  501    0  0.00000000000E+00 -0.00000000000E+00 -0.21337630642E+04  0.21337630642E+04  0.00000000000E+00 0. -1.
         23    2    1    2    0    0  0.76732448598E+03 -0.12948109679E+04 -0.70996027877E+03  0.16666875401E+04  0.92094784635E+02 0.  0.
         13    1    3    3    0    0  0.55021618685E+03 -0.10035365663E+04 -0.54899645415E+03  0.12693386462E+04  0.00000000000E+00 0. -1.
        -13    1    3    3    0    0  0.21710829914E+03 -0.29127440166E+03 -0.16096382462E+03  0.39734889386E+03  0.00000000000E+00 0.  1.
         22    1    1    2    0    0 -0.76732448598E+03  0.12948109679E+04 -0.34642590839E+03  0.15444524012E+04  0.00000000000E+00 0.  1.
<mgrwt>
<rscale>  0 0.30324030E+04</rscale>
<asrwt>0</asrwt>
<pdfrwt beam="1">  1        2 0.32827124E+00 0.30324030E+04</pdfrwt>
<pdfrwt beam="2">  1       -2 0.16575029E+00 0.30324030E+04</pdfrwt>
<totfact> 0.10981428E+00</totfact>
</mgrwt>
</event>
<event>
 6    1  0.9364335E-007  0.2370822E+04  0.7818608E-02  0.8450509E-01
          2   -1    0    0  501    0  0.00000000000E+00  0.00000000000E+00  0.29232935289E+04  0.29232935289E+04  0.00000000000E+00 0. -1.
         -2   -1    0    0    0  501 -0.00000000000E+00 -0.00000000000E+00 -0.48069044610E+03  0.48069044610E+03  0.00000000000E+00 0.  1.
         23    2    1    2    0    0  0.42705559565E+02 -0.56981066581E+03  0.27114568698E+04  0.27724855043E+04  0.90385592225E+02 0.  0.
         13    1    3    3    0    0  0.38429049998E+02 -0.48397482849E+03  0.21243466733E+04  0.21791184491E+04  0.00000000000E+00 0. -1.
        -13    1    3    3    0    0  0.42765095669E+01 -0.85835837322E+02  0.58711019645E+03  0.59336705527E+03  0.00000000000E+00 0.  1.
         22    1    1    2    0    0 -0.42705559565E+02  0.56981066581E+03 -0.26885378699E+03  0.63149847067E+03  0.00000000000E+00 0.  1.
<mgrwt>
<rscale>  0 0.23708220E+04</rscale>
<asrwt>0</asrwt>
<pdfrwt beam="1">  1        2 0.44973746E+00 0.23708220E+04</pdfrwt>
<pdfrwt beam="2">  1       -2 0.73952378E-01 0.23708220E+04</pdfrwt>
<totfact> 0.28872952E+00</totfact>
</mgrwt>
</event>
<event>
 6    1  0.9364335E-007  0.7893600E+03  0.7818608E-02  0.9575547E-01
         -2   -1    0    0    0  501 -0.00000000000E+00  0.00000000000E+00  0.75907514733E+02  0.75907514733E+02  0.00000000000E+00 0.  1.
          2   -1    0    0  501    0  0.00000000000E+00 -0.00000000000E+00 -0.20521326039E+04  0.20521326039E+04  0.00000000000E+00 0. -1.
         23    2    1    2    0    0  0.12724418859E+03 -0.31394936242E+03 -0.48803510505E+03  0.60178171504E+03  0.95956673085E+02 0.  0.
         13    1    3    3    0    0  0.10094598907E+03 -0.19786746199E+03 -0.38438871256E+03  0.44395529907E+03  0.00000000000E+00 0.  1.
        -13    1    3    3    0    0  0.26298199519E+02 -0.11608190043E+03 -0.10364639248E+03  0.15782641597E+03  0.00000000000E+00 0. -1.
         22    1    1    2    0    0 -0.12724418859E+03  0.31394936242E+03 -0.14881899842E+04  0.15262584036E+04  0.00000000000E+00 0. -1.
<mgrwt>
<rscale>  0 0.78935996E+03</rscale>
<asrwt>0</asrwt>
<pdfrwt beam="1">  1        2 0.31571264E+00 0.78935996E+03</pdfrwt>
<pdfrwt beam="2">  1       -2 0.11678082E-01 0.78935996E+03</pdfrwt>
<totfact> 0.33990819E+02</totfact>
</mgrwt>
</event>
<event>
 6    1  0.9364335E-007  0.3288855E+04  0.7818608E-02  0.8165737E-01
         -2   -1    0    0    0  501 -0.00000000000E+00  0.00000000000E+00  0.99535984373E+03  0.99535984373E+03  0.00000000000E+00 0.  1.
          2   -1    0    0  501    0  0.00000000000E+00 -0.00000000000E+00 -0.27167473758E+04  0.27167473758E+04  0.00000000000E+00 0. -1.
         23    2    1    2    0    0 -0.65945333231E+03  0.14389791759E+04 -0.36378546832E+03  0.16267719636E+04  0.92235504056E+02 0.  0.
         11    1    3    3    0    0 -0.19978276236E+03  0.36987990119E+03 -0.65896839981E+02  0.42551931443E+03  0.00000000000E+00 0.  1.
        -11    1    3    3    0    0 -0.45967056995E+03  0.10690992747E+04 -0.29788862834E+03  0.12012526491E+04  0.00000000000E+00 0. -1.
         22    1    1    2    0    0  0.65945333231E+03 -0.14389791759E+04 -0.13576020637E+04  0.20853352559E+04  0.00000000000E+00 0.  1.
<mgrwt>
<rscale>  0 0.32888547E+04</rscale>
<asrwt>0</asrwt>
<pdfrwt beam="1">  1        2 0.41796113E+00 0.32888547E+04</pdfrwt>
<pdfrwt beam="2">  1       -2 0.15313229E+00 0.32888547E+04</pdfrwt>
<totfact> 0.61495798E-01</totfact>
</mgrwt>
</event>
<event>
 6    1  0.9364335E-007  0.3577613E+03  0.7818608E-02  0.1059474E+00
         -1   -1    0    0    0  501 -0.00000000000E+00  0.00000000000E+00  0.22507071570E+02  0.22507071570E+02  0.00000000000E+00 0.  1.
          1   -1    0    0  501    0  0.00000000000E+00 -0.00000000000E+00 -0.14216989011E+04  0.14216989011E+04  0.00000000000E+00 0. -1.
         23    2    1    2    0    0 -0.15179603415E+03 -0.36137151768E+02 -0.50152948381E+03  0.53308270075E+03  0.91090136568E+02 0.  0.
         13    1    3    3    0    0 -0.37756676980E+02  0.17885011394E+02 -0.55017230084E+02  0.69082095330E+02  0.00000000000E+00 0.  1.
        -13    1    3    3    0    0 -0.11403935717E+03 -0.54022163162E+02 -0.44651225373E+03  0.46400060542E+03  0.00000000000E+00 0. -1.
         22    1    1    2    0    0  0.15179603415E+03  0.36137151768E+02 -0.89766234570E+03  0.91112327191E+03  0.00000000000E+00 0.  1.
<mgrwt>
<rscale>  0 0.35776126E+03</rscale>
<asrwt>0</asrwt>
<pdfrwt beam="1">  1        1 0.21872284E+00 0.35776126E+03</pdfrwt>
<pdfrwt beam="2">  1       -1 0.34626275E-02 0.35776126E+03</pdfrwt>
<totfact> 0.24616250E+03</totfact>
</mgrwt>
</event>
<event>
 6    1  0.9364335E-007  0.3220291E+04  0.7818608E-02  0.8183479E-01
         -2   -1    0    0    0  501 -0.00000000000E+00  0.00000000000E+00  0.16087611139E+04  0.16087611139E+04  0.00000000000E+00 0.  1.
          2   -1    0    0  501    0  0.00000000000E+00 -0.00000000000E+00 -0.16115305918E+04  0.16115305918E+04  0.00000000000E+00 0. -1.
         23    2    1    2    0    0 -0.11619273095E+04  0.97772015393E+03  0.53011046109E+03  0.16109524621E+04  0.90216197216E+02 0.  0.
         13    1    3    3    0    0 -0.98135402699E+03  0.86547833228E+03  0.44831321777E+03  0.13831461279E+04  0.00000000000E+00 0. -1.
        -13    1    3    3    0    0 -0.18057328248E+03  0.11224182165E+03  0.81797243322E+02  0.22780633417E+03  0.00000000000E+00 0.  1.
         22    1    1    2    0    0  0.11619273095E+04 -0.97772015393E+03 -0.53287993901E+03  0.16093392437E+04  0.00000000000E+00 0. -1.
<mgrwt>
<rscale>  0 0.32202905E+04</rscale>
<asrwt>0</asrwt>
<pdfrwt beam="1">  1        2 0.24792778E+00 0.32202905E+04</pdfrwt>
<pdfrwt beam="2">  1       -2 0.24750171E+00 0.32202905E+04</pdfrwt>
<totfact> 0.61499894E-01</totfact>
</mgrwt>
</event>
<event>
 6    1  0.9364335E-007  0.1626609E+04  0.7818608E-02  0.8804366E-01
          2   -1    0    0  501    0  0.00000000000E+00  0.00000000000E+00  0.55073695293E+03  0.55073695293E+03  0.00000000000E+00 0. -1.
         -2   -1    0    0    0  501 -0.00000000000E+00 -0.00000000000E+00 -0.12010535379E+04  0.12010535379E+04  0.00000000000E+00 0.  1.
         23    2    1    2    0    0  0.38010365094E+03 -0.10273365293E+03 -0.10901346069E+04  0.11614745743E+04  0.74811341581E+02 0.  0.
         11    1    3    3    0    0  0.22209991869E+03 -0.42746270995E+02 -0.71750111191E+03  0.75230543209E+03  0.00000000000E+00 0.  1.
        -11    1    3    3    0    0  0.15800373225E+03 -0.59987381934E+02 -0.37263349495E+03  0.40916914224E+03  0.00000000000E+00 0. -1.
         22    1    1    2    0    0 -0.38010365094E+03  0.10273365293E+03  0.43981802190E+03  0.59031591651E+03  0.00000000000E+00 0. -1.
<mgrwt>
<rscale>  0 0.16266094E+04</rscale>
<asrwt>0</asrwt>
<pdfrwt beam="1">  1        2 0.84728762E-01 0.16266094E+04</pdfrwt>
<pdfrwt beam="2">  1       -2 0.18477747E+00 0.16266094E+04</pdfrwt>
<totfact> 0.88351629E+00</totfact>
</mgrwt>
</event>
<event>
 6    1  0.9364335E-007  0.1657377E+04  0.7818608E-02  0.8786054E-01
         -2   -1    0    0    0  501 -0.00000000000E+00  0.00000000000E+00  0.19976367938E+03  0.19976367938E+03  0.00000000000E+00 0.  1.
          2   -1    0    0  501    0  0.00000000000E+00 -0.00000000000E+00 -0.34376840978E+04  0.34376840978E+04  0.00000000000E+00 0. -1.
         23    2    1    2    0    0 -0.12633774699E+03 -0.81009390158E+03 -0.14005200621E+04  0.16254205842E+04  0.91226507568E+02 0.  0.
         13    1    3    3    0    0 -0.73523569668E+01 -0.31115964766E+03 -0.56334190797E+03  0.64360584892E+03  0.00000000000E+00 0.  1.
        -13    1    3    3    0    0 -0.11898539002E+03 -0.49893425392E+03 -0.83717815411E+03  0.98181473532E+03  0.00000000000E+00 0. -1.
         22    1    1    2    0    0  0.12633774699E+03  0.81009390158E+03 -0.18374003564E+04  0.20120271930E+04  0.00000000000E+00 0. -1.
<mgrwt>
<rscale>  0 0.16573768E+04</rscale>
<asrwt>0</asrwt>
<pdfrwt beam="1">  1        2 0.52887448E+00 0.16573768E+04</pdfrwt>
<pdfrwt beam="2">  1       -2 0.30732874E-01 0.16573768E+04</pdfrwt>
<totfact> 0.84895826E+00</totfact>
</mgrwt>
</event>
<event>
 6    1  0.9364335E-007  0.3053913E+04  0.7818608E-02  0.8228501E-01
         -1   -1    0    0    0  501 -0.00000000000E+00  0.00000000000E+00  0.19675824691E+04  0.19675824691E+04  0.00000000000E+00 0.  1.
          1   -1    0    0  501    0  0.00000000000E+00 -0.00000000000E+00 -0.11850057907E+04  0.11850057907E+04  0.00000000000E+00 0. -1.
         23    2    1    2    0    0 -0.65844913701E+03 -0.13537411204E+03 -0.10221914495E+04  0.12266938151E+04  0.89559702641E+02 0.  0.
         13    1    3    3    0    0 -0.25181805433E+03 -0.17017405160E+02 -0.33412324124E+03  0.41873651012E+03  0.00000000000E+00 0. -1.
        -13    1    3    3    0    0 -0.40663108268E+03 -0.11835670688E+03 -0.68806820830E+03  0.80795730503E+03  0.00000000000E+00 0.  1.
         22    1    1    2    0    0  0.65844913701E+03  0.13537411204E+03  0.18047681280E+04  0.19258944447E+04  0.00000000000E+00 0.  1.
<mgrwt>
<rscale>  0 0.30539133E+04</rscale>
<asrwt>0</asrwt>
<pdfrwt beam="1">  1        1 0.18230858E+00 0.30539133E+04</pdfrwt>
<pdfrwt beam="2">  1       -1 0.30270500E+00 0.30539133E+04</pdfrwt>
<totfact> 0.29444115E-01</totfact>
</mgrwt>
</event>
<event>
 6    1  0.9364335E-007  0.1934615E+04  0.7818608E-02  0.8637815E-01
          2   -1    0    0  501    0  0.00000000000E+00  0.00000000000E+00  0.10922864548E+04  0.10922864548E+04  0.00000000000E+00 0. -1.
         -2   -1    0    0    0  501 -0.00000000000E+00 -0.00000000000E+00 -0.85662888833E+03  0.85662888833E+03  0.00000000000E+00 0.  1.
         23    2    1    2    0    0 -0.58353987372E+03 -0.48521944375E+03  0.71864361809E+03  0.10493419893E+04  0.93344886446E+02 0.  0.
         13    1    3    3    0    0 -0.12209886262E+03 -0.14890631461E+03  0.15753748268E+03  0.24879566160E+03  0.00000000000E+00 0. -1.
        -13    1    3    3    0    0 -0.46144101111E+03 -0.33631312914E+03  0.56110613541E+03  0.80054632768E+03  0.00000000000E+00 0.  1.
         22    1    1    2    0    0  0.58353987372E+03  0.48521944375E+03 -0.48298605164E+03  0.89957335382E+03  0.00000000000E+00 0.  1.
<mgrwt>
<rscale>  0 0.19346153E+04</rscale>
<asrwt>0</asrwt>
<pdfrwt beam="1">  1        2 0.16804407E+00 0.19346153E+04</pdfrwt>
<pdfrwt beam="2">  1       -2 0.13178906E+00 0.19346153E+04</pdfrwt>
<totfact> 0.86305606E+00</totfact>
</mgrwt>
</event>
<event>
 6    1  0.9364335E-007  0.3116260E+04  0.7818608E-02  0.8211290E-01
         -2   -1    0    0    0  501 -0.00000000000E+00  0.00000000000E+00  0.13281700384E+04  0.13281700384E+04  0.00000000000E+00 0.  1.
          2   -1    0    0  501    0  0.00000000000E+00 -0.00000000000E+00 -0.18279049186E+04  0.18279049186E+04  0.00000000000E+00 0. -1.
         23    2    1    2    0    0 -0.13301043099E+04 -0.66181729310E+03  0.22132444809E+03  0.15046797409E+04  0.88865104272E+02 0.  0.
         11    1    3    3    0    0 -0.71007193132E+03 -0.33788979718E+03  0.74489468758E+02  0.78988628526E+03  0.00000000000E+00 0. -1.
        -11    1    3    3    0    0 -0.62003237857E+03 -0.32392749592E+03  0.14683497933E+03  0.71479345565E+03  0.00000000000E+00 0.  1.
         22    1    1    2    0    0  0.13301043099E+04  0.66181729310E+03 -0.72105932833E+03  0.16513952161E+04  0.00000000000E+00 0. -1.
<mgrwt>
<rscale>  0 0.31162596E+04</rscale>
<asrwt>0</asrwt>
<pdfrwt beam="1">  1        2 0.28121614E+00 0.31162596E+04</pdfrwt>
<pdfrwt beam="2">  1       -2 0.20433385E+00 0.31162596E+04</pdfrwt>
<totfact> 0.87972180E-01</totfact>
</mgrwt>
</event>
<event>
 6    1  0.9364335E-007  0.4814982E+03  0.7818608E-02  0.1018724E+00
          1   -1    0    0  501    0  0.00000000000E+00  0.00000000000E+00  0.14497124008E+04  0.14497124008E+04  0.00000000000E+00 0. -1.
         -1   -1    0    0    0  501 -0.00000000000E+00 -0.00000000000E+00 -0.39980440168E+02  0.39980440168E+02  0.00000000000E+00 0.  1.
         23    2    1    2    0    0  0.86995141714E+02 -0.10394137974E+03  0.13135466432E+04  0.13234894102E+04  0.88585946986E+02 0.  0.
         13    1    3    3    0    0  0.98903809204E+02 -0.89184716682E+02  0.93143665392E+03  0.94090919723E+03  0.00000000000E+00 0.  1.
        -13    1    3    3    0    0 -0.11908667490E+02 -0.14756663062E+02  0.38210998930E+03  0.38258021302E+03  0.00000000000E+00 0. -1.
         22    1    1    2    0    0 -0.86995141714E+02  0.10394137974E+03  0.96185317451E+02  0.16620343077E+03  0.00000000000E+00 0.  1.
<mgrwt>
<rscale>  0 0.48149824E+03</rscale>
<asrwt>0</asrwt>
<pdfrwt beam="1">  1        1 0.22303264E+00 0.48149824E+03</pdfrwt>
<pdfrwt beam="2">  1       -1 0.61508381E-02 0.48149824E+03</pdfrwt>
<totfact> 0.98368030E+02</totfact>
</mgrwt>
</event>
<event>
 6    1  0.9364335E-007  0.3361936E+04  0.7818608E-02  0.8147312E-01
          2   -1    0    0  501    0  0.00000000000E+00  0.00000000000E+00  0.19447012529E+04  0.19447012529E+04  0.00000000000E+00 0. -1.
         -2   -1    0    0    0  501 -0.00000000000E+00 -0.00000000000E+00 -0.14530014908E+04  0.14530014908E+04  0.00000000000E+00 0.  1.
         23    2    1    2    0    0  0.67923215464E+02  0.11143973166E+04 -0.10223174341E+04  0.15165480417E+04  0.91049900251E+02 0.  0.
         13    1    3    3    0    0  0.44539648439E+02  0.75873536832E+03 -0.63727910224E+03  0.99186077328E+03  0.00000000000E+00 0.  1.
        -13    1    3    3    0    0  0.23383567025E+02  0.35566194827E+03 -0.38503833183E+03  0.52468726840E+03  0.00000000000E+00 0. -1.
         22    1    1    2    0    0 -0.67923215464E+02 -0.11143973166E+04  0.15140171962E+04  0.18811547020E+04  0.00000000000E+00 0. -1.
<mgrwt>
<rscale>  0 0.33619362E+04</rscale>
<asrwt>0</asrwt>
<pdfrwt beam="1">  1        2 0.29918481E+00 0.33619362E+04</pdfrwt>
<pdfrwt beam="2">  1       -2 0.22353869E+00 0.33619362E+04</pdfrwt>
<totfact> 0.55948081E-01</totfact>
</mgrwt>
</event>
<event>
 6    1  0.9364335E-007  0.3402564E+04  0.7818608E-02  0.8137277E-01
          2   -1    0    0  501    0  0.00000000000E+00  0.00000000000E+00  0.31761242632E+04  0.31761242632E+04  0.00000000000E+00 0. -1.
         -2   -1    0    0    0  501 -0.00000000000E+00 -0.00000000000E+00 -0.91128715887E+03  0.91128715887E+03  0.00000000000E+00 0.  1.
         23    2    1    2    0    0  0.35309968821E+03 -0.16596501876E+04  0.10051000698E+04  0.19741070116E+04  0.88057980012E+02 0.  0.
         11    1    3    3    0    0  0.41344277604E+02 -0.36886843857E+03  0.22159026473E+03  0.43229101273E+03  0.00000000000E+00 0. -1.
        -11    1    3    3    0    0  0.31175541061E+03 -0.12907817491E+04  0.78350980506E+03  0.15418159989E+04  0.00000000000E+00 0.  1.
         22    1    1    2    0    0 -0.35309968821E+03  0.16596501876E+04  0.12597370345E+04  0.21133044105E+04  0.00000000000E+00 0. -1.
<mgrwt>
<rscale>  0 0.34025645E+04</rscale>
<asrwt>0</asrwt>
<pdfrwt beam="1">  1        2 0.48863450E+00 0.34025645E+04</pdfrwt>
<pdfrwt beam="2">  1       -2 0.14019803E+00 0.34025645E+04</pdfrwt>
<totfact> 0.39796667E-01</totfact>
</mgrwt>
</event>
<event>
 6    1  0.9364335E-007  0.1274283E+04  0.7818608E-02  0.9050211E-01
         -2   -1    0    0    0  501 -0.00000000000E+00  0.00000000000E+00  0.15396403849E+03  0.15396403849E+03  0.00000000000E+00 0.  1.
          2   -1    0    0  501    0  0.00000000000E+00 -0.00000000000E+00 -0.26366517318E+04  0.26366517318E+04  0.00000000000E+00 0. -1.
         23    2    1    2    0    0  0.47438527425E+02  0.61691091544E+03 -0.94267859212E+03  0.11309599255E+04  0.87166125882E+02 0.  0.
         11    1    3    3    0    0  0.28193260146E+02  0.19326923369E+03 -0.23093908611E+03  0.30245779557E+03  0.00000000000E+00 0. -1.
        -11    1    3    3    0    0  0.19245267279E+02  0.42364168175E+03 -0.71173950601E+03  0.82850212990E+03  0.00000000000E+00 0.  1.
         22    1    1    2    0    0 -0.47438527425E+02 -0.61691091544E+03 -0.15400091012E+04  0.16596558448E+04  0.00000000000E+00 0. -1.
<mgrwt>
<rscale>  0 0.12742834E+04</rscale>
<asrwt>0</asrwt>
<pdfrwt beam="1">  1        2 0.40563872E+00 0.12742834E+04</pdfrwt>
<pdfrwt beam="2">  1       -2 0.23686775E-01 0.12742834E+04</pdfrwt>
<totfact> 0.45274523E+01</totfact>
</mgrwt>
</event>
<event>
 6    1  0.9364335E-007  0.3949622E+04  0.7818608E-02  0.8014787E-01
         -2   -1    0    0    0  501 -0.00000000000E+00  0.00000000000E+00  0.21917346515E+04  0.21917346515E+04  0.00000000000E+00 0.  1.
          2   -1    0    0  501    0  0.00000000000E+00 -0.00000000000E+00 -0.17793570307E+04  0.17793570307E+04  0.00000000000E+00 0. -1.
         23    2    1    2    0    0  0.33882041586E+03 -0.16790242246E+04 -0.77980471865E+03  0.18841752126E+04  0.89995619303E+02 0.  0.
         13    1    3    3    0    0  0.20147821366E+03 -0.88389665712E+03 -0.36992357427E+03  0.97913748874E+03  0.00000000000E+00 0.  1.
        -13    1    3    3    0    0  0.13734220220E+03 -0.79512756746E+03 -0.40988114438E+03  0.90503772383E+03  0.00000000000E+00 0. -1.
         22    1    1    2    0    0 -0.33882041586E+03  0.16790242246E+04  0.11921823394E+04  0.20869164697E+04  0.00000000000E+00 0.  1.
<mgrwt>
<rscale>  0 0.39496220E+04</rscale>
<asrwt>0</asrwt>
<pdfrwt beam="1">  1        2 0.27374724E+00 0.39496220E+04</pdfrwt>
<pdfrwt beam="2">  1       -2 0.33718995E+00 0.39496220E+04</pdfrwt>
<totfact> 0.13136937E-01</totfact>
</mgrwt>
</event>
<event>
 6    1  0.9364335E-007  0.1722075E+04  0.7818608E-02  0.8748873E-01
         -2   -1    0    0    0  501 -0.00000000000E+00  0.00000000000E+00  0.10375442284E+04  0.10375442284E+04  0.00000000000E+00 0.  1.
          2   -1    0    0  501    0  0.00000000000E+00 -0.00000000000E+00 -0.71455819181E+03  0.71455819181E+03  0.00000000000E+00 0. -1.
         23    2    1    2    0    0  0.80496506018E+00  0.85426987482E+03  0.75393796873E+02  0.86267587230E+03  0.93529508941E+02 0.  0.
         11    1    3    3    0    0  0.44953198852E+02  0.32058106981E+03  0.20707593381E+02  0.32437912515E+03  0.00000000000E+00 0.  1.
        -11    1    3    3    0    0 -0.44148233792E+02  0.53368880501E+03  0.54686203491E+02  0.53829674715E+03  0.00000000000E+00 0. -1.
         22    1    1    2    0    0 -0.80496506018E+00 -0.85426987482E+03  0.24759223975E+03  0.88942654794E+03  0.00000000000E+00 0.  1.
<mgrwt>
<rscale>  0 0.17220752E+04</rscale>
<asrwt>0</asrwt>
<pdfrwt beam="1">  1        2 0.10993203E+00 0.17220752E+04</pdfrwt>
<pdfrwt beam="2">  1       -2 0.15962219E+00 0.17220752E+04</pdfrwt>
<totfact> 0.96060148E+00</totfact>
</mgrwt>
</event>
<event>
 6    1  0.9364335E-007  0.8216467E+03  0.7818608E-02  0.9529202E-01
         -2   -1    0    0    0  501 -0.00000000000E+00  0.00000000000E+00  0.10993009464E+03  0.10993009464E+03  0.00000000000E+00 0.  1.
          2   -1    0    0  501    0  0.00000000000E+00 -0.00000000000E+00 -0.15353014131E+04  0.15353014131E+04  0.00000000000E+00 0. -1.
         23    2    1    2    0    0 -0.24955624260E+03  0.20558167202E+03 -0.12124287229E+04  0.12580794819E+04  0.90765812217E+02 0.  0.
         11    1    3    3    0    0 -0.90682277909E+02  0.66838887970E+02 -0.59624622944E+03  0.60679508782E+03  0.00000000000E+00 0. -1.
        -11    1    3    3    0    0 -0.15887396469E+03  0.13874278405E+03 -0.61618249341E+03  0.65128439408E+03  0.00000000000E+00 0.  1.
         22    1    1    2    0    0  0.24955624260E+03 -0.20558167202E+03 -0.21294259561E+03  0.38715202584E+03  0.00000000000E+00 0. -1.
<mgrwt>
<rscale>  0 0.82164671E+03</rscale>
<asrwt>0</asrwt>
<pdfrwt beam="1">  1        2 0.23620021E+00 0.82164671E+03</pdfrwt>
<pdfrwt beam="2">  1       -2 0.16912323E-01 0.82164671E+03</pdfrwt>
<totfact> 0.34933357E+02</totfact>
</mgrwt>
</event>
<event>
 6    1  0.9364335E-007  0.1115089E+04  0.7818608E-02  0.9190608E-01
         -2   -1    0    0    0  501 -0.00000000000E+00  0.00000000000E+00  0.10758965252E+03  0.10758965252E+03  0.00000000000E+00 0.  1.
          2   -1    0    0  501    0  0.00000000000E+00 -0.00000000000E+00 -0.28892737632E+04  0.28892737632E+04  0.00000000000E+00 0. -1.
         23    2    1    2    0    0 -0.16788848582E+02  0.19970523819E+03 -0.27876554991E+04  0.27963647747E+04  0.92025668766E+02 0.  0.
         11    1    3    3    0    0  0.38242254659E+02  0.73997065816E+02 -0.10641902807E+04  0.10674450755E+04  0.00000000000E+00 0.  1.
        -11    1    3    3    0    0 -0.55031103241E+02  0.12570817238E+03 -0.17234652184E+04  0.17289196991E+04  0.00000000000E+00 0. -1.
         22    1    1    2    0    0  0.16788848582E+02 -0.19970523819E+03  0.59713883944E+01  0.20049864109E+03  0.00000000000E+00 0.  1.
<mgrwt>
<rscale>  0 0.11150892E+04</rscale>
<asrwt>0</asrwt>
<pdfrwt beam="1">  1        2 0.44450362E+00 0.11150892E+04</pdfrwt>
<pdfrwt beam="2">  1       -2 0.16552255E-01 0.11150892E+04</pdfrwt>
<totfact> 0.61021417E+01</totfact>
</mgrwt>
</event>
<event>
 6    1  0.9364335E-007  0.4387231E+04  0.7818608E-02  0.7930682E-01
         -2   -1    0    0    0  501 -0.00000000000E+00  0.00000000000E+00  0.15122239334E+04  0.15122239334E+04  0.00000000000E+00 0.  1.
          2   -1    0    0  501    0  0.00000000000E+00 -0.00000000000E+00 -0.31820346721E+04  0.31820346721E+04  0.00000000000E+00 0. -1.
         23    2    1    2    0    0  0.96151226704E+03 -0.19700166264E+04 -0.88654398394E+03  0.23663887301E+04  0.91455117429E+02 0.  0.
         13    1    3    3    0    0  0.81160904023E+02 -0.18836742527E+03 -0.11027997890E+03  0.23287561699E+03  0.00000000000E+00 0. -1.
        -13    1    3    3    0    0  0.88035136302E+03 -0.17816492011E+04 -0.77626400505E+03  0.21335131131E+04  0.00000000000E+00 0.  1.
         22    1    1    2    0    0 -0.96151226704E+03  0.19700166264E+04 -0.78326675478E+03  0.23278698754E+04  0.00000000000E+00 0. -1.
<mgrwt>
<rscale>  0 0.43872310E+04</rscale>
<asrwt>0</asrwt>
<pdfrwt beam="1">  1        2 0.48954380E+00 0.43872310E+04</pdfrwt>
<pdfrwt beam="2">  1       -2 0.23264983E+00 0.43872310E+04</pdfrwt>
<totfact> 0.83753978E-02</totfact>
</mgrwt>
</event>
<event>
 6    1  0.9364335E-007  0.2858231E+04  0.7818608E-02  0.8285415E-01
          2   -1    0    0  501    0  0.00000000000E+00  0.00000000000E+00  0.14146159621E+04  0.14146159621E+04  0.00000000000E+00 0. -1.
         -2   -1    0    0    0  501 -0.00000000000E+00 -0.00000000000E+00 -0.14437636062E+04  0.14437636062E+04  0.00000000000E+00 0.  1.
         23    2    1    2    0    0  0.82399765723E+03 -0.58166214663E+03 -0.10250768554E+04  0.14409248121E+04  0.90436512095E+02 0.  0.
         11    1    3    3    0    0  0.26109582194E+03 -0.13413096498E+03 -0.29645706671E+03  0.41719172619E+03  0.00000000000E+00 0.  1.
        -11    1    3    3    0    0  0.56290183529E+03 -0.44753118165E+03 -0.72861978864E+03  0.10237330859E+04  0.00000000000E+00 0. -1.
         22    1    1    2    0    0 -0.82399765723E+03  0.58166214663E+03  0.99592921125E+03  0.14174547562E+04  0.00000000000E+00 0. -1.
<mgrwt>
<rscale>  0 0.28582310E+04</rscale>
<asrwt>0</asrwt>
<pdfrwt beam="1">  1        2 0.21763322E+00 0.28582310E+04</pdfrwt>
<pdfrwt beam="2">  1       -2 0.22211748E+00 0.28582310E+04</pdfrwt>
<totfact> 0.11781003E+00</totfact>
</mgrwt>
</event>
<event>
 6    1  0.9364335E-007  0.2126475E+04  0.7818608E-02  0.8549670E-01
          2   -1    0    0  501    0  0.00000000000E+00  0.00000000000E+00  0.29684545196E+04  0.29684545196E+04  0.00000000000E+00 0. -1.
         -2   -1    0    0    0  501 -0.00000000000E+00 -0.00000000000E+00 -0.38082909265E+03  0.38082909265E+03  0.00000000000E+00 0.  1.
         23    2    1    2    0    0  0.64809363631E+02 -0.18124857055E+00  0.29646119631E+04  0.29667667696E+04  0.92631999122E+02 0.  0.
         13    1    3    3    0    0  0.37519705745E+02  0.37097230641E+02  0.22735855352E+04  0.22741976868E+04  0.00000000000E+00 0. -1.
        -13    1    3    3    0    0  0.27289657886E+02 -0.37278479211E+02  0.69102642793E+03  0.69256908286E+03  0.00000000000E+00 0.  1.
         22    1    1    2    0    0 -0.64809363631E+02  0.18124857055E+00 -0.37698653613E+03  0.38251684262E+03  0.00000000000E+00 0.  1.
<mgrwt>
<rscale>  0 0.21264749E+04</rscale>
<asrwt>0</asrwt>
<pdfrwt beam="1">  1        2 0.45668530E+00 0.21264749E+04</pdfrwt>
<pdfrwt beam="2">  1       -2 0.58589093E-01 0.21264749E+04</pdfrwt>
<totfact> 0.45700687E+00</totfact>
</mgrwt>
</event>
<event>
 6    1  0.9364335E-007  0.1870978E+04  0.7818608E-02  0.8669439E-01
         -2   -1    0    0    0  501 -0.00000000000E+00  0.00000000000E+00  0.87136919172E+03  0.87136919172E+03  0.00000000000E+00 0.  1.
          2   -1    0    0  501    0  0.00000000000E+00 -0.00000000000E+00 -0.10043276016E+04  0.10043276016E+04  0.00000000000E+00 0. -1.
         23    2    1    2    0    0 -0.19190753986E+03  0.43441963540E+03  0.73885927456E+03  0.88291534789E+03  0.89875249489E+02 0.  0.
         13    1    3    3    0    0 -0.14495772594E+03  0.36262816052E+03  0.65723244528E+03  0.76450403023E+03  0.00000000000E+00 0.  1.
        -13    1    3    3    0    0 -0.46949813915E+02  0.71791474886E+02  0.81626829276E+02  0.11841131766E+03  0.00000000000E+00 0. -1.
         22    1    1    2    0    0  0.19190753986E+03 -0.43441963540E+03 -0.87181768441E+03  0.99278144540E+03  0.00000000000E+00 0. -1.
<mgrwt>
<rscale>  0 0.18709785E+04</rscale>
<asrwt>0</asrwt>
<pdfrwt beam="1">  1        2 0.15451194E+00 0.18709785E+04</pdfrwt>
<pdfrwt beam="2">  1       -2 0.13405680E+00 0.18709785E+04</pdfrwt>
<totfact> 0.94362670E+00</totfact>
</mgrwt>
</event>
<event>
 6    1  0.9364335E-007  0.1489454E+04  0.7818608E-02  0.8891496E-01
          1   -1    0    0  501    0  0.00000000000E+00  0.00000000000E+00  0.39738848732E+03  0.39738848732E+03  0.00000000000E+00 0. -1.
         -1   -1    0    0    0  501 -0.00000000000E+00 -0.00000000000E+00 -0.13956576021E+04  0.13956576021E+04  0.00000000000E+00 0.  1.
         23    2    1    2    0    0  0.19306399650E+03  0.61777846135E+03 -0.64423326940E+02  0.65682784916E+03  0.91370259548E+02 0.  0.
         13    1    3    3    0    0  0.12600717392E+03  0.31563208933E+03 -0.71298822269E+02  0.34725343159E+03  0.00000000000E+00 0.  1.
        -13    1    3    3    0    0  0.67056822579E+02  0.30214637202E+03  0.68754953290E+01  0.30957441758E+03  0.00000000000E+00 0. -1.
         22    1    1    2    0    0 -0.19306399650E+03 -0.61777846135E+03 -0.93384578787E+03  0.11362182403E+04  0.00000000000E+00 0.  1.
<mgrwt>
<rscale>  0 0.14894539E+04</rscale>
<asrwt>0</asrwt>
<pdfrwt beam="1">  1        1 0.61136690E-01 0.14894539E+04</pdfrwt>
<pdfrwt beam="2">  1       -1 0.21471656E+00 0.14894539E+04</pdfrwt>
<totfact> 0.69984880E+00</totfact>
</mgrwt>
</event>
<event>
 6    1  0.9364335E-007  0.1724448E+04  0.7818608E-02  0.8747542E-01
          1   -1    0    0  501    0  0.00000000000E+00  0.00000000000E+00  0.79321008901E+03  0.79321008901E+03  0.00000000000E+00 0. -1.
         -1   -1    0    0    0  501 -0.00000000000E+00 -0.00000000000E+00 -0.93724265239E+03  0.93724265239E+03  0.00000000000E+00 0.  1.
         23    2    1    2    0    0  0.11791919334E+03 -0.85031702929E+03 -0.12169675151E+03  0.87170779967E+03  0.90113274347E+02 0.  0.
         13    1    3    3    0    0  0.23893768870E+02 -0.37449090180E+02 -0.16359020508E-01  0.44422368394E+02  0.00000000000E+00 0. -1.
        -13    1    3    3    0    0  0.94025424468E+02 -0.81286793911E+03 -0.12168039249E+03  0.82728543127E+03  0.00000000000E+00 0.  1.
         22    1    1    2    0    0 -0.11791919334E+03  0.85031702929E+03 -0.22335811859E+02  0.85874494173E+03  0.00000000000E+00 0.  1.
<mgrwt>
<rscale>  0 0.17244481E+04</rscale>
<asrwt>0</asrwt>
<pdfrwt beam="1">  1        1 0.12203232E+00 0.17244481E+04</pdfrwt>
<pdfrwt beam="2">  1       -1 0.14419118E+00 0.17244481E+04</pdfrwt>
<totfact> 0.82556336E+00</totfact>
</mgrwt>
</event>
<event>
 6    1  0.9364335E-007  0.1683602E+04  0.7818608E-02  0.8770773E-01
          2   -1    0    0  501    0  0.00000000000E+00  0.00000000000E+00  0.24825456106E+04  0.24825456106E+04  0.00000000000E+00 0. -1.
         -2   -1    0    0    0  501 -0.00000000000E+00 -0.00000000000E+00 -0.28544438819E+03  0.28544438819E+03  0.00000000000E+00 0.  1.
         23    2    1    2    0    0  0.58369595606E+03 -0.11929040958E+03  0.12926847698E+03  0.61604589310E+03  0.88718838616E+02 0.  0.
         13    1    3    3    0    0  0.29528781443E+03 -0.15080175645E+02  0.63221212624E+02  0.30235612574E+03  0.00000000000E+00 0.  1.
        -13    1    3    3    0    0  0.28840814163E+03 -0.10421023394E+03  0.66047264357E+02  0.31368976736E+03  0.00000000000E+00 0. -1.
         22    1    1    2    0    0 -0.58369595606E+03  0.11929040958E+03  0.20678327454E+04  0.21519441057E+04  0.00000000000E+00 0. -1.
<mgrwt>
<rscale>  0 0.16836017E+04</rscale>
<asrwt>0</asrwt>
<pdfrwt beam="1">  1        2 0.38193008E+00 0.16836017E+04</pdfrwt>
<pdfrwt beam="2">  1       -2 0.43914523E-01 0.16836017E+04</pdfrwt>
<totfact> 0.16720983E+01</totfact>
</mgrwt>
</event>
<event>
 6    1  0.9364335E-007  0.3949894E+04  0.7818608E-02  0.8014731E-01
          2   -1    0    0  501    0  0.00000000000E+00  0.00000000000E+00  0.11160570717E+04  0.11160570717E+04  0.00000000000E+00 0. -1.
         -2   -1    0    0    0  501 -0.00000000000E+00 -0.00000000000E+00 -0.34948179380E+04  0.34948179380E+04  0.00000000000E+00 0.  1.
         23    2    1    2    0    0  0.40393910112E+03  0.19175331128E+04 -0.91317706547E+03  0.21638286446E+04  0.90343867463E+02 0.  0.
         13    1    3    3    0    0  0.21045129024E+03  0.88002958862E+03 -0.37990979962E+03  0.98136296968E+03  0.00000000000E+00 0. -1.
        -13    1    3    3    0    0  0.19348781088E+03  0.10375035241E+04 -0.53326726585E+03  0.11824656749E+04  0.00000000000E+00 0.  1.
         22    1    1    2    0    0 -0.40393910112E+03 -0.19175331128E+04 -0.14655838008E+04  0.24470463651E+04  0.00000000000E+00 0.  1.
<mgrwt>
<rscale>  0 0.39498943E+04</rscale>
<asrwt>0</asrwt>
<pdfrwt beam="1">  1        2 0.17170109E+00 0.39498943E+04</pdfrwt>
<pdfrwt beam="2">  1       -2 0.53766429E+00 0.39498943E+04</pdfrwt>
<totfact> 0.16754156E-02</totfact>
</mgrwt>
</event>
<event>
 6    1  0.9364335E-007  0.1652405E+04  0.7818608E-02  0.8788985E-01
          2   -1    0    0  501    0  0.00000000000E+00  0.00000000000E+00  0.15798882581E+04  0.15798882581E+04  0.00000000000E+00 0. -1.
         -2   -1    0    0    0  501 -0.00000000000E+00 -0.00000000000E+00 -0.43206272255E+03  0.43206272255E+03  0.00000000000E+00 0.  1.
         23    2    1    2    0    0 -0.52042615488E+03  0.60504533111E+03  0.82419766817E+03  0.11507551656E+04  0.89512119273E+02 0.  0.
         13    1    3    3    0    0 -0.13666882079E+03  0.15298211141E+03  0.27018850430E+03  0.33923991635E+03  0.00000000000E+00 0.  1.
        -13    1    3    3    0    0 -0.38375733409E+03  0.45206321970E+03  0.55400916386E+03  0.81151524922E+03  0.00000000000E+00 0. -1.
         22    1    1    2    0    0  0.52042615488E+03 -0.60504533111E+03  0.32362786740E+03  0.86119581509E+03  0.00000000000E+00 0.  1.
<mgrwt>
<rscale>  0 0.16524053E+04</rscale>
<asrwt>0</asrwt>
<pdfrwt beam="1">  1        2 0.24305973E+00 0.16524053E+04</pdfrwt>
<pdfrwt beam="2">  1       -2 0.66471189E-01 0.16524053E+04</pdfrwt>
<totfact> 0.22736634E+01</totfact>
</mgrwt>
</event>
<event>
 6    1  0.9364335E-007  0.1231146E+04  0.7818608E-02  0.9086023E-01
         -2   -1    0    0    0  501 -0.00000000000E+00  0.00000000000E+00  0.46924327714E+03  0.46924327714E+03  0.00000000000E+00 0.  1.
          2   -1    0    0  501    0  0.00000000000E+00 -0.00000000000E+00 -0.80753491539E+03  0.80753491539E+03  0.00000000000E+00 0. -1.
         23    2    1    2    0    0 -0.41589090308E+03 -0.17555818197E+03  0.25926053559E+03  0.52787598331E+03  0.87470623200E+02 0.  0.
         13    1    3    3    0    0 -0.39240405289E+03 -0.17521355856E+03  0.26337226970E+03  0.50402944782E+03  0.00000000000E+00 0. -1.
        -13    1    3    3    0    0 -0.23486850193E+02 -0.34462340729E+00 -0.41117341155E+01  0.23846535487E+02  0.00000000000E+00 0.  1.
         22    1    1    2    0    0  0.41589090308E+03  0.17555818197E+03 -0.59755217384E+03  0.74890220922E+03  0.00000000000E+00 0. -1.
<mgrwt>
<rscale>  0 0.12311463E+04</rscale>
<asrwt>0</asrwt>
<pdfrwt beam="1">  1        2 0.12423614E+00 0.12311463E+04</pdfrwt>
<pdfrwt beam="2">  1       -2 0.72191274E-01 0.12311463E+04</pdfrwt>
<totfact> 0.58224249E+01</totfact>
</mgrwt>
</event>
<event>
 6    1  0.9364335E-007  0.1538016E+04  0.7818608E-02  0.8859559E-01
         -1   -1    0    0    0  501 -0.00000000000E+00  0.00000000000E+00  0.31596859878E+03  0.31596859878E+03  0.00000000000E+00 0.  1.
          1   -1    0    0  501    0  0.00000000000E+00 -0.00000000000E+00 -0.18716201419E+04  0.18716201419E+04  0.00000000000E+00 0. -1.
         23    2    1    2    0    0 -0.15964001180E+03 -0.73969844675E+03 -0.95209763350E+03  0.12196445030E+04  0.91673793472E+02 0.  0.
         11    1    3    3    0    0 -0.92710578430E+02 -0.30219549570E+03 -0.45556760990E+03  0.55449005055E+03  0.00000000000E+00 0. -1.
        -11    1    3    3    0    0 -0.66929433366E+02 -0.43750295104E+03 -0.49653002360E+03  0.66515445241E+03  0.00000000000E+00 0.  1.
         22    1    1    2    0    0  0.15964001180E+03  0.73969844675E+03 -0.60355390957E+03  0.96794423767E+03  0.00000000000E+00 0. -1.
<mgrwt>
<rscale>  0 0.15380159E+04</rscale>
<asrwt>0</asrwt>
<pdfrwt beam="1">  1        1 0.28794156E+00 0.15380159E+04</pdfrwt>
<pdfrwt beam="2">  1       -1 0.48610554E-01 0.15380159E+04</pdfrwt>
<totfact> 0.14878751E+01</totfact>
</mgrwt>
</event>
<event>
 6    1  0.9364335E-007  0.4753314E+03  0.7818608E-02  0.1020426E+00
          1   -1    0    0  501    0  0.00000000000E+00  0.00000000000E+00  0.53320412531E+03  0.53320412531E+03  0.00000000000E+00 0. -1.
         -1   -1    0    0    0  501 -0.00000000000E+00 -0.00000000000E+00 -0.10593501441E+03  0.10593501441E+03  0.00000000000E+00 0.  1.
         23    2    1    2    0    0 -0.10909867259E+03 -0.12127977000E+03  0.59249834961E+01  0.18731818329E+03  0.91878688447E+02 0.  0.
         13    1    3    3    0    0 -0.49041565545E+02 -0.95524012156E+02 -0.31641973759E+02  0.11194251450E+03  0.00000000000E+00 0.  1.
        -13    1    3    3    0    0 -0.60057107042E+02 -0.25755757848E+02  0.37566957255E+02  0.75375668793E+02  0.00000000000E+00 0. -1.
         22    1    1    2    0    0  0.10909867259E+03  0.12127977000E+03  0.42134412740E+03  0.45182095643E+03  0.00000000000E+00 0. -1.
<mgrwt>
<rscale>  0 0.47533141E+03</rscale>
<asrwt>0</asrwt>
<pdfrwt beam="1">  1        1 0.82031402E-01 0.47533141E+03</pdfrwt>
<pdfrwt beam="2">  1       -1 0.16297695E-01 0.47533141E+03</pdfrwt>
<totfact> 0.11667941E+03</totfact>
</mgrwt>
</event>
<event>
 6    1  0.9364335E-007  0.3873796E+04  0.7818608E-02  0.8030501E-01
         -3   -1    0    0    0  501 -0.00000000000E+00  0.00000000000E+00  0.11578005120E+04  0.11578005120E+04  0.00000000000E+00 0.  1.
          3   -1    0    0  501    0  0.00000000000E+00 -0.00000000000E+00 -0.32402591139E+04  0.32402591139E+04  0.00000000000E+00 0. -1.
         23    2    1    2    0    0 -0.12968811510E+04  0.58753089788E+03 -0.25309205851E+04  0.29053401526E+04  0.91373511185E+02 0.  0.
         11    1    3    3    0    0 -0.96687125030E+03  0.47820931015E+03 -0.18850782641E+04  0.21718757378E+04  0.00000000000E+00 0.  1.
        -11    1    3    3    0    0 -0.33000990069E+03  0.10932158772E+03 -0.64584232101E+03  0.73346441475E+03  0.00000000000E+00 0. -1.
         22    1    1    2    0    0  0.12968811510E+04 -0.58753089788E+03  0.44846198321E+03  0.14927194734E+04  0.00000000000E+00 0.  1.
<mgrwt>
<rscale>  0 0.38737959E+04</rscale>
<asrwt>0</asrwt>
<pdfrwt beam="1">  1        3 0.49850139E+00 0.38737959E+04</pdfrwt>
<pdfrwt beam="2">  1       -3 0.17812316E+00 0.38737959E+04</pdfrwt>
<totfact> 0.14597947E-03</totfact>
</mgrwt>
</event>
<event>
 6    1  0.9364335E-007  0.2246581E+04  0.7818608E-02  0.8499286E-01
         -1   -1    0    0    0  501 -0.00000000000E+00  0.00000000000E+00  0.57554947718E+03  0.57554947718E+03  0.00000000000E+00 0.  1.
          1   -1    0    0  501    0  0.00000000000E+00 -0.00000000000E+00 -0.21923080425E+04  0.21923080425E+04  0.00000000000E+00 0. -1.
         23    2    1    2    0    0  0.70920164268E+03  0.63151665424E+03 -0.15445973238E+04  0.18154986066E+04  0.92054566158E+02 0.  0.
         11    1    3    3    0    0  0.33137507585E+03  0.29402270272E+03 -0.80843323719E+03  0.92185849760E+03  0.00000000000E+00 0.  1.
        -11    1    3    3    0    0  0.37782656683E+03  0.33749395151E+03 -0.73616408663E+03  0.89364010896E+03  0.00000000000E+00 0. -1.
         22    1    1    2    0    0 -0.70920164268E+03 -0.63151665424E+03 -0.72161241478E+02  0.95235891309E+03  0.00000000000E+00 0.  1.
<mgrwt>
<rscale>  0 0.22465812E+04</rscale>
<asrwt>0</asrwt>
<pdfrwt beam="1">  1        1 0.33727816E+00 0.22465812E+04</pdfrwt>
<pdfrwt beam="2">  1       -1 0.88546073E-01 0.22465812E+04</pdfrwt>
<totfact> 0.25065910E+00</totfact>
</mgrwt>
</event>
<event>
 6    1  0.9364335E-007  0.1096043E+04  0.7818608E-02  0.9209057E-01
         -1   -1    0    0    0  501 -0.00000000000E+00  0.00000000000E+00  0.28225870492E+03  0.28225870492E+03  0.00000000000E+00 0.  1.
          1   -1    0    0  501    0  0.00000000000E+00 -0.00000000000E+00 -0.10640159675E+04  0.10640159675E+04  0.00000000000E+00 0. -1.
         23    2    1    2    0    0  0.29547133076E+02  0.52232110026E+03 -0.57803859582E+03  0.78485356486E+03  0.90410923919E+02 0.  0.
         11    1    3    3    0    0  0.25627195118E+02  0.19167818966E+03 -0.27599777674E+03  0.33700453155E+03  0.00000000000E+00 0.  1.
        -11    1    3    3    0    0  0.39199379580E+01  0.33064291060E+03 -0.30204081908E+03  0.44784903331E+03  0.00000000000E+00 0. -1.
         22    1    1    2    0    0 -0.29547133076E+02 -0.52232110026E+03 -0.20371866678E+03  0.56142110759E+03  0.00000000000E+00 0.  1.
<mgrwt>
<rscale>  0 0.10960434E+04</rscale>
<asrwt>0</asrwt>
<pdfrwt beam="1">  1        1 0.16369476E+00 0.10960434E+04</pdfrwt>
<pdfrwt beam="2">  1       -1 0.43424417E-01 0.10960434E+04</pdfrwt>
<totfact> 0.70390957E+01</totfact>
</mgrwt>
</event>
<event>
 6    1  0.1305526E-006  0.3719799E+04  0.7818608E-02  0.8063588E-01
          2   -1    0    0  501    0  0.00000000000E+00  0.00000000000E+00  0.30392489135E+04  0.30392489135E+04  0.00000000000E+00 0. -1.
         -2   -1    0    0    0  501 -0.00000000000E+00 -0.00000000000E+00 -0.11381845355E+04  0.11381845355E+04  0.00000000000E+00 0.  1.
         23    2    1    2    0    0 -0.62949839440E+03  0.73772523434E+03  0.27319149705E+04  0.29003980317E+04  0.91883547514E+02 0.  0.
         11    1    3    3    0    0 -0.25267358860E+03  0.36420172617E+03  0.12082949133E+04  0.12870366883E+04  0.00000000000E+00 0. -1.
        -11    1    3    3    0    0 -0.37682480580E+03  0.37352350817E+03  0.15236200572E+04  0.16133613434E+04  0.00000000000E+00 0.  1.
         22    1    1    2    0    0  0.62949839440E+03 -0.73772523434E+03 -0.83085059256E+03  0.12770354173E+04  0.00000000000E+00 0.  1.
<mgrwt>
<rscale>  0 0.37197990E+04</rscale>
<asrwt>0</asrwt>
<pdfrwt beam="1">  1        2 0.46757675E+00 0.37197990E+04</pdfrwt>
<pdfrwt beam="2">  1       -2 0.17510531E+00 0.37197990E+04</pdfrwt>
<totfact> 0.26019693E-01</totfact>
</mgrwt>
</event>
<event>
 6    1  0.9364335E-007  0.2773783E+04  0.7818608E-02  0.8311454E-01
         -2   -1    0    0    0  501 -0.00000000000E+00  0.00000000000E+00  0.14103058895E+04  0.14103058895E+04  0.00000000000E+00 0.  1.
          2   -1    0    0  501    0  0.00000000000E+00 -0.00000000000E+00 -0.13638660799E+04  0.13638660799E+04  0.00000000000E+00 0. -1.
         23    2    1    2    0    0  0.41672062090E+03 -0.10975481239E+04  0.75890322078E+03  0.14009013943E+04  0.91228603072E+02 0.  0.
         13    1    3    3    0    0  0.32482586159E+03 -0.73978883554E+03  0.50869142111E+03  0.95475982502E+03  0.00000000000E+00 0.  1.
        -13    1    3    3    0    0  0.91894759312E+02 -0.35775928833E+03  0.25021179967E+03  0.44614156931E+03  0.00000000000E+00 0. -1.
         22    1    1    2    0    0 -0.41672062090E+03  0.10975481239E+04 -0.71246341123E+03  0.13732705751E+04  0.00000000000E+00 0.  1.
<mgrwt>
<rscale>  0 0.27737832E+04</rscale>
<asrwt>0</asrwt>
<pdfrwt beam="1">  1        2 0.20982555E+00 0.27737832E+04</pdfrwt>
<pdfrwt beam="2">  1       -2 0.21697014E+00 0.27737832E+04</pdfrwt>
<totfact> 0.13676474E+00</totfact>
</mgrwt>
</event>
<event>
 6    1  0.9364335E-007  0.1789648E+04  0.7818608E-02  0.8711824E-01
         -2   -1    0    0    0  501 -0.00000000000E+00  0.00000000000E+00  0.32530146189E+03  0.32530146189E+03  0.00000000000E+00 0.  1.
          2   -1    0    0  501    0  0.00000000000E+00 -0.00000000000E+00 -0.24614411097E+04  0.24614411097E+04  0.00000000000E+00 0. -1.
         23    2    1    2    0    0  0.23023258103E+02  0.48638326049E+03 -0.22355056461E+04  0.22897794461E+04  0.92226197316E+02 0.  0.
         13    1    3    3    0    0  0.44101871859E+02  0.40482874010E+03 -0.19519879529E+04  0.19940131023E+04  0.00000000000E+00 0.  1.
        -13    1    3    3    0    0 -0.21078613756E+02  0.81554520381E+02 -0.28351769320E+03  0.29576634378E+03  0.00000000000E+00 0. -1.
         22    1    1    2    0    0 -0.23023258103E+02 -0.48638326049E+03  0.99365998293E+02  0.49696312550E+03  0.00000000000E+00 0.  1.
<mgrwt>
<rscale>  0 0.17896484E+04</rscale>
<asrwt>0</asrwt>
<pdfrwt beam="1">  1        2 0.37868324E+00 0.17896484E+04</pdfrwt>
<pdfrwt beam="2">  1       -2 0.50046379E-01 0.17896484E+04</pdfrwt>
<totfact> 0.13092497E+01</totfact>
</mgrwt>
</event>
<event>
 6    1  0.9364335E-007  0.2717576E+04  0.7818608E-02  0.8329325E-01
         -4   -1    0    0    0  501 -0.00000000000E+00  0.00000000000E+00  0.18852256600E+04  0.18852256600E+04  0.00000000000E+00 0.  1.
          4   -1    0    0  501    0  0.00000000000E+00 -0.00000000000E+00 -0.97935453246E+03  0.97935453246E+03  0.00000000000E+00 0. -1.
         23    2    1    2    0    0  0.12317359842E+04  0.21149636006E+03 -0.10415455661E+03  0.12577024349E+04  0.95199780274E+02 0.  0.
         13    1    3    3    0    0  0.30237279983E+03  0.18300318536E+02 -0.14378220066E+01  0.30292949521E+03  0.00000000000E+00 0. -1.
        -13    1    3    3    0    0  0.92936318433E+03  0.19319604153E+03 -0.10271673461E+03  0.95477293972E+03  0.00000000000E+00 0.  1.
         22    1    1    2    0    0 -0.12317359842E+04 -0.21149636006E+03  0.10100256842E+04  0.16068777576E+04  0.00000000000E+00 0. -1.
<mgrwt>
<rscale>  0 0.27175756E+04</rscale>
<asrwt>0</asrwt>
<pdfrwt beam="1">  1        4 0.15066993E+00 0.27175756E+04</pdfrwt>
<pdfrwt beam="2">  1       -4 0.29003472E+00 0.27175756E+04</pdfrwt>
<totfact> 0.18297372E-02</totfact>
</mgrwt>
</event>
<event>
 6    1  0.9364335E-007  0.4629934E+04  0.7818608E-02  0.7888276E-01
          2   -1    0    0  501    0  0.00000000000E+00  0.00000000000E+00  0.40545777542E+04  0.40545777542E+04  0.00000000000E+00 0. -1.
         -2   -1    0    0    0  501 -0.00000000000E+00 -0.00000000000E+00 -0.13217335657E+04  0.13217335657E+04  0.00000000000E+00 0.  1.
         23    2    1    2    0    0 -0.18342016386E+04  0.94755458483E+03  0.15314656839E+03  0.20722236767E+04  0.92204948130E+02 0.  0.
         13    1    3    3    0    0 -0.10919830288E+04  0.60535201922E+03  0.11890497459E+03  0.12541995038E+04  0.00000000000E+00 0.  1.
        -13    1    3    3    0    0 -0.74221860982E+03  0.34220256561E+03  0.34241593802E+02  0.81802417288E+03  0.00000000000E+00 0. -1.
         22    1    1    2    0    0  0.18342016386E+04 -0.94755458483E+03  0.25796976202E+04  0.33040876432E+04  0.00000000000E+00 0.  1.
<mgrwt>
<rscale>  0 0.46299337E+04</rscale>
<asrwt>0</asrwt>
<pdfrwt beam="1">  1        2 0.62378119E+00 0.46299337E+04</pdfrwt>
<pdfrwt beam="2">  1       -2 0.20334363E+00 0.46299337E+04</pdfrwt>
<totfact> 0.29134537E-02</totfact>
</mgrwt>
</event>
<event>
 6    1  0.9364335E-007  0.1308767E+04  0.7818608E-02  0.9022642E-01
         -2   -1    0    0    0  501 -0.00000000000E+00  0.00000000000E+00  0.90188241604E+03  0.90188241604E+03  0.00000000000E+00 0.  1.
          2   -1    0    0  501    0  0.00000000000E+00 -0.00000000000E+00 -0.47480442427E+03  0.47480442427E+03  0.00000000000E+00 0. -1.
         23    2    1    2    0    0  0.42575770955E+03 -0.37840094026E+03 -0.11757053658E+03  0.58858854806E+03  0.90314721982E+02 0.  0.
         13    1    3    3    0    0  0.13622403164E+03 -0.78497256391E+02 -0.57580127096E+02  0.16743439639E+03  0.00000000000E+00 0. -1.
        -13    1    3    3    0    0  0.28953367790E+03 -0.29990368387E+03 -0.59990409483E+02  0.42115415167E+03  0.00000000000E+00 0.  1.
         22    1    1    2    0    0 -0.42575770955E+03  0.37840094026E+03  0.54464852835E+03  0.78809829226E+03  0.00000000000E+00 0.  1.
<mgrwt>
<rscale>  0 0.13087670E+04</rscale>
<asrwt>0</asrwt>
<pdfrwt beam="1">  1        2 0.73046835E-01 0.13087670E+04</pdfrwt>
<pdfrwt beam="2">  1       -2 0.13875114E+00 0.13087670E+04</pdfrwt>
<totfact> 0.23528596E+01</totfact>
</mgrwt>
</event>
<event>
 6    1  0.9364335E-007  0.2195122E+04  0.7818608E-02  0.8520461E-01
         -1   -1    0    0    0  501 -0.00000000000E+00  0.00000000000E+00  0.10595725929E+04  0.10595725929E+04  0.00000000000E+00 0.  1.
          1   -1    0    0  501    0  0.00000000000E+00 -0.00000000000E+00 -0.11369116369E+04  0.11369116369E+04  0.00000000000E+00 0. -1.
         23    2    1    2    0    0  0.17543678076E+03  0.31285832317E+02 -0.11204468528E+04  0.11382636630E+04  0.92120297403E+02 0.  0.
         11    1    3    3    0    0  0.15763888908E+03  0.57955972759E+02 -0.90657355749E+03  0.92200028702E+03  0.00000000000E+00 0. -1.
        -11    1    3    3    0    0  0.17797891678E+02 -0.26670140442E+02 -0.21387329532E+03  0.21626337598E+03  0.00000000000E+00 0.  1.
         22    1    1    2    0    0 -0.17543678076E+03 -0.31285832317E+02  0.10431078087E+04  0.10582205668E+04  0.00000000000E+00 0.  1.
<mgrwt>
<rscale>  0 0.21951222E+04</rscale>
<asrwt>0</asrwt>
<pdfrwt beam="1">  1        1 0.17490948E+00 0.21951222E+04</pdfrwt>
<pdfrwt beam="2">  1       -1 0.16301117E+00 0.21951222E+04</pdfrwt>
<totfact> 0.30094733E+00</totfact>
</mgrwt>
</event>
<event>
 6    1  0.9364335E-007  0.2018798E+04  0.7818608E-02  0.8597882E-01
          2   -1    0    0  501    0  0.00000000000E+00  0.00000000000E+00  0.25306842152E+04  0.25306842152E+04  0.00000000000E+00 0. -1.
         -2   -1    0    0    0  501 -0.00000000000E+00 -0.00000000000E+00 -0.40261284252E+03  0.40261284252E+03  0.00000000000E+00 0.  1.
         23    2    1    2    0    0 -0.11350693868E+03 -0.99850751273E+03  0.11692908118E+04  0.15443545672E+04  0.88819753032E+02 0.  0.
         13    1    3    3    0    0 -0.88157862727E+02 -0.51877099862E+03  0.55973447858E+03  0.76824334965E+03  0.00000000000E+00 0.  1.
        -13    1    3    3    0    0 -0.25349075952E+02 -0.47973651411E+03  0.60955633319E+03  0.77611121752E+03  0.00000000000E+00 0. -1.
         22    1    1    2    0    0  0.11350693868E+03  0.99850751273E+03  0.95878056090E+03  0.13889424906E+04  0.00000000000E+00 0.  1.
<mgrwt>
<rscale>  0 0.20187976E+04</rscale>
<asrwt>0</asrwt>
<pdfrwt beam="1">  1        2 0.38933602E+00 0.20187976E+04</pdfrwt>
<pdfrwt beam="2">  1       -2 0.61940439E-01 0.20187976E+04</pdfrwt>
<totfact> 0.75066650E+00</totfact>
</mgrwt>
</event>
<event>
 6    1  0.9364335E-007  0.1994637E+04  0.7818608E-02  0.8609132E-01
         -2   -1    0    0    0  501 -0.00000000000E+00  0.00000000000E+00  0.91747772721E+03  0.91747772721E+03  0.00000000000E+00 0.  1.
          2   -1    0    0  501    0  0.00000000000E+00 -0.00000000000E+00 -0.10841066742E+04  0.10841066742E+04  0.00000000000E+00 0. -1.
         23    2    1    2    0    0  0.61730815337E+03 -0.12313592323E+03 -0.85581267935E+03  0.10682002207E+04  0.11137574909E+03 0.  0.
         13    1    3    3    0    0  0.58210908731E+03 -0.13984468791E+03 -0.78331512292E+03  0.98589558679E+03  0.00000000000E+00 0.  1.
        -13    1    3    3    0    0  0.35199066061E+02  0.16708764673E+02 -0.72497556428E+02  0.82304633870E+02  0.00000000000E+00 0. -1.
         22    1    1    2    0    0 -0.61730815337E+03  0.12313592323E+03  0.68918373240E+03  0.93338418071E+03  0.00000000000E+00 0.  1.
<mgrwt>
<rscale>  0 0.19946365E+04</rscale>
<asrwt>0</asrwt>
<pdfrwt beam="1">  1        2 0.16678564E+00 0.19946365E+04</pdfrwt>
<pdfrwt beam="2">  1       -2 0.14115042E+00 0.19946365E+04</pdfrwt>
<totfact> 0.72829258E+00</totfact>
</mgrwt>
</event>
<event>
 6    1  0.9364335E-007  0.2767604E+04  0.7818608E-02  0.8313397E-01
         -1   -1    0    0    0  501 -0.00000000000E+00  0.00000000000E+00  0.79188520642E+03  0.79188520642E+03  0.00000000000E+00 0.  1.
          1   -1    0    0  501    0  0.00000000000E+00 -0.00000000000E+00 -0.24181640856E+04  0.24181640856E+04  0.00000000000E+00 0. -1.
         23    2    1    2    0    0 -0.27253954130E+02  0.13790660747E+04 -0.70971558573E+03  0.15539531935E+04  0.92240438843E+02 0.  0.
         11    1    3    3    0    0  0.27040017755E+02  0.18161204363E+03 -0.87430536409E+02  0.20336714496E+03  0.00000000000E+00 0.  1.
        -11    1    3    3    0    0 -0.54293971885E+02  0.11974540311E+04 -0.62228504932E+03  0.13505860486E+04  0.00000000000E+00 0. -1.
         22    1    1    2    0    0  0.27253954130E+02 -0.13790660747E+04 -0.91656329346E+03  0.16560960985E+04  0.00000000000E+00 0. -1.
<mgrwt>
<rscale>  0 0.27676043E+04</rscale>
<asrwt>0</asrwt>
<pdfrwt beam="1">  1        1 0.37202524E+00 0.27676043E+04</pdfrwt>
<pdfrwt beam="2">  1       -1 0.12182849E+00 0.27676043E+04</pdfrwt>
<totfact> 0.79892872E-01</totfact>
</mgrwt>
</event>
<event>
 6    1  0.9364335E-007  0.2175916E+04  0.7818608E-02  0.8528520E-01
         -1   -1    0    0    0  501 -0.00000000000E+00  0.00000000000E+00  0.60801945544E+03  0.60801945544E+03  0.00000000000E+00 0.  1.
          1   -1    0    0  501    0  0.00000000000E+00 -0.00000000000E+00 -0.19467349417E+04  0.19467349417E+04  0.00000000000E+00 0. -1.
         23    2    1    2    0    0  0.13824509607E+03 -0.10763238803E+04 -0.61777688073E+03  0.12519354248E+04  0.90051271398E+02 0.  0.
         13    1    3    3    0    0 -0.62565709983E+01 -0.23444699941E+03 -0.12385341159E+03  0.26522482496E+03  0.00000000000E+00 0.  1.
        -13    1    3    3    0    0  0.14450166707E+03 -0.84187688090E+03 -0.49392346914E+03  0.98671059979E+03  0.00000000000E+00 0. -1.
         22    1    1    2    0    0 -0.13824509607E+03  0.10763238803E+04 -0.72093860557E+03  0.13028189724E+04  0.00000000000E+00 0. -1.
<mgrwt>
<rscale>  0 0.21759161E+04</rscale>
<asrwt>0</asrwt>
<pdfrwt beam="1">  1        1 0.29949768E+00 0.21759161E+04</pdfrwt>
<pdfrwt beam="2">  1       -1 0.93541457E-01 0.21759161E+04</pdfrwt>
<totfact> 0.32797574E+00</totfact>
</mgrwt>
</event>
<event>
 6    1  0.9364335E-007  0.7171961E+03  0.7818608E-02  0.9688268E-01
         -1   -1    0    0    0  501 -0.00000000000E+00  0.00000000000E+00  0.12903822419E+03  0.12903822419E+03  0.00000000000E+00 0.  1.
          1   -1    0    0  501    0  0.00000000000E+00 -0.00000000000E+00 -0.99654620039E+03  0.99654620039E+03  0.00000000000E+00 0. -1.
         23    2    1    2    0    0  0.24359251819E+03  0.19119619162E+03 -0.17553029287E+03  0.36747729968E+03  0.91298321210E+02 0.  0.
         13    1    3    3    0    0  0.19380389697E+03  0.98030152221E+02 -0.12015195739E+03  0.24820627327E+03  0.00000000000E+00 0.  1.
        -13    1    3    3    0    0  0.49788621219E+02  0.93166039400E+02 -0.55378335482E+02  0.11927102641E+03  0.00000000000E+00 0. -1.
         22    1    1    2    0    0 -0.24359251819E+03 -0.19119619162E+03 -0.69197768333E+03  0.75810712490E+03  0.00000000000E+00 0. -1.
<mgrwt>
<rscale>  0 0.71719607E+03</rscale>
<asrwt>0</asrwt>
<pdfrwt beam="1">  1        1 0.15331480E+00 0.71719607E+03</pdfrwt>
<pdfrwt beam="2">  1       -1 0.19852034E-01 0.71719607E+03</pdfrwt>
<totfact> 0.31911414E+02</totfact>
</mgrwt>
</event>
<event>
 6    1  0.9364335E-007  0.3260640E+04  0.7818608E-02  0.8172983E-01
         -2   -1    0    0    0  501 -0.00000000000E+00  0.00000000000E+00  0.79045247637E+03  0.79045247637E+03  0.00000000000E+00 0.  1.
          2   -1    0    0  501    0  0.00000000000E+00 -0.00000000000E+00 -0.33625589396E+04  0.33625589396E+04  0.00000000000E+00 0. -1.
         23    2    1    2    0    0  0.13269559985E+04 -0.88404711779E+03 -0.86207413747E+03  0.18149433922E+04  0.92174670698E+02 0.  0.
         11    1    3    3    0    0  0.11132232440E+04 -0.70012174738E+03 -0.70285299301E+03  0.14911199757E+04  0.00000000000E+00 0. -1.
        -11    1    3    3    0    0  0.21373275455E+03 -0.18392537041E+03 -0.15922114446E+03  0.32382341652E+03  0.00000000000E+00 0.  1.
         22    1    1    2    0    0 -0.13269559985E+04  0.88404711779E+03 -0.17100323257E+04  0.23380680237E+04  0.00000000000E+00 0. -1.
<mgrwt>
<rscale>  0 0.32606398E+04</rscale>
<asrwt>0</asrwt>
<pdfrwt beam="1">  1        2 0.51731675E+00 0.32606398E+04</pdfrwt>
<pdfrwt beam="2">  1       -2 0.12160807E+00 0.32606398E+04</pdfrwt>
<totfact> 0.43461904E-01</totfact>
</mgrwt>
</event>
<event>
 6    1  0.9364335E-007  0.2069217E+04  0.7818608E-02  0.8574926E-01
         -1   -1    0    0    0  501 -0.00000000000E+00  0.00000000000E+00  0.70192434677E+03  0.70192434677E+03  0.00000000000E+00 0.  1.
          1   -1    0    0  501    0  0.00000000000E+00 -0.00000000000E+00 -0.15249715794E+04  0.15249715794E+04  0.00000000000E+00 0. -1.
         23    2    1    2    0    0  0.38221490961E+03  0.91175400841E+03 -0.73318730764E+03  0.12341933447E+04  0.91027331751E+02 0.  0.
         11    1    3    3    0    0  0.27489958659E+03  0.64324516242E+03 -0.46632340388E+03  0.84070900952E+03  0.00000000000E+00 0.  1.
        -11    1    3    3    0    0  0.10731532302E+03  0.26850884599E+03 -0.26686390376E+03  0.39348433522E+03  0.00000000000E+00 0. -1.
         22    1    1    2    0    0 -0.38221490961E+03 -0.91175400841E+03 -0.89859924943E+02  0.99270258139E+03  0.00000000000E+00 0.  1.
<mgrwt>
<rscale>  0 0.20692169E+04</rscale>
<asrwt>0</asrwt>
<pdfrwt beam="1">  1        1 0.23461101E+00 0.20692169E+04</pdfrwt>
<pdfrwt beam="2">  1       -1 0.10798836E+00 0.20692169E+04</pdfrwt>
<totfact> 0.46207489E+00</totfact>
</mgrwt>
</event>
<event>
 6    1  0.9364335E-007  0.1834447E+04  0.7818608E-02  0.8688193E-01
          2   -1    0    0  501    0  0.00000000000E+00  0.00000000000E+00  0.34103578315E+04  0.34103578315E+04  0.00000000000E+00 0. -1.
         -2   -1    0    0    0  501 -0.00000000000E+00 -0.00000000000E+00 -0.24668927386E+03  0.24668927386E+03  0.00000000000E+00 0.  1.
         23    2    1    2    0    0 -0.62744236381E+03  0.17984671905E+03  0.28640516738E+04  0.29388555993E+04  0.89730046468E+02 0.  0.
         13    1    3    3    0    0 -0.31341539129E+03  0.12750923741E+03  0.15933304753E+04  0.16288615094E+04  0.00000000000E+00 0.  1.
        -13    1    3    3    0    0 -0.31402697252E+03  0.52337481637E+02  0.12707211984E+04  0.13099940899E+04  0.00000000000E+00 0. -1.
         22    1    1    2    0    0  0.62744236381E+03 -0.17984671905E+03  0.29961688382E+03  0.71819150602E+03  0.00000000000E+00 0.  1.
<mgrwt>
<rscale>  0 0.18344467E+04</rscale>
<asrwt>0</asrwt>
<pdfrwt beam="1">  1        2 0.52467040E+00 0.18344467E+04</pdfrwt>
<pdfrwt beam="2">  1       -2 0.37952199E-01 0.18344467E+04</pdfrwt>
<totfact> 0.58263796E+00</totfact>
</mgrwt>
</event>
<event>
 6    1  0.9364335E-007  0.1435363E+04  0.7818608E-02  0.8928611E-01
         -2   -1    0    0    0  501 -0.00000000000E+00  0.00000000000E+00  0.31855533713E+03  0.31855533713E+03  0.00000000000E+00 0.  1.
          2   -1    0    0  501    0  0.00000000000E+00 -0.00000000000E+00 -0.16168831864E+04  0.16168831864E+04  0.00000000000E+00 0. -1.
         23    2    1    2    0    0 -0.91049755227E+02  0.45704309192E+03 -0.13827665451E+04  0.14618265103E+04  0.87834971206E+02 0.  0.
         13    1    3    3    0    0 -0.96407832077E+02  0.40109150449E+03 -0.11315256947E+04  0.12043750507E+04  0.00000000000E+00 0.  1.
        -13    1    3    3    0    0  0.53580768496E+01  0.55951587425E+02 -0.25124085038E+03  0.25745145954E+03  0.00000000000E+00 0. -1.
         22    1    1    2    0    0  0.91049755227E+02 -0.45704309192E+03  0.84438695767E+02  0.47361201330E+03  0.00000000000E+00 0.  1.
<mgrwt>
<rscale>  0 0.14353630E+04</rscale>
<asrwt>0</asrwt>
<pdfrwt beam="1">  1        2 0.24875126E+00 0.14353630E+04</pdfrwt>
<pdfrwt beam="2">  1       -2 0.49008514E-01 0.14353630E+04</pdfrwt>
<totfact> 0.41752032E+01</totfact>
</mgrwt>
</event>
<event>
 6    1  0.9364335E-007  0.2910058E+04  0.7818608E-02  0.8269891E-01
         -1   -1    0    0    0  501 -0.00000000000E+00  0.00000000000E+00  0.16301405023E+04  0.16301405023E+04  0.00000000000E+00 0.  1.
          1   -1    0    0  501    0  0.00000000000E+00 -0.00000000000E+00 -0.12987282234E+04  0.12987282234E+04  0.00000000000E+00 0. -1.
         23    2    1    2    0    0  0.18764164874E+03  0.49825995400E+03  0.15273234002E+04  0.16197943275E+04  0.86859222895E+02 0.  0.
         11    1    3    3    0    0  0.13659013539E+03  0.26167561642E+03  0.91212794861E+03  0.95870140708E+03  0.00000000000E+00 0.  1.
        -11    1    3    3    0    0  0.51051513345E+02  0.23658433759E+03  0.61519545157E+03  0.66109292043E+03  0.00000000000E+00 0. -1.
         22    1    1    2    0    0 -0.18764164874E+03 -0.49825995400E+03 -0.11959111212E+04  0.13090743982E+04  0.00000000000E+00 0. -1.
<mgrwt>
<rscale>  0 0.29100581E+04</rscale>
<asrwt>0</asrwt>
<pdfrwt beam="1">  1        1 0.19980434E+00 0.29100581E+04</pdfrwt>
<pdfrwt beam="2">  1       -1 0.25079085E+00 0.29100581E+04</pdfrwt>
<totfact> 0.53556975E-01</totfact>
</mgrwt>
</event>
<event>
 6    1  0.9364335E-007  0.9478334E+03  0.7818608E-02  0.9367687E-01
         -2   -1    0    0    0  501 -0.00000000000E+00  0.00000000000E+00  0.11353861473E+03  0.11353861473E+03  0.00000000000E+00 0.  1.
          2   -1    0    0  501    0  0.00000000000E+00 -0.00000000000E+00 -0.19781554466E+04  0.19781554466E+04  0.00000000000E+00 0. -1.
         23    2    1    2    0    0  0.23490180305E+03  0.18312166570E+03 -0.17418580320E+04  0.17695417302E+04  0.92174452732E+02 0.  0.
         11    1    3    3    0    0  0.16461906348E+03  0.72306675930E+02 -0.94529361272E+03  0.96224098110E+03  0.00000000000E+00 0.  1.
        -11    1    3    3    0    0  0.70282739566E+02  0.11081498977E+03 -0.79656441927E+03  0.80730074909E+03  0.00000000000E+00 0. -1.
         22    1    1    2    0    0 -0.23490180305E+03 -0.18312166570E+03 -0.12275879989E+03  0.32215233116E+03  0.00000000000E+00 0.  1.
<mgrwt>
<rscale>  0 0.94783338E+03</rscale>
<asrwt>0</asrwt>
<pdfrwt beam="1">  1        2 0.30433160E+00 0.94783338E+03</pdfrwt>
<pdfrwt beam="2">  1       -2 0.17467480E-01 0.94783338E+03</pdfrwt>
<totfact> 0.18697796E+02</totfact>
</mgrwt>
</event>
<event>
 6    1  0.9364335E-007  0.1686832E+04  0.7818608E-02  0.8768910E-01
          2   -1    0    0  501    0  0.00000000000E+00  0.00000000000E+00  0.18929366286E+04  0.18929366286E+04  0.00000000000E+00 0. -1.
         -2   -1    0    0    0  501 -0.00000000000E+00 -0.00000000000E+00 -0.37579218645E+03  0.37579218645E+03  0.00000000000E+00 0.  1.
         23    2    1    2    0    0  0.37328598895E+03  0.67571198864E+03  0.31233886907E+03  0.83782504817E+03  0.92011526918E+02 0.  0.
         11    1    3    3    0    0  0.16015938303E+03  0.33184893582E+03  0.19340775082E+03  0.41615057642E+03  0.00000000000E+00 0. -1.
        -11    1    3    3    0    0  0.21312660592E+03  0.34386305282E+03  0.11893111825E+03  0.42167447176E+03  0.00000000000E+00 0.  1.
         22    1    1    2    0    0 -0.37328598895E+03 -0.67571198864E+03  0.12048055731E+04  0.14309037669E+04  0.00000000000E+00 0. -1.
<mgrwt>
<rscale>  0 0.16868323E+04</rscale>
<asrwt>0</asrwt>
<pdfrwt beam="1">  1        2 0.29122101E+00 0.16868323E+04</pdfrwt>
<pdfrwt beam="2">  1       -2 0.57814184E-01 0.16868323E+04</pdfrwt>
<totfact> 0.20441682E+01</totfact>
</mgrwt>
</event>
<event>
 6    1  0.9364335E-007  0.1867243E+04  0.7818608E-02  0.8671336E-01
          2   -1    0    0  501    0  0.00000000000E+00  0.00000000000E+00  0.93384422342E+03  0.93384422342E+03  0.00000000000E+00 0. -1.
         -2   -1    0    0    0  501 -0.00000000000E+00 -0.00000000000E+00 -0.93339838994E+03  0.93339838994E+03  0.00000000000E+00 0.  1.
         23    2    1    2    0    0  0.30283462476E+03 -0.21577140431E+03  0.85403092986E+03  0.93618212896E+03  0.93819190747E+02 0.  0.
         11    1    3    3    0    0  0.12758751878E+03 -0.63586596304E+02  0.42674936422E+03  0.44992982791E+03  0.00000000000E+00 0.  1.
        -11    1    3    3    0    0  0.17524710598E+03 -0.15218480801E+03  0.42728156564E+03  0.48625230105E+03  0.00000000000E+00 0. -1.
         22    1    1    2    0    0 -0.30283462476E+03  0.21577140431E+03 -0.85358509638E+03  0.93106048441E+03  0.00000000000E+00 0.  1.
<mgrwt>
<rscale>  0 0.18672426E+04</rscale>
<asrwt>0</asrwt>
<pdfrwt beam="1">  1        2 0.14366834E+00 0.18672426E+04</pdfrwt>
<pdfrwt beam="2">  1       -2 0.14359975E+00 0.18672426E+04</pdfrwt>
<totfact> 0.87817320E+00</totfact>
</mgrwt>
</event>
<event>
 6    1  0.9364335E-007  0.2228198E+04  0.7818608E-02  0.8506782E-01
          2   -1    0    0  501    0  0.00000000000E+00  0.00000000000E+00  0.15220797551E+04  0.15220797551E+04  0.00000000000E+00 0. -1.
         -2   -1    0    0    0  501 -0.00000000000E+00 -0.00000000000E+00 -0.81547430180E+03  0.81547430180E+03  0.00000000000E+00 0.  1.
         23    2    1    2    0    0  0.10685317964E+04  0.11651461520E+03  0.54141635514E+02  0.10801579821E+04  0.92054842680E+02 0.  0.
         11    1    3    3    0    0  0.54932129811E+03  0.85498402982E+02 -0.10403095175E+02  0.55603245396E+03  0.00000000000E+00 0.  1.
        -11    1    3    3    0    0  0.51921049829E+03  0.31016212215E+02  0.64544730689E+02  0.52412552811E+03  0.00000000000E+00 0. -1.
         22    1    1    2    0    0 -0.10685317964E+04 -0.11651461520E+03  0.65246381775E+03  0.12573960748E+04  0.00000000000E+00 0. -1.
<mgrwt>
<rscale>  0 0.22281983E+04</rscale>
<asrwt>0</asrwt>
<pdfrwt beam="1">  1        2 0.23416612E+00 0.22281983E+04</pdfrwt>
<pdfrwt beam="2">  1       -2 0.12545758E+00 0.22281983E+04</pdfrwt>
<totfact> 0.53449770E+00</totfact>
</mgrwt>
</event>
<event>
 6    1  0.9364335E-007  0.3615246E+04  0.7818608E-02  0.8087008E-01
         -2   -1    0    0    0  501 -0.00000000000E+00  0.00000000000E+00  0.16986748764E+04  0.16986748764E+04  0.00000000000E+00 0.  1.
          2   -1    0    0  501    0  0.00000000000E+00 -0.00000000000E+00 -0.19235586883E+04  0.19235586883E+04  0.00000000000E+00 0. -1.
         23    2    1    2    0    0 -0.23478347096E+03 -0.13911044635E+04  0.10178901924E+04  0.17421319365E+04  0.92888824824E+02 0.  0.
         11    1    3    3    0    0 -0.60466726240E+02 -0.36764503578E+03  0.32031086033E+03  0.49134320445E+03  0.00000000000E+00 0.  1.
        -11    1    3    3    0    0 -0.17431674472E+03 -0.10234594278E+04  0.69757933204E+03  0.12507887321E+04  0.00000000000E+00 0. -1.
         22    1    1    2    0    0  0.23478347096E+03  0.13911044635E+04 -0.12427740042E+04  0.18801016282E+04  0.00000000000E+00 0. -1.
<mgrwt>
<rscale>  0 0.36152459E+04</rscale>
<asrwt>0</asrwt>
<pdfrwt beam="1">  1        2 0.29593210E+00 0.36152459E+04</pdfrwt>
<pdfrwt beam="2">  1       -2 0.26133460E+00 0.36152459E+04</pdfrwt>
<totfact> 0.32841719E-01</totfact>
</mgrwt>
</event>
<event>
 6    1  0.9364335E-007  0.3273644E+04  0.7818608E-02  0.8169634E-01
          2   -1    0    0  501    0  0.00000000000E+00  0.00000000000E+00  0.27406672266E+04  0.27406672266E+04  0.00000000000E+00 0. -1.
         -2   -1    0    0    0  501 -0.00000000000E+00 -0.00000000000E+00 -0.97756694376E+03  0.97756694376E+03  0.00000000000E+00 0.  1.
         23    2    1    2    0    0 -0.98504629153E+03 -0.77141482139E+03  0.20786013497E+04  0.24279094259E+04  0.93614028232E+02 0.  0.
         11    1    3    3    0    0 -0.81203462772E+02 -0.38700882145E+02  0.17797221739E+03  0.19941381800E+03  0.00000000000E+00 0. -1.
        -11    1    3    3    0    0 -0.90384282876E+03 -0.73271393925E+03  0.19006291323E+04  0.22284956079E+04  0.00000000000E+00 0.  1.
         22    1    1    2    0    0  0.98504629153E+03  0.77141482139E+03 -0.31550106681E+03  0.12903247445E+04  0.00000000000E+00 0.  1.
<mgrwt>
<rscale>  0 0.32736436E+04</rscale>
<asrwt>0</asrwt>
<pdfrwt beam="1">  1        2 0.42164111E+00 0.32736436E+04</pdfrwt>
<pdfrwt beam="2">  1       -2 0.15039491E+00 0.32736436E+04</pdfrwt>
<totfact> 0.62504338E-01</totfact>
</mgrwt>
</event>
<event>
 6    1  0.9364335E-007  0.2819863E+04  0.7818608E-02  0.8297128E-01
          2   -1    0    0  501    0  0.00000000000E+00  0.00000000000E+00  0.18619775845E+04  0.18619775845E+04  0.00000000000E+00 0. -1.
         -2   -1    0    0    0  501 -0.00000000000E+00 -0.00000000000E+00 -0.10676319860E+04  0.10676319860E+04  0.00000000000E+00 0.  1.
         23    2    1    2    0    0 -0.28094641543E+03  0.13764486524E+04  0.29283652624E+03  0.14379483721E+04  0.91654290036E+02 0.  0.
         11    1    3    3    0    0 -0.21441431180E+03  0.84355303780E+03  0.16431467883E+03  0.88575083312E+03  0.00000000000E+00 0. -1.
        -11    1    3    3    0    0 -0.66532103631E+02  0.53289561458E+03  0.12852184741E+03  0.55219753903E+03  0.00000000000E+00 0.  1.
         22    1    1    2    0    0  0.28094641543E+03 -0.13764486524E+04  0.50150907232E+03  0.14916611983E+04  0.00000000000E+00 0.  1.
<mgrwt>
<rscale>  0 0.28198630E+04</rscale>
<asrwt>0</asrwt>
<pdfrwt beam="1">  1        2 0.28645809E+00 0.28198630E+04</pdfrwt>
<pdfrwt beam="2">  1       -2 0.16425107E+00 0.28198630E+04</pdfrwt>
<totfact> 0.16237507E+00</totfact>
</mgrwt>
</event>
<event>
 6    1  0.9364335E-007  0.4365728E+04  0.7818608E-02  0.7934575E-01
         -2   -1    0    0    0  501 -0.00000000000E+00  0.00000000000E+00  0.14514188889E+04  0.14514188889E+04  0.00000000000E+00 0.  1.
          2   -1    0    0  501    0  0.00000000000E+00 -0.00000000000E+00 -0.32829215881E+04  0.32829215881E+04  0.00000000000E+00 0. -1.
         23    2    1    2    0    0  0.87130496030E+03 -0.13128448361E+04  0.72061717545E+03  0.17349989239E+04  0.90544215110E+02 0.  0.
         13    1    3    3    0    0  0.54408985482E+03 -0.78520307451E+03  0.48040463264E+03  0.10692830539E+04  0.00000000000E+00 0. -1.
        -13    1    3    3    0    0  0.32721510548E+03 -0.52764176164E+03  0.24021254281E+03  0.66571587003E+03  0.00000000000E+00 0.  1.
         22    1    1    2    0    0 -0.87130496030E+03  0.13128448361E+04 -0.25521198746E+04  0.29993415531E+04  0.00000000000E+00 0. -1.
<mgrwt>
<rscale>  0 0.43657276E+04</rscale>
<asrwt>0</asrwt>
<pdfrwt beam="1">  1        2 0.50506486E+00 0.43657276E+04</pdfrwt>
<pdfrwt beam="2">  1       -2 0.22329521E+00 0.43657276E+04</pdfrwt>
<totfact> 0.82407579E-02</totfact>
</mgrwt>
</event>
<event>
 6    1  0.9606651E-007  0.3953613E+04  0.7818608E-02  0.8013970E-01
         -2   -1    0    0    0  501 -0.00000000000E+00  0.00000000000E+00  0.13314552560E+04  0.13314552560E+04  0.00000000000E+00 0.  1.
          2   -1    0    0  501    0  0.00000000000E+00 -0.00000000000E+00 -0.29349573342E+04  0.29349573342E+04  0.00000000000E+00 0. -1.
         23    2    1    2    0    0  0.12470907874E+04  0.23059550030E+03 -0.24369735002E+04  0.27488209691E+04  0.93633128586E+02 0.  0.
         13    1    3    3    0    0  0.26631895333E+03  0.79770684769E+02 -0.48200018697E+03  0.55642908559E+03  0.00000000000E+00 0.  1.
        -13    1    3    3    0    0  0.98077183408E+03  0.15082481553E+03 -0.19549733133E+04  0.21923918836E+04  0.00000000000E+00 0. -1.
         22    1    1    2    0    0 -0.12470907874E+04 -0.23059550030E+03  0.83347142202E+03  0.15175916210E+04  0.00000000000E+00 0.  1.
<mgrwt>
<rscale>  0 0.39536132E+04</rscale>
<asrwt>0</asrwt>
<pdfrwt beam="1">  1        2 0.45153189E+00 0.39536132E+04</pdfrwt>
<pdfrwt beam="2">  1       -2 0.20483927E+00 0.39536132E+04</pdfrwt>
<totfact> 0.18708264E-01</totfact>
</mgrwt>
</event>
<event>
 6    1  0.9364335E-007  0.1358178E+04  0.7818608E-02  0.8984660E-01
         -1   -1    0    0    0  501 -0.00000000000E+00  0.00000000000E+00  0.62144847912E+03  0.62144847912E+03  0.00000000000E+00 0.  1.
          1   -1    0    0  501    0  0.00000000000E+00 -0.00000000000E+00 -0.74207630526E+03  0.74207630526E+03  0.00000000000E+00 0. -1.
         23    2    1    2    0    0  0.89568691098E+02 -0.62391746865E+03 -0.30620495244E+03  0.70645977397E+03  0.89601234508E+02 0.  0.
         13    1    3    3    0    0  0.40426322788E+02 -0.21989883844E+03 -0.15601446104E+03  0.27263583546E+03  0.00000000000E+00 0. -1.
        -13    1    3    3    0    0  0.49142368310E+02 -0.40401863021E+03 -0.15019049140E+03  0.43382393851E+03  0.00000000000E+00 0.  1.
         22    1    1    2    0    0 -0.89568691098E+02  0.62391746865E+03  0.18557712629E+03  0.65706501041E+03  0.00000000000E+00 0.  1.
<mgrwt>
<rscale>  0 0.13581785E+04</rscale>
<asrwt>0</asrwt>
<pdfrwt beam="1">  1        1 0.11416559E+00 0.13581785E+04</pdfrwt>
<pdfrwt beam="2">  1       -1 0.95607458E-01 0.13581785E+04</pdfrwt>
<totfact> 0.25723195E+01</totfact>
</mgrwt>
</event>
<event>
 6    1  0.9364335E-007  0.3322733E+04  0.7818608E-02  0.8157135E-01
         -2   -1    0    0    0  501 -0.00000000000E+00  0.00000000000E+00  0.73715439999E+03  0.73715439999E+03  0.00000000000E+00 0.  1.
          2   -1    0    0  501    0  0.00000000000E+00 -0.00000000000E+00 -0.37443153034E+04  0.37443153034E+04  0.00000000000E+00 0. -1.
         23    2    1    2    0    0 -0.19046155743E+03 -0.12005857972E+04 -0.30293288378E+04  0.32656682071E+04  0.10036817099E+03 0.  0.
         13    1    3    3    0    0 -0.15048202546E+02 -0.12662285679E+03 -0.24393689651E+03  0.27525443818E+03  0.00000000000E+00 0. -1.
        -13    1    3    3    0    0 -0.17541335489E+03 -0.10739629404E+04 -0.27853919413E+04  0.29904137689E+04  0.00000000000E+00 0.  1.
         22    1    1    2    0    0  0.19046155743E+03  0.12005857972E+04  0.22167934375E+02  0.12158014964E+04  0.00000000000E+00 0.  1.
<mgrwt>
<rscale>  0 0.33227329E+04</rscale>
<asrwt>0</asrwt>
<pdfrwt beam="1">  1        2 0.57604852E+00 0.33227329E+04</pdfrwt>
<pdfrwt beam="2">  1       -2 0.11340837E+00 0.33227329E+04</pdfrwt>
<totfact> 0.27466238E-01</totfact>
</mgrwt>
</event>
<event>
 6    1  0.9364335E-007  0.1820043E+04  0.7818608E-02  0.8695713E-01
          2   -1    0    0  501    0  0.00000000000E+00  0.00000000000E+00  0.11200477143E+04  0.11200477143E+04  0.00000000000E+00 0. -1.
         -2   -1    0    0    0  501 -0.00000000000E+00 -0.00000000000E+00 -0.73937822543E+03  0.73937822543E+03  0.00000000000E+00 0.  1.
         23    2    1    2    0    0 -0.75301830511E+03  0.47826103075E+03  0.36263735953E+03  0.96718419048E+03  0.90383750882E+02 0.  0.
         13    1    3    3    0    0 -0.42437574007E+03  0.30263398889E+03  0.17382952302E+03  0.54945318550E+03  0.00000000000E+00 0. -1.
        -13    1    3    3    0    0 -0.32864256505E+03  0.17562704186E+03  0.18880783651E+03  0.41773100498E+03  0.00000000000E+00 0.  1.
         22    1    1    2    0    0  0.75301830511E+03 -0.47826103075E+03  0.18032129310E+02  0.89224174922E+03  0.00000000000E+00 0. -1.
<mgrwt>
<rscale>  0 0.18200427E+04</rscale>
<asrwt>0</asrwt>
<pdfrwt beam="1">  1        2 0.17231503E+00 0.18200427E+04</pdfrwt>
<pdfrwt beam="2">  1       -2 0.11375050E+00 0.18200427E+04</pdfrwt>
<totfact> 0.12088911E+01</totfact>
</mgrwt>
</event>
<event>
 6    1  0.9364335E-007  0.2372534E+04  0.7818608E-02  0.8449859E-01
         -1   -1    0    0    0  501 -0.00000000000E+00  0.00000000000E+00  0.42900497734E+03  0.42900497734E+03  0.00000000000E+00 0.  1.
          1   -1    0    0  501    0  0.00000000000E+00 -0.00000000000E+00 -0.32802167384E+04  0.32802167384E+04  0.00000000000E+00 0. -1.
         23    2    1    2    0    0  0.12191042361E+03  0.10785270500E+04 -0.21693881469E+04  0.24274392889E+04  0.90187694900E+02 0.  0.
         13    1    3    3    0    0  0.83164876900E+02  0.42995304566E+03 -0.81192948006E+03  0.92249959285E+03  0.00000000000E+00 0. -1.
        -13    1    3    3    0    0  0.38745546713E+02  0.64857400436E+03 -0.13574586669E+04  0.15049396961E+04  0.00000000000E+00 0.  1.
         22    1    1    2    0    0 -0.12191042361E+03 -0.10785270500E+04 -0.68182361416E+03  0.12817824269E+04  0.00000000000E+00 0. -1.
<mgrwt>
<rscale>  0 0.23725339E+04</rscale>
<asrwt>0</asrwt>
<pdfrwt beam="1">  1        1 0.50464871E+00 0.23725339E+04</pdfrwt>
<pdfrwt beam="2">  1       -1 0.66000768E-01 0.23725339E+04</pdfrwt>
<totfact> 0.77342376E-01</totfact>
</mgrwt>
</event>
<event>
 6    1  0.9364335E-007  0.2005540E+04  0.7818608E-02  0.8604035E-01
         -2   -1    0    0    0  501 -0.00000000000E+00  0.00000000000E+00  0.17295380569E+04  0.17295380569E+04  0.00000000000E+00 0.  1.
          2   -1    0    0  501    0  0.00000000000E+00 -0.00000000000E+00 -0.58139648728E+03  0.58139648728E+03  0.00000000000E+00 0. -1.
         23    2    1    2    0    0 -0.27683181329E+02  0.99988969464E+03  0.61450296624E+03  0.11772168020E+04  0.87634144813E+02 0.  0.
         11    1    3    3    0    0 -0.58912300467E+02  0.55546494483E+03  0.34032394499E+03  0.65408894779E+03  0.00000000000E+00 0. -1.
        -11    1    3    3    0    0  0.31229119139E+02  0.44442474981E+03  0.27417902125E+03  0.52312785418E+03  0.00000000000E+00 0.  1.
         22    1    1    2    0    0  0.27683181329E+02 -0.99988969464E+03  0.53363860336E+03  0.11337177422E+04  0.00000000000E+00 0. -1.
<mgrwt>
<rscale>  0 0.20055397E+04</rscale>
<asrwt>0</asrwt>
<pdfrwt beam="1">  1        2 0.89445614E-01 0.20055397E+04</pdfrwt>
<pdfrwt beam="2">  1       -2 0.26608278E+00 0.20055397E+04</pdfrwt>
<totfact> 0.24505185E+00</totfact>
</mgrwt>
</event>
<event>
 6    1  0.9364335E-007  0.7624345E+04  0.7818608E-02  0.7516263E-01
         -2   -1    0    0    0  501 -0.00000000000E+00  0.00000000000E+00  0.41315415118E+04  0.41315415118E+04  0.00000000000E+00 0.  1.
          2   -1    0    0  501    0  0.00000000000E+00 -0.00000000000E+00 -0.35174905951E+04  0.35174905951E+04  0.00000000000E+00 0. -1.
         23    2    1    2    0    0  0.27316716912E+04 -0.14701851312E+04  0.25290397275E+04  0.40033968134E+04  0.87575989263E+02 0.  0.
         11    1    3    3    0    0  0.12258031492E+04 -0.61087141518E+03  0.11079394212E+04  0.17616148863E+04  0.00000000000E+00 0.  1.
        -11    1    3    3    0    0  0.15058685420E+04 -0.85931371599E+03  0.14211003062E+04  0.22417819271E+04  0.00000000000E+00 0. -1.
         22    1    1    2    0    0 -0.27316716912E+04  0.14701851312E+04 -0.19149888107E+04  0.36456352935E+04  0.00000000000E+00 0. -1.
<mgrwt>
<rscale>  0 0.76243448E+04</rscale>
<asrwt>0</asrwt>
<pdfrwt beam="1">  1        2 0.54115240E+00 0.76243448E+04</pdfrwt>
<pdfrwt beam="2">  1       -2 0.63562177E+00 0.76243448E+04</pdfrwt>
<totfact> 0.18265178E-04</totfact>
</mgrwt>
</event>
<event>
 6    1  0.9364335E-007  0.1161711E+04  0.7818608E-02  0.9147047E-01
          2   -1    0    0  501    0  0.00000000000E+00  0.00000000000E+00  0.61133205475E+03  0.61133205475E+03  0.00000000000E+00 0. -1.
         -2   -1    0    0    0  501 -0.00000000000E+00 -0.00000000000E+00 -0.55189796628E+03  0.55189796628E+03  0.00000000000E+00 0.  1.
         23    2    1    2    0    0 -0.26860168629E+03 -0.50358511553E+03 -0.56447368821E+02  0.58084411236E+03  0.91917043904E+02 0.  0.
         13    1    3    3    0    0 -0.95988771000E+02 -0.23427113769E+03 -0.62998447348E+02  0.26089387590E+03  0.00000000000E+00 0. -1.
        -13    1    3    3    0    0 -0.17261291529E+03 -0.26931397784E+03  0.65510785271E+01  0.31995023646E+03  0.00000000000E+00 0.  1.
         22    1    1    2    0    0  0.26860168629E+03  0.50358511553E+03  0.11588145730E+03  0.58238590866E+03  0.00000000000E+00 0. -1.
<mgrwt>
<rscale>  0 0.11617107E+04</rscale>
<asrwt>0</asrwt>
<pdfrwt beam="1">  1        2 0.94051086E-01 0.11617107E+04</pdfrwt>
<pdfrwt beam="2">  1       -2 0.84907379E-01 0.11617107E+04</pdfrwt>
<totfact> 0.57955669E+01</totfact>
</mgrwt>
</event>
<event>
 6    1  0.9364335E-007  0.4458922E+04  0.7818608E-02  0.7917868E-01
         -1   -1    0    0    0  501 -0.00000000000E+00  0.00000000000E+00  0.15978064320E+04  0.15978064320E+04  0.00000000000E+00 0.  1.
          1   -1    0    0  501    0  0.00000000000E+00 -0.00000000000E+00 -0.31108250638E+04  0.31108250638E+04  0.00000000000E+00 0. -1.
         23    2    1    2    0    0  0.96480281922E+03 -0.20001171854E+04 -0.95420278952E+03  0.24187432058E+04  0.92208984323E+02 0.  0.
         13    1    3    3    0    0  0.18194020987E+03 -0.46542279518E+03 -0.21813037674E+03  0.54525359192E+03  0.00000000000E+00 0.  1.
        -13    1    3    3    0    0  0.78286260935E+03 -0.15346943902E+04 -0.73607241278E+03  0.18734896138E+04  0.00000000000E+00 0. -1.
         22    1    1    2    0    0 -0.96480281922E+03  0.20001171854E+04 -0.55881584235E+03  0.22898882900E+04  0.00000000000E+00 0.  1.
<mgrwt>
<rscale>  0 0.44589220E+04</rscale>
<asrwt>0</asrwt>
<pdfrwt beam="1">  1        1 0.47858847E+00 0.44589220E+04</pdfrwt>
<pdfrwt beam="2">  1       -1 0.24581637E+00 0.44589220E+04</pdfrwt>
<totfact> 0.27723564E-02</totfact>
</mgrwt>
</event>
<event>
 6    1  0.1198367E-006  0.4274906E+04  0.7818608E-02  0.7951275E-01
         -2   -1    0    0    0  501 -0.00000000000E+00  0.00000000000E+00  0.27628522876E+04  0.27628522876E+04  0.00000000000E+00 0.  1.
          2   -1    0    0  501    0  0.00000000000E+00 -0.00000000000E+00 -0.16536188241E+04  0.16536188241E+04  0.00000000000E+00 0. -1.
         23    2    1    2    0    0  0.52982693053E+03  0.47445836705E+03  0.26362183061E+04  0.27319800824E+04  0.90779374923E+02 0.  0.
         13    1    3    3    0    0  0.21245947169E+03  0.21000085347E+03  0.12706127455E+04  0.13052571144E+04  0.00000000000E+00 0.  1.
        -13    1    3    3    0    0  0.31736745884E+03  0.26445751358E+03  0.13656055605E+04  0.14267229680E+04  0.00000000000E+00 0. -1.
         22    1    1    2    0    0 -0.52982693053E+03 -0.47445836705E+03 -0.15269848426E+04  0.16844910293E+04  0.00000000000E+00 0. -1.
<mgrwt>
<rscale>  0 0.42749056E+04</rscale>
<asrwt>0</asrwt>
<pdfrwt beam="1">  1        2 0.25440290E+00 0.42749056E+04</pdfrwt>
<pdfrwt beam="2">  1       -2 0.42505420E+00 0.42749056E+04</pdfrwt>
<totfact> 0.40777933E-02</totfact>
</mgrwt>
</event>
<event>
 6    1  0.9364335E-007  0.2464472E+04  0.7818608E-02  0.8415753E-01
          2   -1    0    0  501    0  0.00000000000E+00  0.00000000000E+00  0.15701850289E+04  0.15701850289E+04  0.00000000000E+00 0. -1.
         -2   -1    0    0    0  501 -0.00000000000E+00 -0.00000000000E+00 -0.96702350068E+03  0.96702350068E+03  0.00000000000E+00 0.  1.
         23    2    1    2    0    0 -0.82899897492E+03 -0.89997257493E+03  0.43600967282E+03  0.13022471218E+04  0.92483487097E+02 0.  0.
         13    1    3    3    0    0 -0.47643887076E+03 -0.52397112783E+03  0.30037546213E+03  0.76926273705E+03  0.00000000000E+00 0. -1.
        -13    1    3    3    0    0 -0.35256010416E+03 -0.37600144710E+03  0.13563421068E+03  0.53298438474E+03  0.00000000000E+00 0.  1.
         22    1    1    2    0    0  0.82899897492E+03  0.89997257493E+03  0.16715185544E+03  0.12349614078E+04  0.00000000000E+00 0. -1.
<mgrwt>
<rscale>  0 0.24644722E+04</rscale>
<asrwt>0</asrwt>
<pdfrwt beam="1">  1        2 0.24156693E+00 0.24644722E+04</pdfrwt>
<pdfrwt beam="2">  1       -2 0.14877285E+00 0.24644722E+04</pdfrwt>
<totfact> 0.31749482E+00</totfact>
</mgrwt>
</event>
<event>
 6    1  0.9364335E-007  0.1406598E+04  0.7818608E-02  0.8949057E-01
         -1   -1    0    0    0  501 -0.00000000000E+00  0.00000000000E+00  0.73585781803E+03  0.73585781803E+03  0.00000000000E+00 0.  1.
          1   -1    0    0  501    0  0.00000000000E+00 -0.00000000000E+00 -0.67218053441E+03  0.67218053441E+03  0.00000000000E+00 0. -1.
         23    2    1    2    0    0 -0.38110448385E+03  0.58445810546E+03 -0.32541833429E+02  0.70370176875E+03  0.85471069758E+02 0.  0.
         11    1    3    3    0    0 -0.18761673946E+03  0.21532764895E+03  0.85219343559E+00  0.28559895581E+03  0.00000000000E+00 0. -1.
        -11    1    3    3    0    0 -0.19348774439E+03  0.36913045651E+03 -0.33394026864E+02  0.41810281293E+03  0.00000000000E+00 0.  1.
         22    1    1    2    0    0  0.38110448385E+03 -0.58445810546E+03  0.96219117042E+02  0.70433658370E+03  0.00000000000E+00 0.  1.
<mgrwt>
<rscale>  0 0.14065977E+04</rscale>
<asrwt>0</asrwt>
<pdfrwt beam="1">  1        1 0.10341239E+00 0.14065977E+04</pdfrwt>
<pdfrwt beam="2">  1       -1 0.11320889E+00 0.14065977E+04</pdfrwt>
<totfact> 0.20128603E+01</totfact>
</mgrwt>
</event>
<event>
 6    1  0.9364335E-007  0.3720558E+04  0.7818608E-02  0.8063421E-01
          2   -1    0    0  501    0  0.00000000000E+00  0.00000000000E+00  0.42219995446E+04  0.42219995446E+04  0.00000000000E+00 0. -1.
         -2   -1    0    0    0  501 -0.00000000000E+00 -0.00000000000E+00 -0.81966791950E+03  0.81966791950E+03  0.00000000000E+00 0.  1.
         23    2    1    2    0    0 -0.13296420508E+04  0.12512863295E+04  0.21774561802E+04  0.28430348624E+04  0.88692448107E+02 0.  0.
         11    1    3    3    0    0 -0.12253324299E+04  0.11587152140E+04  0.20452256672E+04  0.26508505316E+04  0.00000000000E+00 0. -1.
        -11    1    3    3    0    0 -0.10430962097E+03  0.92571115525E+02  0.13223051293E+03  0.19218433080E+03  0.00000000000E+00 0.  1.
         22    1    1    2    0    0  0.13296420508E+04 -0.12512863295E+04  0.12248754450E+04  0.21986326018E+04  0.00000000000E+00 0.  1.
<mgrwt>
<rscale>  0 0.37205578E+04</rscale>
<asrwt>0</asrwt>
<pdfrwt beam="1">  1        2 0.64953838E+00 0.37205578E+04</pdfrwt>
<pdfrwt beam="2">  1       -2 0.12610276E+00 0.37205578E+04</pdfrwt>
<totfact> 0.83856679E-02</totfact>
</mgrwt>
</event>
<event>
 6    1  0.9364335E-007  0.1090372E+04  0.7818608E-02  0.9214627E-01
         -1   -1    0    0    0  501 -0.00000000000E+00  0.00000000000E+00  0.13878201371E+03  0.13878201371E+03  0.00000000000E+00 0.  1.
          1   -1    0    0  501    0  0.00000000000E+00 -0.00000000000E+00 -0.21416879736E+04  0.21416879736E+04  0.00000000000E+00 0. -1.
         23    2    1    2    0    0  0.25682979974E+03 -0.25320172472E+03 -0.16405649268E+03  0.40658631363E+03  0.91242743305E+02 0.  0.
         13    1    3    3    0    0  0.21224104344E+03 -0.15660294044E+03 -0.13496564509E+03  0.29628781080E+03  0.00000000000E+00 0. -1.
        -13    1    3    3    0    0  0.44588756296E+02 -0.96598784278E+02 -0.29090847590E+02  0.11029850283E+03  0.00000000000E+00 0.  1.
         22    1    1    2    0    0 -0.25682979974E+03  0.25320172472E+03 -0.18388494672E+04  0.18738836736E+04  0.00000000000E+00 0. -1.
<mgrwt>
<rscale>  0 0.10903720E+04</rscale>
<asrwt>0</asrwt>
<pdfrwt beam="1">  1        1 0.32949046E+00 0.10903720E+04</pdfrwt>
<pdfrwt beam="2">  1       -1 0.21351079E-01 0.10903720E+04</pdfrwt>
<totfact> 0.43817530E+01</totfact>
</mgrwt>
</event>
<event>
 6    1  0.9364335E-007  0.1254323E+04  0.7818608E-02  0.9066593E-01
         -1   -1    0    0    0  501 -0.00000000000E+00  0.00000000000E+00  0.51314089624E+03  0.51314089624E+03  0.00000000000E+00 0.  1.
          1   -1    0    0  501    0  0.00000000000E+00 -0.00000000000E+00 -0.76651743299E+03  0.76651743299E+03  0.00000000000E+00 0. -1.
         23    2    1    2    0    0 -0.42099395055E+02 -0.44333089740E+03 -0.57335055167E+03  0.73129894537E+03  0.88049126857E+02 0.  0.
         11    1    3    3    0    0 -0.13037375520E+02 -0.36050938722E+03 -0.50204875826E+03  0.61821513012E+03  0.00000000000E+00 0.  1.
        -11    1    3    3    0    0 -0.29062019535E+02 -0.82821510179E+02 -0.71301793406E+02  0.11308381525E+03  0.00000000000E+00 0. -1.
         22    1    1    2    0    0  0.42099395055E+02  0.44333089740E+03  0.31997401492E+03  0.54835938387E+03  0.00000000000E+00 0.  1.
<mgrwt>
<rscale>  0 0.12543228E+04</rscale>
<asrwt>0</asrwt>
<pdfrwt beam="1">  1        1 0.11792576E+00 0.12543228E+04</pdfrwt>
<pdfrwt beam="2">  1       -1 0.78944753E-01 0.12543228E+04</pdfrwt>
<totfact> 0.37457800E+01</totfact>
</mgrwt>
</event>
<event>
 6    1  0.9364335E-007  0.2483688E+04  0.7818608E-02  0.8408820E-01
          2   -1    0    0  501    0  0.00000000000E+00  0.00000000000E+00  0.67750009063E+03  0.67750009063E+03  0.00000000000E+00 0. -1.
         -2   -1    0    0    0  501 -0.00000000000E+00 -0.00000000000E+00 -0.22762741055E+04  0.22762741055E+04  0.00000000000E+00 0.  1.
         23    2    1    2    0    0 -0.11282270813E+04 -0.45228011880E+03 -0.50743791187E+03  0.13202295403E+04  0.89772778915E+02 0.  0.
         11    1    3    3    0    0 -0.10603578339E+04 -0.41797756229E+03 -0.49722366532E+03  0.12435012472E+04  0.00000000000E+00 0.  1.
        -11    1    3    3    0    0 -0.67869247408E+02 -0.34302556505E+02 -0.10214246550E+02  0.76728293081E+02  0.00000000000E+00 0. -1.
         22    1    1    2    0    0  0.11282270813E+04  0.45228011880E+03 -0.10913361030E+04  0.16335446559E+04  0.00000000000E+00 0.  1.
<mgrwt>
<rscale>  0 0.24836875E+04</rscale>
<asrwt>0</asrwt>
<pdfrwt beam="1">  1        2 0.10423078E+00 0.24836875E+04</pdfrwt>
<pdfrwt beam="2">  1       -2 0.35019602E+00 0.24836875E+04</pdfrwt>
<totfact> 0.59189901E-01</totfact>
</mgrwt>
</event>
<event>
 6    1  0.9364335E-007  0.1182372E+04  0.7818608E-02  0.9128427E-01
         -2   -1    0    0    0  501 -0.00000000000E+00  0.00000000000E+00  0.24256675117E+03  0.24256675117E+03  0.00000000000E+00 0.  1.
          2   -1    0    0  501    0  0.00000000000E+00 -0.00000000000E+00 -0.14408451332E+04  0.14408451332E+04  0.00000000000E+00 0. -1.
         23    2    1    2    0    0 -0.71078280546E+01  0.58367985248E+03 -0.55046955592E+03  0.81140903657E+03  0.12097603568E+03 0.  0.
         13    1    3    3    0    0 -0.58552304554E+02  0.40745517507E+03 -0.35970704976E+03  0.54666008974E+03  0.00000000000E+00 0. -1.
        -13    1    3    3    0    0  0.51444476500E+02  0.17622467741E+03 -0.19076250616E+03  0.26474894683E+03  0.00000000000E+00 0.  1.
         22    1    1    2    0    0  0.71078280546E+01 -0.58367985248E+03 -0.64780882615E+03  0.87200284785E+03  0.00000000000E+00 0. -1.
<mgrwt>
<rscale>  0 0.11823724E+04</rscale>
<asrwt>0</asrwt>
<pdfrwt beam="1">  1        2 0.22166849E+00 0.11823724E+04</pdfrwt>
<pdfrwt beam="2">  1       -2 0.37317961E-01 0.11823724E+04</pdfrwt>
<totfact> 0.91663837E+01</totfact>
</mgrwt>
</event>
<event>
 6    1  0.9364335E-007  0.2098572E+04  0.7818608E-02  0.8561873E-01
         -2   -1    0    0    0  501 -0.00000000000E+00  0.00000000000E+00  0.10700452344E+04  0.10700452344E+04  0.00000000000E+00 0.  1.
          2   -1    0    0  501    0  0.00000000000E+00 -0.00000000000E+00 -0.10289295187E+04  0.10289295187E+04  0.00000000000E+00 0. -1.
         23    2    1    2    0    0 -0.22196144877E+03  0.96636989130E+03 -0.31658388736E+03  0.10448937992E+04  0.91869702640E+02 0.  0.
         11    1    3    3    0    0 -0.16038919355E+03  0.62098348690E+03 -0.24668157970E+03  0.68716590876E+03  0.00000000000E+00 0.  1.
        -11    1    3    3    0    0 -0.61572255220E+02  0.34538640440E+03 -0.69902307662E+02  0.35772789041E+03  0.00000000000E+00 0. -1.
         22    1    1    2    0    0  0.22196144877E+03 -0.96636989130E+03  0.35769960302E+03  0.10540809540E+04  0.00000000000E+00 0. -1.
<mgrwt>
<rscale>  0 0.20985720E+04</rscale>
<asrwt>0</asrwt>
<pdfrwt beam="1">  1        2 0.15829685E+00 0.20985720E+04</pdfrwt>
<pdfrwt beam="2">  1       -2 0.16462234E+00 0.20985720E+04</pdfrwt>
<totfact> 0.51825114E+00</totfact>
</mgrwt>
</event>
<event>
 6    1  0.9364335E-007  0.1510322E+04  0.7818608E-02  0.8877618E-01
          2   -1    0    0  501    0  0.00000000000E+00  0.00000000000E+00  0.83999052821E+03  0.83999052821E+03  0.00000000000E+00 0. -1.
         -2   -1    0    0    0  501 -0.00000000000E+00 -0.00000000000E+00 -0.67889809837E+03  0.67889809837E+03  0.00000000000E+00 0.  1.
         23    2    1    2    0    0  0.43602261795E+03 -0.26531492320E+03 -0.47474338893E+03  0.70353905721E+03  0.95279524800E+02 0.  0.
         13    1    3    3    0    0  0.19724537087E+03 -0.99349140060E+02 -0.26518019247E+03  0.34510364014E+03  0.00000000000E+00 0. -1.
        -13    1    3    3    0    0  0.23877724708E+03 -0.16596578314E+03 -0.20956319646E+03  0.35843541707E+03  0.00000000000E+00 0.  1.
         22    1    1    2    0    0 -0.43602261795E+03  0.26531492320E+03  0.63583581877E+03  0.81534956937E+03  0.00000000000E+00 0. -1.
<mgrwt>
<rscale>  0 0.15103218E+04</rscale>
<asrwt>0</asrwt>
<pdfrwt beam="1">  1        2 0.12922931E+00 0.15103218E+04</pdfrwt>
<pdfrwt beam="2">  1       -2 0.10444586E+00 0.15103218E+04</pdfrwt>
<totfact> 0.23188146E+01</totfact>
</mgrwt>
</event>
<event>
 6    1  0.9364335E-007  0.3271048E+04  0.7818608E-02  0.8170302E-01
          2   -1    0    0  501    0  0.00000000000E+00  0.00000000000E+00  0.30445855027E+04  0.30445855027E+04  0.00000000000E+00 0. -1.
         -2   -1    0    0    0  501 -0.00000000000E+00 -0.00000000000E+00 -0.87858879057E+03  0.87858879057E+03  0.00000000000E+00 0.  1.
         23    2    1    2    0    0 -0.35578833747E+03 -0.43781885832E+03 -0.75599666863E+03  0.94721797454E+03  0.86140783214E+02 0.  0.
         11    1    3    3    0    0 -0.10815826142E+03 -0.17959337773E+03 -0.23153065169E+03  0.31234345441E+03  0.00000000000E+00 0.  1.
        -11    1    3    3    0    0 -0.24763007605E+03 -0.25822548059E+03 -0.52446601695E+03  0.63487452014E+03  0.00000000000E+00 0. -1.
         22    1    1    2    0    0  0.35578833747E+03  0.43781885832E+03  0.29219933808E+04  0.29759563187E+04  0.00000000000E+00 0. -1.
<mgrwt>
<rscale>  0 0.32710480E+04</rscale>
<asrwt>0</asrwt>
<pdfrwt beam="1">  1        2 0.46839777E+00 0.32710480E+04</pdfrwt>
<pdfrwt beam="2">  1       -2 0.13516751E+00 0.32710480E+04</pdfrwt>
<totfact> 0.53691941E-01</totfact>
</mgrwt>
</event>
<event>
 6    1  0.9364335E-007  0.3782802E+04  0.7818608E-02  0.8049856E-01
         -2   -1    0    0    0  501 -0.00000000000E+00  0.00000000000E+00  0.22508142355E+04  0.22508142355E+04  0.00000000000E+00 0.  1.
          2   -1    0    0  501    0  0.00000000000E+00 -0.00000000000E+00 -0.15893796610E+04  0.15893796610E+04  0.00000000000E+00 0. -1.
         23    2    1    2    0    0 -0.13554842394E+04  0.13054975383E+04  0.51111600828E+03  0.19522698999E+04  0.91961091693E+02 0.  0.
         13    1    3    3    0    0 -0.59055823787E+03  0.50962256499E+03  0.19572147671E+03  0.80422701242E+03  0.00000000000E+00 0. -1.
        -13    1    3    3    0    0 -0.76492600152E+03  0.79587497327E+03  0.31539453157E+03  0.11480428874E+04  0.00000000000E+00 0.  1.
         22    1    1    2    0    0  0.13554842394E+04 -0.13054975383E+04  0.15031856626E+03  0.18879239966E+04  0.00000000000E+00 0. -1.
<mgrwt>
<rscale>  0 0.37828023E+04</rscale>
<asrwt>0</asrwt>
<pdfrwt beam="1">  1        2 0.24451995E+00 0.37828023E+04</pdfrwt>
<pdfrwt beam="2">  1       -2 0.34627911E+00 0.37828023E+04</pdfrwt>
<totfact> 0.14901798E-01</totfact>
</mgrwt>
</event>
<event>
 6    1  0.9364335E-007  0.9134531E+03  0.7818608E-02  0.9408919E-01
          1   -1    0    0  501    0  0.00000000000E+00  0.00000000000E+00  0.90860784078E+03  0.90860784078E+03  0.00000000000E+00 0. -1.
         -1   -1    0    0    0  501 -0.00000000000E+00 -0.00000000000E+00 -0.22958103634E+03  0.22958103634E+03  0.00000000000E+00 0.  1.
         23    2    1    2    0    0 -0.15425379221E+03  0.32101050350E+03  0.68853068808E+03  0.78191328215E+03  0.10233228525E+03 0.  0.
         11    1    3    3    0    0 -0.19049216753E+02  0.46945387337E+02  0.19459933954E+03  0.20108616313E+03  0.00000000000E+00 0.  1.
        -11    1    3    3    0    0 -0.13520457546E+03  0.27406511617E+03  0.49393134854E+03  0.58082711903E+03  0.00000000000E+00 0. -1.
         22    1    1    2    0    0  0.15425379221E+03 -0.32101050350E+03 -0.95038836411E+01  0.35627559497E+03  0.00000000000E+00 0.  1.
<mgrwt>
<rscale>  0 0.91345307E+03</rscale>
<asrwt>0</asrwt>
<pdfrwt beam="1">  1        1 0.13978582E+00 0.91345307E+03</pdfrwt>
<pdfrwt beam="2">  1       -1 0.35320160E-01 0.91345307E+03</pdfrwt>
<totfact> 0.13746468E+02</totfact>
</mgrwt>
</event>
<event>
 6    1  0.9364335E-007  0.1427648E+04  0.7818608E-02  0.8934045E-01
         -2   -1    0    0    0  501 -0.00000000000E+00  0.00000000000E+00  0.34046882019E+03  0.34046882019E+03  0.00000000000E+00 0.  1.
          2   -1    0    0  501    0  0.00000000000E+00 -0.00000000000E+00 -0.14965967320E+04  0.14965967320E+04  0.00000000000E+00 0. -1.
         23    2    1    2    0    0  0.54194587237E+03 -0.32790273210E+03 -0.99639854787E+03  0.11838129211E+04  0.85891999963E+02 0.  0.
         13    1    3    3    0    0  0.21102636406E+03 -0.15778616384E+03 -0.47622709669E+03  0.54426174535E+03  0.00000000000E+00 0. -1.
        -13    1    3    3    0    0  0.33091950831E+03 -0.17011656826E+03 -0.52017145118E+03  0.63955117574E+03  0.00000000000E+00 0.  1.
         22    1    1    2    0    0 -0.54194587237E+03  0.32790273210E+03 -0.15972936391E+03  0.65325263106E+03  0.00000000000E+00 0.  1.
<mgrwt>
<rscale>  0 0.14276477E+04</rscale>
<asrwt>0</asrwt>
<pdfrwt beam="1">  1        2 0.23024565E+00 0.14276477E+04</pdfrwt>
<pdfrwt beam="2">  1       -2 0.52379820E-01 0.14276477E+04</pdfrwt>
<totfact> 0.42593664E+01</totfact>
</mgrwt>
</event>
<event>
 6    1  0.9364335E-007  0.2339302E+04  0.7818608E-02  0.8462584E-01
          1   -1    0    0  501    0  0.00000000000E+00  0.00000000000E+00  0.15012155919E+04  0.15012155919E+04  0.00000000000E+00 0. -1.
         -1   -1    0    0    0  501 -0.00000000000E+00 -0.00000000000E+00 -0.91131743116E+03  0.91131743116E+03  0.00000000000E+00 0.  1.
         23    2    1    2    0    0  0.51507657612E+03 -0.33778839432E+03  0.13180969980E+04  0.14587623875E+04  0.10584483112E+03 0.  0.
         11    1    3    3    0    0  0.12019954919E+03 -0.51578183834E+02  0.20051485019E+03  0.23940435631E+03  0.00000000000E+00 0.  1.
        -11    1    3    3    0    0  0.39487702693E+03 -0.28621021049E+03  0.11175821478E+04  0.12193580312E+04  0.00000000000E+00 0. -1.
         22    1    1    2    0    0 -0.51507657612E+03  0.33778839432E+03 -0.72819883731E+03  0.95377063557E+03  0.00000000000E+00 0.  1.
<mgrwt>
<rscale>  0 0.23393024E+04</rscale>
<asrwt>0</asrwt>
<pdfrwt beam="1">  1        1 0.23095624E+00 0.23393024E+04</pdfrwt>
<pdfrwt beam="2">  1       -1 0.14020268E+00 0.23393024E+04</pdfrwt>
<totfact> 0.24560252E+00</totfact>
</mgrwt>
</event>
<event>
 6    1  0.9364335E-007  0.9050640E+03  0.7818608E-02  0.9419273E-01
          1   -1    0    0  501    0  0.00000000000E+00  0.00000000000E+00  0.59763513470E+03  0.59763513470E+03  0.00000000000E+00 0. -1.
         -1   -1    0    0    0  501 -0.00000000000E+00 -0.00000000000E+00 -0.34265926704E+03  0.34265926704E+03  0.00000000000E+00 0.  1.
         23    2    1    2    0    0 -0.11654019143E+03 -0.31819826754E+03  0.43301502163E+03  0.55750242946E+03  0.92060828885E+02 0.  0.
         11    1    3    3    0    0 -0.11803514703E+02 -0.78443465937E+02  0.50386596627E+02  0.93976110939E+02  0.00000000000E+00 0.  1.
        -11    1    3    3    0    0 -0.10473667673E+03 -0.23975480161E+03  0.38262842500E+03  0.46352631853E+03  0.00000000000E+00 0. -1.
         22    1    1    2    0    0  0.11654019143E+03  0.31819826754E+03 -0.17803915397E+03  0.38279197227E+03  0.00000000000E+00 0.  1.
<mgrwt>
<rscale>  0 0.90506401E+03</rscale>
<asrwt>0</asrwt>
<pdfrwt beam="1">  1        1 0.91943867E-01 0.90506401E+03</pdfrwt>
<pdfrwt beam="2">  1       -1 0.52716810E-01 0.90506401E+03</pdfrwt>
<totfact> 0.12585571E+02</totfact>
</mgrwt>
</event>
<event>
 6    1  0.1120339E-006  0.1861040E+04  0.7818608E-02  0.8674496E-01
          1   -1    0    0  501    0  0.00000000000E+00  0.00000000000E+00  0.24248857375E+04  0.24248857375E+04  0.00000000000E+00 0. -1.
         -1   -1    0    0    0  501 -0.00000000000E+00 -0.00000000000E+00 -0.35707570942E+03  0.35707570942E+03  0.00000000000E+00 0.  1.
         23    2    1    2    0    0  0.13129055772E+03 -0.48548746946E+03  0.22030472817E+04  0.22611693498E+04  0.80834457461E+02 0.  0.
         13    1    3    3    0    0  0.90658652467E+02 -0.24992805496E+03  0.10096018337E+04  0.10440205393E+04  0.00000000000E+00 0.  1.
        -13    1    3    3    0    0  0.40631905255E+02 -0.23555941450E+03  0.11934454480E+04  0.12171488105E+04  0.00000000000E+00 0. -1.
         22    1    1    2    0    0 -0.13129055772E+03  0.48548746946E+03 -0.13523725371E+03  0.52079209704E+03  0.00000000000E+00 0.  1.
<mgrwt>
<rscale>  0 0.18610403E+04</rscale>
<asrwt>0</asrwt>
<pdfrwt beam="1">  1        1 0.37305933E+00 0.18610403E+04</pdfrwt>
<pdfrwt beam="2">  1       -1 0.54934726E-01 0.18610403E+04</pdfrwt>
<totfact> 0.48038662E+00</totfact>
</mgrwt>
</event>
<event>
 6    1  0.9364335E-007  0.2377770E+04  0.7818608E-02  0.8447873E-01
          2   -1    0    0  501    0  0.00000000000E+00  0.00000000000E+00  0.25690018550E+04  0.25690018550E+04  0.00000000000E+00 0. -1.
         -2   -1    0    0    0  501 -0.00000000000E+00 -0.00000000000E+00 -0.55019322255E+03  0.55019322255E+03  0.00000000000E+00 0.  1.
         23    2    1    2    0    0 -0.15619838021E+03  0.45615203359E+03  0.24339495209E+04  0.24829446795E+04  0.91822649687E+02 0.  0.
         11    1    3    3    0    0 -0.70186506079E+02  0.33334095509E+03  0.17249790486E+04  0.17582932224E+04  0.00000000000E+00 0.  1.
        -11    1    3    3    0    0 -0.86011874133E+02  0.12281107850E+03  0.70897047239E+03  0.72465145706E+03  0.00000000000E+00 0. -1.
         22    1    1    2    0    0  0.15619838021E+03 -0.45615203359E+03 -0.41514088851E+03  0.63625039807E+03  0.00000000000E+00 0.  1.
<mgrwt>
<rscale>  0 0.23777699E+04</rscale>
<asrwt>0</asrwt>
<pdfrwt beam="1">  1        2 0.39523105E+00 0.23777699E+04</pdfrwt>
<pdfrwt beam="2">  1       -2 0.84645113E-01 0.23777699E+04</pdfrwt>
<totfact> 0.34773424E+00</totfact>
</mgrwt>
</event>
<event>
 6    1  0.9364335E-007  0.1273663E+04  0.7818608E-02  0.9050715E-01
         -2   -1    0    0    0  501 -0.00000000000E+00  0.00000000000E+00  0.21370789203E+03  0.21370789203E+03  0.00000000000E+00 0.  1.
          2   -1    0    0  501    0  0.00000000000E+00 -0.00000000000E+00 -0.18977040314E+04  0.18977040314E+04  0.00000000000E+00 0. -1.
         23    2    1    2    0    0  0.51609211524E+03  0.15183379973E+03 -0.14015780860E+04  0.15038228098E+04  0.87506217203E+02 0.  0.
         11    1    3    3    0    0  0.24436435760E+03  0.48232050133E+02 -0.75042974512E+03  0.79068645637E+03  0.00000000000E+00 0. -1.
        -11    1    3    3    0    0  0.27172775764E+03  0.10360174960E+03 -0.65114834083E+03  0.71313635341E+03  0.00000000000E+00 0.  1.
         22    1    1    2    0    0 -0.51609211524E+03 -0.15183379973E+03 -0.28241805345E+03  0.60758911369E+03  0.00000000000E+00 0.  1.
<mgrwt>
<rscale>  0 0.12736630E+04</rscale>
<asrwt>0</asrwt>
<pdfrwt beam="1">  1        2 0.29195445E+00 0.12736630E+04</pdfrwt>
<pdfrwt beam="2">  1       -2 0.32878139E-01 0.12736630E+04</pdfrwt>
<totfact> 0.64571774E+01</totfact>
</mgrwt>
</event>
<event>
 6    1  0.9364335E-007  0.1662908E+04  0.7818608E-02  0.8782806E-01
         -2   -1    0    0    0  501 -0.00000000000E+00  0.00000000000E+00  0.31812723826E+03  0.31812723826E+03  0.00000000000E+00 0.  1.
          2   -1    0    0  501    0  0.00000000000E+00 -0.00000000000E+00 -0.21730802474E+04  0.21730802474E+04  0.00000000000E+00 0. -1.
         23    2    1    2    0    0 -0.22972932103E+03 -0.13614174968E+02 -0.21232629263E+04  0.21377232309E+04  0.93028226410E+02 0.  0.
         13    1    3    3    0    0 -0.15368852227E+03 -0.11275614421E+02 -0.17508898653E+04  0.17576582779E+04  0.00000000000E+00 0.  1.
        -13    1    3    3    0    0 -0.76040798761E+02 -0.23385605461E+01 -0.37237306103E+03  0.38006495303E+03  0.00000000000E+00 0. -1.
         22    1    1    2    0    0  0.22972932103E+03  0.13614174968E+02  0.26830991719E+03  0.35348425476E+03  0.00000000000E+00 0.  1.
<mgrwt>
<rscale>  0 0.16629083E+04</rscale>
<asrwt>0</asrwt>
<pdfrwt beam="1">  1        2 0.33432003E+00 0.16629083E+04</pdfrwt>
<pdfrwt beam="2">  1       -2 0.48942653E-01 0.16629083E+04</pdfrwt>
<totfact> 0.20180582E+01</totfact>
</mgrwt>
</event>
<event>
 6    1  0.9364335E-007  0.2551303E+04  0.7818608E-02  0.8384933E-01
         -2   -1    0    0    0  501 -0.00000000000E+00  0.00000000000E+00  0.78995895494E+03  0.78995895494E+03  0.00000000000E+00 0.  1.
          2   -1    0    0  501    0  0.00000000000E+00 -0.00000000000E+00 -0.20599629421E+04  0.20599629421E+04  0.00000000000E+00 0. -1.
         23    2    1    2    0    0  0.18994949753E+03 -0.49274791056E+03 -0.19310404571E+04  0.20038423917E+04  0.87096319138E+02 0.  0.
         13    1    3    3    0    0  0.55756601611E+02 -0.22200923850E+03 -0.71099565389E+03  0.74693488367E+03  0.00000000000E+00 0.  1.
        -13    1    3    3    0    0  0.13419289592E+03 -0.27073867206E+03 -0.12200448032E+04  0.12569075080E+04  0.00000000000E+00 0. -1.
         22    1    1    2    0    0 -0.18994949753E+03  0.49274791056E+03  0.66103646987E+03  0.84607950541E+03  0.00000000000E+00 0.  1.
<mgrwt>
<rscale>  0 0.25513025E+04</rscale>
<asrwt>0</asrwt>
<pdfrwt beam="1">  1        2 0.31691737E+00 0.25513025E+04</pdfrwt>
<pdfrwt beam="2">  1       -2 0.12153215E+00 0.25513025E+04</pdfrwt>
<totfact> 0.28266197E+00</totfact>
</mgrwt>
</event>
<event>
 6    1  0.9364335E-007  0.4607569E+04  0.7818608E-02  0.7892071E-01
         -2   -1    0    0    0  501 -0.00000000000E+00  0.00000000000E+00  0.25742091907E+04  0.25742091907E+04  0.00000000000E+00 0.  1.
          2   -1    0    0  501    0  0.00000000000E+00 -0.00000000000E+00 -0.20617687259E+04  0.20617687259E+04  0.00000000000E+00 0. -1.
         23    2    1    2    0    0  0.14468090914E+03  0.10769006058E+04  0.22992599761E+04  0.25447171852E+04  0.91332549263E+02 0.  0.
         13    1    3    3    0    0  0.31775209562E+01  0.33011996581E+03  0.67382763499E+03  0.75035522931E+03  0.00000000000E+00 0.  1.
        -13    1    3    3    0    0  0.14150338819E+03  0.74678063999E+03  0.16254323412E+04  0.17943619559E+04  0.00000000000E+00 0. -1.
         22    1    1    2    0    0 -0.14468090914E+03 -0.10769006058E+04 -0.17868195114E+04  0.20912607313E+04  0.00000000000E+00 0. -1.
<mgrwt>
<rscale>  0 0.46075694E+04</rscale>
<asrwt>0</asrwt>
<pdfrwt beam="1">  1        2 0.31719519E+00 0.46075694E+04</pdfrwt>
<pdfrwt beam="2">  1       -2 0.39603218E+00 0.46075694E+04</pdfrwt>
<totfact> 0.36536638E-02</totfact>
</mgrwt>
</event>
<event>
 6    1  0.9364335E-007  0.9539439E+03  0.7818608E-02  0.9360553E-01
          1   -1    0    0  501    0  0.00000000000E+00  0.00000000000E+00  0.11184525127E+04  0.11184525127E+04  0.00000000000E+00 0. -1.
         -1   -1    0    0    0  501 -0.00000000000E+00 -0.00000000000E+00 -0.20340803682E+03  0.20340803682E+03  0.00000000000E+00 0.  1.
         23    2    1    2    0    0 -0.46997728072E+03 -0.44354809089E+02  0.43001835436E+03  0.64503240884E+03  0.91131936679E+02 0.  0.
         11    1    3    3    0    0 -0.37244989956E+03 -0.65129325469E+02  0.36789429195E+03  0.52754807058E+03  0.00000000000E+00 0. -1.
        -11    1    3    3    0    0 -0.97527381162E+02  0.20774516380E+02  0.62124062410E+02  0.11748433826E+03  0.00000000000E+00 0.  1.
         22    1    1    2    0    0  0.46997728072E+03  0.44354809089E+02  0.48502612156E+03  0.67682814073E+03  0.00000000000E+00 0. -1.
<mgrwt>
<rscale>  0 0.95394388E+03</rscale>
<asrwt>0</asrwt>
<pdfrwt beam="1">  1        1 0.17206961E+00 0.95394388E+03</pdfrwt>
<pdfrwt beam="2">  1       -1 0.31293545E-01 0.95394388E+03</pdfrwt>
<totfact> 0.11676484E+02</totfact>
</mgrwt>
</event>
<event>
 6    1  0.9364335E-007  0.3175784E+04  0.7818608E-02  0.8195242E-01
         -1   -1    0    0    0  501 -0.00000000000E+00  0.00000000000E+00  0.13096144916E+04  0.13096144916E+04  0.00000000000E+00 0.  1.
          1   -1    0    0  501    0  0.00000000000E+00 -0.00000000000E+00 -0.19252998995E+04  0.19252998995E+04  0.00000000000E+00 0. -1.
         23    2    1    2    0    0  0.15189300780E+04 -0.40414414049E+03 -0.86969993181E+02  0.15765956468E+04  0.87229499968E+02 0.  0.
         13    1    3    3    0    0  0.71546978978E+03 -0.23160227095E+03 -0.23910466520E+02  0.75240171611E+03  0.00000000000E+00 0. -1.
        -13    1    3    3    0    0  0.80346028818E+03 -0.17254186954E+03 -0.63059526661E+02  0.82419393066E+03  0.00000000000E+00 0.  1.
         22    1    1    2    0    0 -0.15189300780E+04  0.40414414049E+03 -0.52871541474E+03  0.16583187443E+04  0.00000000000E+00 0. -1.
<mgrwt>
<rscale>  0 0.31757838E+04</rscale>
<asrwt>0</asrwt>
<pdfrwt beam="1">  1        1 0.29619999E+00 0.31757838E+04</pdfrwt>
<pdfrwt beam="2">  1       -1 0.20147915E+00 0.31757838E+04</pdfrwt>
<totfact> 0.41279326E-01</totfact>
</mgrwt>
</event>
<event>
 6    1  0.9364335E-007  0.3070829E+04  0.7818608E-02  0.8223790E-01
          2   -1    0    0  501    0  0.00000000000E+00  0.00000000000E+00  0.22479726612E+04  0.22479726612E+04  0.00000000000E+00 0. -1.
         -2   -1    0    0    0  501 -0.00000000000E+00 -0.00000000000E+00 -0.10487215117E+04  0.10487215117E+04  0.00000000000E+00 0.  1.
         23    2    1    2    0    0  0.27371280136E+03 -0.51977135727E+03  0.21214963127E+04  0.22032513978E+04  0.92136615283E+02 0.  0.
         13    1    3    3    0    0  0.17819543093E+03 -0.41786220147E+03  0.15769133553E+04  0.16410417914E+04  0.00000000000E+00 0. -1.
        -13    1    3    3    0    0  0.95517370425E+02 -0.10190915580E+03  0.54458295739E+03  0.56220960643E+03  0.00000000000E+00 0.  1.
         22    1    1    2    0    0 -0.27371280136E+03  0.51977135727E+03 -0.92224516312E+03  0.10934427751E+04  0.00000000000E+00 0.  1.
<mgrwt>
<rscale>  0 0.30708287E+04</rscale>
<asrwt>0</asrwt>
<pdfrwt beam="1">  1        2 0.34584195E+00 0.30708287E+04</pdfrwt>
<pdfrwt beam="2">  1       -2 0.16134177E+00 0.30708287E+04</pdfrwt>
<totfact> 0.10166403E+00</totfact>
</mgrwt>
</event>
<event>
 6    1  0.9364335E-007  0.3387637E+04  0.7818608E-02  0.8140947E-01
         -1   -1    0    0    0  501 -0.00000000000E+00  0.00000000000E+00  0.13478040061E+04  0.13478040061E+04  0.00000000000E+00 0.  1.
          1   -1    0    0  501    0  0.00000000000E+00 -0.00000000000E+00 -0.21286640304E+04  0.21286640304E+04  0.00000000000E+00 0. -1.
         23    2    1    2    0    0 -0.99522783698E+03  0.47337930718E+03  0.92761634624E+03  0.14433773044E+04  0.91101817726E+02 0.  0.
         13    1    3    3    0    0 -0.67051469461E+03  0.27373780507E+03  0.58879538534E+03  0.93338220864E+03  0.00000000000E+00 0.  1.
        -13    1    3    3    0    0 -0.32471314237E+03  0.19964150210E+03  0.33882096090E+03  0.50999509580E+03  0.00000000000E+00 0. -1.
         22    1    1    2    0    0  0.99522783698E+03 -0.47337930718E+03 -0.17084763706E+04  0.20330907321E+04  0.00000000000E+00 0. -1.
<mgrwt>
<rscale>  0 0.33876375E+04</rscale>
<asrwt>0</asrwt>
<pdfrwt beam="1">  1        1 0.32748677E+00 0.33876375E+04</pdfrwt>
<pdfrwt beam="2">  1       -1 0.20735446E+00 0.33876375E+04</pdfrwt>
<totfact> 0.26889446E-01</totfact>
</mgrwt>
</event>
<event>
 6    1  0.9364335E-007  0.1470461E+04  0.7818608E-02  0.8904337E-01
          2   -1    0    0  501    0  0.00000000000E+00  0.00000000000E+00  0.14587266352E+04  0.14587266352E+04  0.00000000000E+00 0. -1.
         -2   -1    0    0    0  501 -0.00000000000E+00 -0.00000000000E+00 -0.37057231043E+03  0.37057231043E+03  0.00000000000E+00 0.  1.
         23    2    1    2    0    0 -0.55720197267E+03 -0.45302434066E+03  0.72451265438E+03  0.10243515212E+04  0.93125512615E+02 0.  0.
         13    1    3    3    0    0 -0.42609451972E+03 -0.38276042005E+03  0.60891530855E+03  0.83596646577E+03  0.00000000000E+00 0.  1.
        -13    1    3    3    0    0 -0.13110745295E+03 -0.70263920613E+02  0.11559734582E+03  0.18838505546E+03  0.00000000000E+00 0. -1.
         22    1    1    2    0    0  0.55720197267E+03  0.45302434066E+03  0.36364167035E+03  0.80494742437E+03  0.00000000000E+00 0.  1.
<mgrwt>
<rscale>  0 0.14704607E+04</rscale>
<asrwt>0</asrwt>
<pdfrwt beam="1">  1        2 0.22441948E+00 0.14704607E+04</pdfrwt>
<pdfrwt beam="2">  1       -2 0.57011126E-01 0.14704607E+04</pdfrwt>
<totfact> 0.37408290E+01</totfact>
</mgrwt>
</event>
<event>
 6    1  0.9364335E-007  0.3481753E+04  0.7818608E-02  0.8118128E-01
         -2   -1    0    0    0  501 -0.00000000000E+00  0.00000000000E+00  0.21828522644E+04  0.21828522644E+04  0.00000000000E+00 0.  1.
          2   -1    0    0  501    0  0.00000000000E+00 -0.00000000000E+00 -0.13883901500E+04  0.13883901500E+04  0.00000000000E+00 0. -1.
         23    2    1    2    0    0  0.98169695679E+03 -0.13498812228E+04 -0.10552159710E+03  0.16749621313E+04  0.91951635111E+02 0.  0.
         11    1    3    3    0    0  0.86288051856E+03 -0.11402560203E+04 -0.10769096681E+03  0.14339957899E+04  0.00000000000E+00 0. -1.
        -11    1    3    3    0    0  0.11881643823E+03 -0.20962520258E+03  0.21693697090E+01  0.24096634146E+03  0.00000000000E+00 0.  1.
         22    1    1    2    0    0 -0.98169695679E+03  0.13498812228E+04  0.89998371153E+03  0.18962802830E+04  0.00000000000E+00 0.  1.
<mgrwt>
<rscale>  0 0.34817528E+04</rscale>
<asrwt>0</asrwt>
<pdfrwt beam="1">  1        2 0.21359848E+00 0.34817528E+04</pdfrwt>
<pdfrwt beam="2">  1       -2 0.33582342E+00 0.34817528E+04</pdfrwt>
<totfact> 0.23083099E-01</totfact>
</mgrwt>
</event>
<event>
 6    1  0.9364335E-007  0.3651619E+03  0.7818608E-02  0.1056558E+00
         -2   -1    0    0    0  501 -0.00000000000E+00  0.00000000000E+00  0.10787157687E+03  0.10787157687E+03  0.00000000000E+00 0.  1.
          2   -1    0    0  501    0  0.00000000000E+00 -0.00000000000E+00 -0.30903234389E+03  0.30903234389E+03  0.00000000000E+00 0. -1.
         23    2    1    2    0    0 -0.70414620577E+02 -0.46958536488E+01  0.70719686158E+02  0.13601381654E+03  0.92294173420E+02 0.  0.
         13    1    3    3    0    0 -0.38604981824E+01  0.29072407938E+02 -0.49390933274E+01  0.29740595024E+02  0.00000000000E+00 0.  1.
        -13    1    3    3    0    0 -0.66554122394E+02 -0.33768261587E+02  0.75658779486E+02  0.10627322152E+03  0.00000000000E+00 0. -1.
         22    1    1    2    0    0  0.70414620577E+02  0.46958536488E+01 -0.27188045317E+03  0.28089010422E+03  0.00000000000E+00 0. -1.
<mgrwt>
<rscale>  0 0.36516192E+03</rscale>
<asrwt>0</asrwt>
<pdfrwt beam="1">  1        2 0.47543437E-01 0.36516192E+03</pdfrwt>
<pdfrwt beam="2">  1       -2 0.16595628E-01 0.36516192E+03</pdfrwt>
<totfact> 0.30731591E+03</totfact>
</mgrwt>
</event>
<event>
 6    1  0.9364335E-007  0.1819835E+04  0.7818608E-02  0.8695822E-01
          2   -1    0    0  501    0  0.00000000000E+00  0.00000000000E+00  0.14391212614E+04  0.14391212614E+04  0.00000000000E+00 0. -1.
         -2   -1    0    0    0  501 -0.00000000000E+00 -0.00000000000E+00 -0.57531630446E+03  0.57531630446E+03  0.00000000000E+00 0.  1.
         23    2    1    2    0    0 -0.49730137348E+03  0.59765851033E+03  0.95140028879E+03  0.12320199707E+04  0.90588893513E+02 0.  0.
         11    1    3    3    0    0 -0.42898523977E+03  0.51181324375E+03  0.76276633669E+03  0.10138015668E+04  0.00000000000E+00 0. -1.
        -11    1    3    3    0    0 -0.68316133716E+02  0.85845266585E+02  0.18863395210E+03  0.21821840392E+03  0.00000000000E+00 0.  1.
         22    1    1    2    0    0  0.49730137348E+03 -0.59765851033E+03 -0.87595331862E+02  0.78241759516E+03  0.00000000000E+00 0.  1.
<mgrwt>
<rscale>  0 0.18198351E+04</rscale>
<asrwt>0</asrwt>
<pdfrwt beam="1">  1        2 0.22140327E+00 0.18198351E+04</pdfrwt>
<pdfrwt beam="2">  1       -2 0.88510201E-01 0.18198351E+04</pdfrwt>
<totfact> 0.14229401E+01</totfact>
</mgrwt>
</event>
<event>
 6    1  0.9364335E-007  0.2395958E+04  0.7818608E-02  0.8441019E-01
          3   -1    0    0  501    0  0.00000000000E+00  0.00000000000E+00  0.18788049876E+04  0.18788049876E+04  0.00000000000E+00 0. -1.
         -3   -1    0    0    0  501 -0.00000000000E+00 -0.00000000000E+00 -0.76386486049E+03  0.76386486049E+03  0.00000000000E+00 0.  1.
         23    2    1    2    0    0 -0.85626392480E+03  0.41609422616E+03  0.13570239963E+04  0.16603629135E+04  0.94702502949E+02 0.  0.
         13    1    3    3    0    0 -0.39532663810E+03  0.19532123973E+03  0.71081753602E+03  0.83647779827E+03  0.00000000000E+00 0. -1.
        -13    1    3    3    0    0 -0.46093728670E+03  0.22077298643E+03  0.64620646025E+03  0.82388511522E+03  0.00000000000E+00 0.  1.
         22    1    1    2    0    0  0.85626392480E+03 -0.41609422616E+03 -0.24208386920E+03  0.98230693456E+03  0.00000000000E+00 0.  1.
<mgrwt>
<rscale>  0 0.23959575E+04</rscale>
<asrwt>0</asrwt>
<pdfrwt beam="1">  1        3 0.28904692E+00 0.23959575E+04</pdfrwt>
<pdfrwt beam="2">  1       -3 0.11751767E+00 0.23959575E+04</pdfrwt>
<totfact> 0.62057365E-02</totfact>
</mgrwt>
</event>
<event>
 6    1  0.9364335E-007  0.1715604E+04  0.7818608E-02  0.8752514E-01
         -2   -1    0    0    0  501 -0.00000000000E+00  0.00000000000E+00  0.66122301988E+03  0.66122301988E+03  0.00000000000E+00 0.  1.
          2   -1    0    0  501    0  0.00000000000E+00 -0.00000000000E+00 -0.11128232507E+04  0.11128232507E+04  0.00000000000E+00 0. -1.
         23    2    1    2    0    0 -0.13845234640E+03 -0.74180746499E+03  0.19005464702E+03  0.78350684704E+03  0.91185761847E+02 0.  0.
         11    1    3    3    0    0 -0.97803399602E+02 -0.28450288609E+03  0.82973419135E+02  0.31207689028E+03  0.00000000000E+00 0.  1.
        -11    1    3    3    0    0 -0.40648946797E+02 -0.45730457890E+03  0.10708122789E+03  0.47142995675E+03  0.00000000000E+00 0. -1.
         22    1    1    2    0    0  0.13845234640E+03  0.74180746499E+03 -0.64165487783E+03  0.99053942354E+03  0.00000000000E+00 0.  1.
<mgrwt>
<rscale>  0 0.17156041E+04</rscale>
<asrwt>0</asrwt>
<pdfrwt beam="1">  1        2 0.17120358E+00 0.17156041E+04</pdfrwt>
<pdfrwt beam="2">  1       -2 0.10172662E+00 0.17156041E+04</pdfrwt>
<totfact> 0.16126159E+01</totfact>
</mgrwt>
</event>
<event>
 6    1  0.9364335E-007  0.2182466E+04  0.7818608E-02  0.8525762E-01
          1   -1    0    0  501    0  0.00000000000E+00  0.00000000000E+00  0.19079421329E+04  0.19079421329E+04  0.00000000000E+00 0. -1.
         -1   -1    0    0    0  501 -0.00000000000E+00 -0.00000000000E+00 -0.62412224270E+03  0.62412224270E+03  0.00000000000E+00 0.  1.
         23    2    1    2    0    0 -0.22829375919E+03  0.74866406430E+03 -0.23602809578E+03  0.82251653418E+03  0.90599477617E+02 0.  0.
         13    1    3    3    0    0 -0.38992155700E+02  0.59300603669E+02 -0.38992342645E+02  0.80977481972E+02  0.00000000000E+00 0. -1.
        -13    1    3    3    0    0 -0.18930160349E+03  0.68936346063E+03 -0.19703575313E+03  0.74153905220E+03  0.00000000000E+00 0.  1.
         22    1    1    2    0    0  0.22829375919E+03 -0.74866406430E+03  0.15198479860E+04  0.17095478415E+04  0.00000000000E+00 0. -1.
<mgrwt>
<rscale>  0 0.21824657E+04</rscale>
<asrwt>0</asrwt>
<pdfrwt beam="1">  1        1 0.29352956E+00 0.21824657E+04</pdfrwt>
<pdfrwt beam="2">  1       -1 0.96018807E-01 0.21824657E+04</pdfrwt>
<totfact> 0.32840595E+00</totfact>
</mgrwt>
</event>
<event>
 6    1  0.9364335E-007  0.7554936E+03  0.7818608E-02  0.9626771E-01
          2   -1    0    0  501    0  0.00000000000E+00  0.00000000000E+00  0.13509879631E+04  0.13509879631E+04  0.00000000000E+00 0. -1.
         -2   -1    0    0    0  501 -0.00000000000E+00 -0.00000000000E+00 -0.10562094760E+03  0.10562094760E+03  0.00000000000E+00 0.  1.
         23    2    1    2    0    0  0.34971436054E+03  0.45513417232E+02  0.40301247656E+03  0.54340971316E+03  0.92214179935E+02 0.  0.
         11    1    3    3    0    0  0.25209486987E+02 -0.20392692488E+02  0.25493624146E+02  0.41246878830E+02  0.00000000000E+00 0.  1.
        -11    1    3    3    0    0  0.32450487355E+03  0.65906109721E+02  0.37751885242E+03  0.50216283434E+03  0.00000000000E+00 0. -1.
         22    1    1    2    0    0 -0.34971436054E+03 -0.45513417232E+02  0.84235453893E+03  0.91319919753E+03  0.00000000000E+00 0. -1.
<mgrwt>
<rscale>  0 0.75549356E+03</rscale>
<asrwt>0</asrwt>
<pdfrwt beam="1">  1        2 0.20784429E+00 0.75549356E+03</pdfrwt>
<pdfrwt beam="2">  1       -2 0.16249378E-01 0.75549356E+03</pdfrwt>
<totfact> 0.47671020E+02</totfact>
</mgrwt>
</event>
<event>
 6    1  0.9364335E-007  0.3094597E+04  0.7818608E-02  0.8217222E-01
         -1   -1    0    0    0  501 -0.00000000000E+00  0.00000000000E+00  0.16557524910E+04  0.16557524910E+04  0.00000000000E+00 0.  1.
          1   -1    0    0  501    0  0.00000000000E+00 -0.00000000000E+00 -0.14459485015E+04  0.14459485015E+04  0.00000000000E+00 0. -1.
         23    2    1    2    0    0 -0.68847827048E+03  0.52292220376E+03 -0.11794513536E+04  0.14654001740E+04  0.94033050244E+02 0.  0.
         13    1    3    3    0    0 -0.86824912350E+02  0.10887000018E+03 -0.18387944385E+03  0.23065752148E+03  0.00000000000E+00 0. -1.
        -13    1    3    3    0    0 -0.60165335813E+03  0.41405220358E+03 -0.99557190971E+03  0.12347426526E+04  0.00000000000E+00 0.  1.
         22    1    1    2    0    0  0.68847827048E+03 -0.52292220376E+03  0.13892553431E+04  0.16363008184E+04  0.00000000000E+00 0.  1.
<mgrwt>
<rscale>  0 0.30945971E+04</rscale>
<asrwt>0</asrwt>
<pdfrwt beam="1">  1        1 0.22245362E+00 0.30945971E+04</pdfrwt>
<pdfrwt beam="2">  1       -1 0.25473115E+00 0.30945971E+04</pdfrwt>
<totfact> 0.39104717E-01</totfact>
</mgrwt>
</event>
<event>
 6    1  0.9364335E-007  0.2565471E+04  0.7818608E-02  0.8380025E-01
          2   -1    0    0  501    0  0.00000000000E+00  0.00000000000E+00  0.28832355814E+04  0.28832355814E+04  0.00000000000E+00 0. -1.
         -2   -1    0    0    0  501 -0.00000000000E+00 -0.00000000000E+00 -0.57068186180E+03  0.57068186180E+03  0.00000000000E+00 0.  1.
         23    2    1    2    0    0  0.59733300126E+03  0.76823795477E+03  0.35904498547E+02  0.97800792440E+03  0.90631659160E+02 0.  0.
         13    1    3    3    0    0  0.23449720136E+03  0.30581187256E+03 -0.30037115180E+02  0.38653857134E+03  0.00000000000E+00 0.  1.
        -13    1    3    3    0    0  0.36283579989E+03  0.46242608220E+03  0.65941613727E+02  0.59146935306E+03  0.00000000000E+00 0. -1.
         22    1    1    2    0    0 -0.59733300126E+03 -0.76823795477E+03  0.22766492210E+04  0.24759095187E+04  0.00000000000E+00 0. -1.
<mgrwt>
<rscale>  0 0.25654709E+04</rscale>
<asrwt>0</asrwt>
<pdfrwt beam="1">  1        2 0.44357470E+00 0.25654709E+04</pdfrwt>
<pdfrwt beam="2">  1       -2 0.87797211E-01 0.25654709E+04</pdfrwt>
<totfact> 0.20417717E+00</totfact>
</mgrwt>
</event>
<event>
 6    1  0.9364335E-007  0.9589750E+03  0.7818608E-02  0.9354721E-01
          2   -1    0    0  501    0  0.00000000000E+00  0.00000000000E+00  0.94605309579E+03  0.94605309579E+03  0.00000000000E+00 0. -1.
         -2   -1    0    0    0  501 -0.00000000000E+00 -0.00000000000E+00 -0.24301836731E+03  0.24301836731E+03  0.00000000000E+00 0.  1.
         23    2    1    2    0    0  0.43757774548E+03 -0.10910289983E+03  0.16934994789E+03  0.49036038467E+03  0.91630649377E+02 0.  0.
         13    1    3    3    0    0  0.48015852597E+02 -0.43101108553E+02  0.32273487399E+02  0.72144338988E+02  0.00000000000E+00 0. -1.
        -13    1    3    3    0    0  0.38956189289E+03 -0.66001791273E+02  0.13707646049E+03  0.41821604568E+03  0.00000000000E+00 0.  1.
         22    1    1    2    0    0 -0.43757774548E+03  0.10910289983E+03  0.53368478060E+03  0.69871107844E+03  0.00000000000E+00 0. -1.
<mgrwt>
<rscale>  0 0.95897503E+03</rscale>
<asrwt>0</asrwt>
<pdfrwt beam="1">  1        2 0.14554663E+00 0.95897503E+03</pdfrwt>
<pdfrwt beam="2">  1       -2 0.37387442E-01 0.95897503E+03</pdfrwt>
<totfact> 0.18413476E+02</totfact>
</mgrwt>
</event>
<event>
 6    1  0.9364335E-007  0.2848570E+04  0.7818608E-02  0.8288346E-01
         -1   -1    0    0    0  501 -0.00000000000E+00  0.00000000000E+00  0.52360258524E+03  0.52360258524E+03  0.00000000000E+00 0.  1.
          1   -1    0    0  501    0  0.00000000000E+00 -0.00000000000E+00 -0.38742884835E+04  0.38742884835E+04  0.00000000000E+00 0. -1.
         23    2    1    2    0    0 -0.10096188786E+04  0.92710053483E+02 -0.32182589356E+04  0.33754125436E+04  0.91070460222E+02 0.  0.
         11    1    3    3    0    0 -0.72600411831E+03  0.44113049937E+02 -0.24160457758E+04  0.25231538066E+04  0.00000000000E+00 0.  1.
        -11    1    3    3    0    0 -0.28361476025E+03  0.48597003547E+02 -0.80221315984E+03  0.85225873701E+03  0.00000000000E+00 0. -1.
         22    1    1    2    0    0  0.10096188786E+04 -0.92710053483E+02 -0.13242696263E+03  0.10224785251E+04  0.00000000000E+00 0.  1.
<mgrwt>
<rscale>  0 0.28485698E+04</rscale>
<asrwt>0</asrwt>
<pdfrwt beam="1">  1        1 0.59604438E+00 0.28485698E+04</pdfrwt>
<pdfrwt beam="2">  1       -1 0.80554244E-01 0.28485698E+04</pdfrwt>
<totfact> 0.16340460E-01</totfact>
</mgrwt>
</event>
<event>
 6    1  0.9364335E-007  0.1386398E+04  0.7818608E-02  0.8963723E-01
         -1   -1    0    0    0  501 -0.00000000000E+00  0.00000000000E+00  0.31568911742E+03  0.31568911742E+03  0.00000000000E+00 0.  1.
          1   -1    0    0  501    0  0.00000000000E+00 -0.00000000000E+00 -0.15221465774E+04  0.15221465774E+04  0.00000000000E+00 0. -1.
         23    2    1    2    0    0 -0.49726313647E+03  0.47499379992E+03 -0.68358502213E+03  0.97395762293E+03  0.91734573222E+02 0.  0.
         13    1    3    3    0    0 -0.15523902830E+03  0.17779810791E+03 -0.28886232025E+03  0.37303185272E+03  0.00000000000E+00 0. -1.
        -13    1    3    3    0    0 -0.34202410817E+03  0.29719569201E+03 -0.39472270188E+03  0.60092577020E+03  0.00000000000E+00 0.  1.
         22    1    1    2    0    0  0.49726313647E+03 -0.47499379992E+03 -0.52287243789E+03  0.86387807193E+03  0.00000000000E+00 0. -1.
<mgrwt>
<rscale>  0 0.13863984E+04</rscale>
<asrwt>0</asrwt>
<pdfrwt beam="1">  1        1 0.23417640E+00 0.13863984E+04</pdfrwt>
<pdfrwt beam="2">  1       -1 0.48567557E-01 0.13863984E+04</pdfrwt>
<totfact> 0.26143738E+01</totfact>
</mgrwt>
</event>
<event>
 6    1  0.9364335E-007  0.3090348E+04  0.7818608E-02  0.8218392E-01
         -2   -1    0    0    0  501 -0.00000000000E+00  0.00000000000E+00  0.18814019382E+04  0.18814019382E+04  0.00000000000E+00 0.  1.
          2   -1    0    0  501    0  0.00000000000E+00 -0.00000000000E+00 -0.12690340610E+04  0.12690340610E+04  0.00000000000E+00 0. -1.
         23    2    1    2    0    0  0.10071765272E+04  0.97672536110E+03  0.96318254169E+03  0.17042451692E+04  0.91290745970E+02 0.  0.
         13    1    3    3    0    0  0.15336345603E+03  0.19004061751E+03  0.18926087481E+03  0.30895867795E+03  0.00000000000E+00 0.  1.
        -13    1    3    3    0    0  0.85381307116E+03  0.78668474358E+03  0.77392166689E+03  0.13952864913E+04  0.00000000000E+00 0. -1.
         22    1    1    2    0    0 -0.10071765272E+04 -0.97672536110E+03 -0.35081466455E+03  0.14461908300E+04  0.00000000000E+00 0.  1.
<mgrwt>
<rscale>  0 0.30903483E+04</rscale>
<asrwt>0</asrwt>
<pdfrwt beam="1">  1        2 0.19523601E+00 0.30903483E+04</pdfrwt>
<pdfrwt beam="2">  1       -2 0.28944645E+00 0.30903483E+04</pdfrwt>
<totfact> 0.54004450E-01</totfact>
</mgrwt>
</event>
<event>
 6    1  0.9364335E-007  0.3579948E+04  0.7818608E-02  0.8095100E-01
          2   -1    0    0  501    0  0.00000000000E+00  0.00000000000E+00  0.26394991349E+04  0.26394991349E+04  0.00000000000E+00 0. -1.
         -2   -1    0    0    0  501 -0.00000000000E+00 -0.00000000000E+00 -0.12138695720E+04  0.12138695720E+04  0.00000000000E+00 0.  1.
         23    2    1    2    0    0  0.11350197609E+04  0.26075833189E+01  0.22014499721E+04  0.24785327296E+04  0.92010081322E+02 0.  0.
         11    1    3    3    0    0  0.90790593793E+03  0.38021213556E+02  0.17388096458E+04  0.19619372541E+04  0.00000000000E+00 0.  1.
        -11    1    3    3    0    0  0.22711382299E+03 -0.35413630237E+02  0.46264032630E+03  0.51659547551E+03  0.00000000000E+00 0. -1.
         22    1    1    2    0    0 -0.11350197609E+04 -0.26075833189E+01 -0.77582040915E+03  0.13748359773E+04  0.00000000000E+00 0.  1.
<mgrwt>
<rscale>  0 0.35799484E+04</rscale>
<asrwt>0</asrwt>
<pdfrwt beam="1">  1        2 0.40607679E+00 0.35799484E+04</pdfrwt>
<pdfrwt beam="2">  1       -2 0.18674917E+00 0.35799484E+04</pdfrwt>
<totfact> 0.38380942E-01</totfact>
</mgrwt>
</event>
<event>
 6    1  0.9364335E-007  0.2534815E+04  0.7818608E-02  0.8390686E-01
          2   -1    0    0  501    0  0.00000000000E+00  0.00000000000E+00  0.17147836568E+04  0.17147836568E+04  0.00000000000E+00 0. -1.
         -2   -1    0    0    0  501 -0.00000000000E+00 -0.00000000000E+00 -0.93674893552E+03  0.93674893552E+03  0.00000000000E+00 0.  1.
         23    2    1    2    0    0  0.12601630703E+04 -0.75539541082E+02  0.29282017201E+03  0.12990717445E+04  0.90147423993E+02 0.  0.
         11    1    3    3    0    0  0.83494098085E+03 -0.85986520404E+02  0.21782235774E+03  0.86716013672E+03  0.00000000000E+00 0. -1.
        -11    1    3    3    0    0  0.42522208950E+03  0.10446979322E+02  0.74997814272E+02  0.43191160777E+03  0.00000000000E+00 0.  1.
         22    1    1    2    0    0 -0.12601630703E+04  0.75539541082E+02  0.48521454930E+03  0.13524608479E+04  0.00000000000E+00 0. -1.
<mgrwt>
<rscale>  0 0.25348150E+04</rscale>
<asrwt>0</asrwt>
<pdfrwt beam="1">  1        2 0.26381287E+00 0.25348150E+04</pdfrwt>
<pdfrwt beam="2">  1       -2 0.14411522E+00 0.25348150E+04</pdfrwt>
<totfact> 0.28500738E+00</totfact>
</mgrwt>
</event>
<event>
 6    1  0.9364335E-007  0.1543469E+04  0.7818608E-02  0.8856050E-01
         -1   -1    0    0    0  501 -0.00000000000E+00  0.00000000000E+00  0.78839993665E+03  0.78839993665E+03  0.00000000000E+00 0.  1.
          1   -1    0    0  501    0  0.00000000000E+00 -0.00000000000E+00 -0.75542095902E+03  0.75542095902E+03  0.00000000000E+00 0. -1.
         23    2    1    2    0    0 -0.62059289827E+03  0.41516299499E+03  0.20121386295E+03  0.77844593238E+03  0.89415844298E+02 0.  0.
         13    1    3    3    0    0 -0.30530040234E+03  0.25499718933E+03  0.12158011656E+03  0.41594906777E+03  0.00000000000E+00 0. -1.
        -13    1    3    3    0    0 -0.31529249593E+03  0.16016580566E+03  0.79633746392E+02  0.36249686462E+03  0.00000000000E+00 0.  1.
         22    1    1    2    0    0  0.62059289827E+03 -0.41516299499E+03 -0.16823488532E+03  0.76537496329E+03  0.00000000000E+00 0. -1.
<mgrwt>
<rscale>  0 0.15434686E+04</rscale>
<asrwt>0</asrwt>
<pdfrwt beam="1">  1        1 0.11621861E+00 0.15434686E+04</pdfrwt>
<pdfrwt beam="2">  1       -1 0.12129230E+00 0.15434686E+04</pdfrwt>
<totfact> 0.14080736E+01</totfact>
</mgrwt>
</event>
<event>
 6    1  0.9364335E-007  0.1947569E+04  0.7818608E-02  0.8631534E-01
          2   -1    0    0  501    0  0.00000000000E+00  0.00000000000E+00  0.23099239951E+04  0.23099239951E+04  0.00000000000E+00 0. -1.
         -2   -1    0    0    0  501 -0.00000000000E+00 -0.00000000000E+00 -0.41051387163E+03  0.41051387163E+03  0.00000000000E+00 0.  1.
         23    2    1    2    0    0 -0.82076644367E+03  0.48884102962E+03  0.70620531050E+03  0.11919219744E+04  0.96586465259E+02 0.  0.
         11    1    3    3    0    0 -0.35500946078E+03  0.21640300131E+03  0.36701027802E+03  0.55457958887E+03  0.00000000000E+00 0.  1.
        -11    1    3    3    0    0 -0.46575698289E+03  0.27243802830E+03  0.33919503248E+03  0.63734238557E+03  0.00000000000E+00 0. -1.
         22    1    1    2    0    0  0.82076644367E+03 -0.48884102962E+03  0.11932048130E+04  0.15285158923E+04  0.00000000000E+00 0. -1.
<mgrwt>
<rscale>  0 0.19475686E+04</rscale>
<asrwt>0</asrwt>
<pdfrwt beam="1">  1        2 0.35537291E+00 0.19475686E+04</pdfrwt>
<pdfrwt beam="2">  1       -2 0.63155982E-01 0.19475686E+04</pdfrwt>
<totfact> 0.96984597E+00</totfact>
</mgrwt>
</event>
<event>
 6    1  0.9364335E-007  0.1946235E+04  0.7818608E-02  0.8632179E-01
          2   -1    0    0  501    0  0.00000000000E+00  0.00000000000E+00  0.30579787400E+04  0.30579787400E+04  0.00000000000E+00 0. -1.
         -2   -1    0    0    0  501 -0.00000000000E+00 -0.00000000000E+00 -0.30966779667E+03  0.30966779667E+03  0.00000000000E+00 0.  1.
         23    2    1    2    0    0 -0.11115077655E+03  0.60172609375E+03  0.73112688396E+02  0.62335892598E+03  0.93819498843E+02 0.  0.
         13    1    3    3    0    0 -0.85118732003E+02  0.22449402532E+03  0.44221035015E+02  0.24412756067E+03  0.00000000000E+00 0.  1.
        -13    1    3    3    0    0 -0.26032044549E+02  0.37723206843E+03  0.28891653382E+02  0.37923136531E+03  0.00000000000E+00 0. -1.
         22    1    1    2    0    0  0.11115077655E+03 -0.60172609375E+03  0.26751982549E+04  0.27442876107E+04  0.00000000000E+00 0. -1.
<mgrwt>
<rscale>  0 0.19462349E+04</rscale>
<asrwt>0</asrwt>
<pdfrwt beam="1">  1        2 0.47045825E+00 0.19462349E+04</pdfrwt>
<pdfrwt beam="2">  1       -2 0.47641202E-01 0.19462349E+04</pdfrwt>
<totfact> 0.62544408E+00</totfact>
</mgrwt>
</event>
<event>
 6    1  0.1160494E-006  0.3924448E+04  0.7818608E-02  0.8019964E-01
         -1   -1    0    0    0  501 -0.00000000000E+00  0.00000000000E+00  0.15686766715E+04  0.15686766715E+04  0.00000000000E+00 0.  1.
          1   -1    0    0  501    0  0.00000000000E+00 -0.00000000000E+00 -0.24545035248E+04  0.24545035248E+04  0.00000000000E+00 0. -1.
         23    2    1    2    0    0  0.55503842799E+03  0.16228584070E+04 -0.14179895544E+04  0.22273700152E+04  0.93518674152E+02 0.  0.
         11    1    3    3    0    0  0.30284691978E+03  0.98469552740E+03 -0.80851449431E+03  0.13095942983E+04  0.00000000000E+00 0. -1.
        -11    1    3    3    0    0  0.25219150821E+03  0.63816287963E+03 -0.60947506010E+03  0.91777571696E+03  0.00000000000E+00 0.  1.
         22    1    1    2    0    0 -0.55503842799E+03 -0.16228584070E+04  0.53216270110E+03  0.17958101810E+04  0.00000000000E+00 0.  1.
<mgrwt>
<rscale>  0 0.39244477E+04</rscale>
<asrwt>0</asrwt>
<pdfrwt beam="1">  1        1 0.37761592E+00 0.39244477E+04</pdfrwt>
<pdfrwt beam="2">  1       -1 0.24133487E+00 0.39244477E+04</pdfrwt>
<totfact> 0.91149818E-02</totfact>
</mgrwt>
</event>
<event>
 6    1  0.9364335E-007  0.4629600E+04  0.7818608E-02  0.7888332E-01
         -1   -1    0    0    0  501 -0.00000000000E+00  0.00000000000E+00  0.12432579376E+04  0.12432579376E+04  0.00000000000E+00 0.  1.
          1   -1    0    0  501    0  0.00000000000E+00 -0.00000000000E+00 -0.43098854326E+04  0.43098854326E+04  0.00000000000E+00 0. -1.
         23    2    1    2    0    0  0.13899517562E+04 -0.10854453677E+04  0.26329832115E+03  0.17850452462E+04  0.83084259586E+02 0.  0.
         11    1    3    3    0    0  0.98030602294E+03 -0.74139923738E+03  0.21684882260E+03  0.12480769767E+04  0.00000000000E+00 0.  1.
        -11    1    3    3    0    0  0.40964573325E+03 -0.34404613030E+03  0.46449498548E+02  0.53696826951E+03  0.00000000000E+00 0. -1.
         22    1    1    2    0    0 -0.13899517562E+04  0.10854453677E+04 -0.33299258162E+04  0.37680981240E+04  0.00000000000E+00 0. -1.
<mgrwt>
<rscale>  0 0.46296001E+04</rscale>
<asrwt>0</asrwt>
<pdfrwt beam="1">  1        1 0.66305931E+00 0.46296001E+04</pdfrwt>
<pdfrwt beam="2">  1       -1 0.19127045E+00 0.46296001E+04</pdfrwt>
<totfact> 0.63718127E-03</totfact>
</mgrwt>
</event>
<event>
 6    1  0.9364335E-007  0.2392735E+04  0.7818608E-02  0.8442228E-01
         -2   -1    0    0    0  501 -0.00000000000E+00  0.00000000000E+00  0.61252348688E+03  0.61252348688E+03  0.00000000000E+00 0.  1.
          2   -1    0    0  501    0  0.00000000000E+00 -0.00000000000E+00 -0.23367193367E+04  0.23367193367E+04  0.00000000000E+00 0. -1.
         23    2    1    2    0    0  0.59897717020E+03 -0.56543249326E+03  0.20322454284E+03  0.85319012271E+03  0.90253065438E+02 0.  0.
         13    1    3    3    0    0  0.26808713216E+03 -0.29089258072E+03  0.60625773821E+02  0.40020580755E+03  0.00000000000E+00 0. -1.
        -13    1    3    3    0    0  0.33089003804E+03 -0.27453991253E+03  0.14259876902E+03  0.45298431515E+03  0.00000000000E+00 0.  1.
         22    1    1    2    0    0 -0.59897717020E+03  0.56543249326E+03 -0.19274203927E+04  0.20960527009E+04  0.00000000000E+00 0. -1.
<mgrwt>
<rscale>  0 0.23927352E+04</rscale>
<asrwt>0</asrwt>
<pdfrwt beam="1">  1        2 0.35949528E+00 0.23927352E+04</pdfrwt>
<pdfrwt beam="2">  1       -2 0.94234383E-01 0.23927352E+04</pdfrwt>
<totfact> 0.36919772E+00</totfact>
</mgrwt>
</event>
<event>
 6    1  0.9364335E-007  0.1277896E+04  0.7818608E-02  0.9047279E-01
         -1   -1    0    0    0  501 -0.00000000000E+00  0.00000000000E+00  0.67791351516E+03  0.67791351516E+03  0.00000000000E+00 0.  1.
          1   -1    0    0  501    0  0.00000000000E+00 -0.00000000000E+00 -0.60222260354E+03  0.60222260354E+03  0.00000000000E+00 0. -1.
         23    2    1    2    0    0  0.61966822539E+03  0.64038795353E+02 -0.89323321632E+02  0.63568334771E+03  0.89582285672E+02 0.  0.
         13    1    3    3    0    0  0.29509233845E+03  0.35518201821E+02 -0.87562930100E+02  0.30985205760E+03  0.00000000000E+00 0.  1.
        -13    1    3    3    0    0  0.32457588693E+03  0.28520593532E+02 -0.17603915318E+01  0.32583129011E+03  0.00000000000E+00 0. -1.
         22    1    1    2    0    0 -0.61966822539E+03 -0.64038795353E+02  0.16501423325E+03  0.64445277099E+03  0.00000000000E+00 0. -1.
<mgrwt>
<rscale>  0 0.12778965E+04</rscale>
<asrwt>0</asrwt>
<pdfrwt beam="1">  1        1 0.92649632E-01 0.12778965E+04</pdfrwt>
<pdfrwt beam="2">  1       -1 0.10429439E+00 0.12778965E+04</pdfrwt>
<totfact> 0.29008852E+01</totfact>
</mgrwt>
</event>
<event>
 6    1  0.9364335E-007  0.1950720E+04  0.7818608E-02  0.8630014E-01
         -2   -1    0    0    0  501 -0.00000000000E+00  0.00000000000E+00  0.62767290902E+03  0.62767290902E+03  0.00000000000E+00 0.  1.
          2   -1    0    0  501    0  0.00000000000E+00 -0.00000000000E+00 -0.15156415365E+04  0.15156415365E+04  0.00000000000E+00 0. -1.
         23    2    1    2    0    0  0.32601141477E+01  0.31767854271E+03 -0.14556914513E+04  0.14927458561E+04  0.91226666475E+02 0.  0.
         13    1    3    3    0    0  0.21308318108E+02  0.99212176168E+02 -0.64528914825E+03  0.65321909431E+03  0.00000000000E+00 0.  1.
        -13    1    3    3    0    0 -0.18048203961E+02  0.21846636655E+03 -0.81040230306E+03  0.83952676181E+03  0.00000000000E+00 0. -1.
         22    1    1    2    0    0 -0.32601141477E+01 -0.31767854271E+03  0.56772282383E+03  0.65056858942E+03  0.00000000000E+00 0.  1.
<mgrwt>
<rscale>  0 0.19507200E+04</rscale>
<asrwt>0</asrwt>
<pdfrwt beam="1">  1        2 0.23317562E+00 0.19507200E+04</pdfrwt>
<pdfrwt beam="2">  1       -2 0.96565063E-01 0.19507200E+04</pdfrwt>
<totfact> 0.10407664E+01</totfact>
</mgrwt>
</event>
<event>
 6    1  0.9364335E-007  0.4449617E+04  0.7818608E-02  0.7919517E-01
         -1   -1    0    0    0  501 -0.00000000000E+00  0.00000000000E+00  0.24210415465E+04  0.24210415465E+04  0.00000000000E+00 0.  1.
          1   -1    0    0  501    0  0.00000000000E+00 -0.00000000000E+00 -0.20444809114E+04  0.20444809114E+04  0.00000000000E+00 0. -1.
         23    2    1    2    0    0  0.33925283381E+03  0.15025332646E+04 -0.14214175856E+04  0.20979447128E+04  0.90804013241E+02 0.  0.
         11    1    3    3    0    0  0.14535350518E+03  0.57128113166E+03 -0.60029012287E+03  0.84133109087E+03  0.00000000000E+00 0. -1.
        -11    1    3    3    0    0  0.19389932863E+03  0.93125213296E+03 -0.82112746277E+03  0.12566136220E+04  0.00000000000E+00 0.  1.
         22    1    1    2    0    0 -0.33925283381E+03 -0.15025332646E+04  0.17979782207E+04  0.23675777450E+04  0.00000000000E+00 0.  1.
<mgrwt>
<rscale>  0 0.44496172E+04</rscale>
<asrwt>0</asrwt>
<pdfrwt beam="1">  1        1 0.31453552E+00 0.44496172E+04</pdfrwt>
<pdfrwt beam="2">  1       -1 0.37246793E+00 0.44496172E+04</pdfrwt>
<totfact> 0.23062168E-02</totfact>
</mgrwt>
</event>
<event>
 6    1  0.9364335E-007  0.3886392E+04  0.7818608E-02  0.8027865E-01
          2   -1    0    0  501    0  0.00000000000E+00  0.00000000000E+00  0.32865271361E+04  0.32865271361E+04  0.00000000000E+00 0. -1.
         -2   -1    0    0    0  501 -0.00000000000E+00 -0.00000000000E+00 -0.11489363832E+04  0.11489363832E+04  0.00000000000E+00 0.  1.
         23    2    1    2    0    0  0.55549611786E+03 -0.90799358430E+03  0.29233765036E+04  0.31124036067E+04  0.88869246745E+02 0.  0.
         11    1    3    3    0    0  0.17198270487E+03 -0.23813358910E+03  0.71340822179E+03  0.77151600629E+03  0.00000000000E+00 0.  1.
        -11    1    3    3    0    0  0.38351341299E+03 -0.66985999520E+03  0.22099682818E+04  0.23408876004E+04  0.00000000000E+00 0. -1.
         22    1    1    2    0    0 -0.55549611786E+03  0.90799358430E+03 -0.78578575072E+03  0.13230599125E+04  0.00000000000E+00 0.  1.
<mgrwt>
<rscale>  0 0.38863920E+04</rscale>
<asrwt>0</asrwt>
<pdfrwt beam="1">  1        2 0.50561955E+00 0.38863920E+04</pdfrwt>
<pdfrwt beam="2">  1       -2 0.17675945E+00 0.38863920E+04</pdfrwt>
<totfact> 0.17268870E-01</totfact>
</mgrwt>
</event>
<event>
 6    1  0.9364335E-007  0.5944270E+04  0.7818608E-02  0.7697350E-01
         -1   -1    0    0    0  501 -0.00000000000E+00  0.00000000000E+00  0.20518217914E+04  0.20518217914E+04  0.00000000000E+00 0.  1.
          1   -1    0    0  501    0  0.00000000000E+00 -0.00000000000E+00 -0.43052406179E+04  0.43052406179E+04  0.00000000000E+00 0. -1.
         23    2    1    2    0    0  0.15542295908E+04 -0.24987084988E+04 -0.68622005728E+03  0.30231029366E+04  0.95287017628E+02 0.  0.
         11    1    3    3    0    0  0.44877754529E+03 -0.65841122578E+03 -0.15899625772E+03  0.81251857662E+03  0.00000000000E+00 0.  1.
        -11    1    3    3    0    0  0.11054520455E+04 -0.18402972730E+04 -0.52722379955E+03  0.22105843600E+04  0.00000000000E+00 0. -1.
         22    1    1    2    0    0 -0.15542295908E+04  0.24987084988E+04 -0.15671987693E+04  0.33339594727E+04  0.00000000000E+00 0.  1.
<mgrwt>
<rscale>  0 0.59442700E+04</rscale>
<asrwt>0</asrwt>
<pdfrwt beam="1">  1        1 0.66234470E+00 0.59442700E+04</pdfrwt>
<pdfrwt beam="2">  1       -1 0.31566490E+00 0.59442700E+04</pdfrwt>
<totfact> 0.87565256E-04</totfact>
</mgrwt>
</event>
<event>
 6    1  0.1594976E-006  0.3972486E+04  0.7818608E-02  0.8010120E-01
          1   -1    0    0  501    0  0.00000000000E+00  0.00000000000E+00  0.19131875207E+04  0.19131875207E+04  0.00000000000E+00 0. -1.
         -1   -1    0    0    0  501 -0.00000000000E+00 -0.00000000000E+00 -0.20620880998E+04  0.20620880998E+04  0.00000000000E+00 0.  1.
         23    2    1    2    0    0 -0.19475406859E+04 -0.37866467043E+03  0.10456683324E+02  0.19848745572E+04  0.57584804828E+02 0.  0.
         11    1    3    3    0    0 -0.11593570224E+04 -0.25343636621E+03  0.12629419403E+02  0.11868016681E+04  0.00000000000E+00 0. -1.
        -11    1    3    3    0    0 -0.78818366348E+03 -0.12522830422E+03 -0.21727360795E+01  0.79807288911E+03  0.00000000000E+00 0.  1.
         22    1    1    2    0    0  0.19475406859E+04  0.37866467043E+03 -0.15935726239E+03  0.19904010633E+04  0.00000000000E+00 0. -1.
<mgrwt>
<rscale>  0 0.39724860E+04</rscale>
<asrwt>0</asrwt>
<pdfrwt beam="1">  1        1 0.29433654E+00 0.39724860E+04</pdfrwt>
<pdfrwt beam="2">  1       -1 0.31724433E+00 0.39724860E+04</pdfrwt>
<totfact> 0.68285996E-02</totfact>
</mgrwt>
</event>
<event>
 6    1  0.9364335E-007  0.3422387E+04  0.7818608E-02  0.8132434E-01
         -2   -1    0    0    0  501 -0.00000000000E+00  0.00000000000E+00  0.93843490630E+03  0.93843490630E+03  0.00000000000E+00 0.  1.
          2   -1    0    0  501    0  0.00000000000E+00 -0.00000000000E+00 -0.31202842928E+04  0.31202842928E+04  0.00000000000E+00 0. -1.
         23    2    1    2    0    0  0.24537834869E+03 -0.16922191353E+04 -0.10826414201E+04  0.20259687743E+04  0.92848769114E+02 0.  0.
         13    1    3    3    0    0  0.11350308576E+03 -0.93980882818E+03 -0.55136927334E+03  0.10955052075E+04  0.00000000000E+00 0.  1.
        -13    1    3    3    0    0  0.13187526293E+03 -0.75241030716E+03 -0.53127214673E+03  0.93046356683E+03  0.00000000000E+00 0. -1.
         22    1    1    2    0    0 -0.24537834869E+03  0.16922191353E+04 -0.10992079664E+04  0.20327504248E+04  0.00000000000E+00 0. -1.
<mgrwt>
<rscale>  0 0.34223873E+04</rscale>
<asrwt>0</asrwt>
<pdfrwt beam="1">  1        2 0.48004373E+00 0.34223873E+04</pdfrwt>
<pdfrwt beam="2">  1       -2 0.14437460E+00 0.34223873E+04</pdfrwt>
<totfact> 0.39989031E-01</totfact>
</mgrwt>
</event>
<event>
 6    1  0.9364335E-007  0.3021697E+04  0.7818608E-02  0.8237562E-01
          2   -1    0    0  501    0  0.00000000000E+00  0.00000000000E+00  0.15446059129E+04  0.15446059129E+04  0.00000000000E+00 0. -1.
         -2   -1    0    0    0  501 -0.00000000000E+00 -0.00000000000E+00 -0.14778285559E+04  0.14778285559E+04  0.00000000000E+00 0.  1.
         23    2    1    2    0    0 -0.14071485885E+04 -0.42646564068E+03  0.37567706298E+03  0.15199834309E+04  0.85301124502E+02 0.  0.
         11    1    3    3    0    0 -0.11727915558E+04 -0.38069941202E+03  0.29381025394E+03  0.12675553404E+04  0.00000000000E+00 0. -1.
        -11    1    3    3    0    0 -0.23435703271E+03 -0.45766228660E+02  0.81866809039E+02  0.25242809053E+03  0.00000000000E+00 0.  1.
         22    1    1    2    0    0  0.14071485885E+04  0.42646564068E+03 -0.30889970601E+03  0.15024510379E+04  0.00000000000E+00 0.  1.
<mgrwt>
<rscale>  0 0.30216967E+04</rscale>
<asrwt>0</asrwt>
<pdfrwt beam="1">  1        2 0.23763168E+00 0.30216967E+04</pdfrwt>
<pdfrwt beam="2">  1       -2 0.22735824E+00 0.30216967E+04</pdfrwt>
<totfact> 0.90927581E-01</totfact>
</mgrwt>
</event>
<event>
 6    1  0.9364335E-007  0.2842100E+04  0.7818608E-02  0.8290316E-01
          1   -1    0    0  501    0  0.00000000000E+00  0.00000000000E+00  0.30199609722E+04  0.30199609722E+04  0.00000000000E+00 0. -1.
         -1   -1    0    0    0  501 -0.00000000000E+00 -0.00000000000E+00 -0.66867875973E+03  0.66867875973E+03  0.00000000000E+00 0.  1.
         23    2    1    2    0    0 -0.62791401361E+03  0.70653629182E+03  0.25506166945E+04  0.27226150035E+04  0.11626433233E+03 0.  0.
         11    1    3    3    0    0 -0.31689539299E+03  0.39866434345E+03  0.12255307946E+04  0.13271328785E+04  0.00000000000E+00 0. -1.
        -11    1    3    3    0    0 -0.31101862063E+03  0.30787194837E+03  0.13250858999E+04  0.13954821250E+04  0.00000000000E+00 0.  1.
         22    1    1    2    0    0  0.62791401361E+03 -0.70653629182E+03 -0.19933448204E+03  0.96602472840E+03  0.00000000000E+00 0.  1.
<mgrwt>
<rscale>  0 0.28421005E+04</rscale>
<asrwt>0</asrwt>
<pdfrwt beam="1">  1        1 0.46460937E+00 0.28421005E+04</pdfrwt>
<pdfrwt beam="2">  1       -1 0.10287366E+00 0.28421005E+04</pdfrwt>
<totfact> 0.44486896E-01</totfact>
</mgrwt>
</event>
<event>
 6    1  0.9364335E-007  0.6017924E+03  0.7818608E-02  0.9901694E-01
          2   -1    0    0  501    0  0.00000000000E+00  0.00000000000E+00  0.36809771501E+03  0.36809771501E+03  0.00000000000E+00 0. -1.
         -2   -1    0    0    0  501 -0.00000000000E+00 -0.00000000000E+00 -0.24596331704E+03  0.24596331704E+03  0.00000000000E+00 0.  1.
         23    2    1    2    0    0 -0.78890737478E+02  0.23400224194E+03 -0.10077819939E+03  0.28138878531E+03  0.89680573887E+02 0.  0.
         11    1    3    3    0    0 -0.83686890287E+02  0.21551183368E+03 -0.63902472803E+02  0.23985906715E+03  0.00000000000E+00 0. -1.
        -11    1    3    3    0    0  0.47961528084E+01  0.18490408256E+02 -0.36875726583E+02  0.41529718158E+02  0.00000000000E+00 0.  1.
         22    1    1    2    0    0  0.78890737478E+02 -0.23400224194E+03  0.22291259735E+03  0.33267224674E+03  0.00000000000E+00 0. -1.
<mgrwt>
<rscale>  0 0.60179244E+03</rscale>
<asrwt>0</asrwt>
<pdfrwt beam="1">  1        2 0.56630418E-01 0.60179244E+03</pdfrwt>
<pdfrwt beam="2">  1       -2 0.37840510E-01 0.60179244E+03</pdfrwt>
<totfact> 0.57964966E+02</totfact>
</mgrwt>
</event>
<event>
 6    1  0.9364335E-007  0.2515575E+04  0.7818608E-02  0.8397458E-01
         -2   -1    0    0    0  501 -0.00000000000E+00  0.00000000000E+00  0.10976016693E+04  0.10976016693E+04  0.00000000000E+00 0.  1.
          2   -1    0    0  501    0  0.00000000000E+00 -0.00000000000E+00 -0.14413514067E+04  0.14413514067E+04  0.00000000000E+00 0. -1.
         23    2    1    2    0    0  0.93121846848E+03 -0.15102830901E+03 -0.10090701135E+04  0.13845577412E+04  0.93809693493E+02 0.  0.
         11    1    3    3    0    0  0.34126882668E+03 -0.12377141466E+02 -0.38588886302E+03  0.51529391642E+03  0.00000000000E+00 0. -1.
        -11    1    3    3    0    0  0.58994964180E+03 -0.13865116754E+03 -0.62318125043E+03  0.86926382474E+03  0.00000000000E+00 0.  1.
         22    1    1    2    0    0 -0.93121846848E+03  0.15102830901E+03  0.66532037611E+03  0.11543953348E+04  0.00000000000E+00 0.  1.
<mgrwt>
<rscale>  0 0.25155753E+04</rscale>
<asrwt>0</asrwt>
<pdfrwt beam="1">  1        2 0.22174637E+00 0.25155753E+04</pdfrwt>
<pdfrwt beam="2">  1       -2 0.16886180E+00 0.25155753E+04</pdfrwt>
<totfact> 0.26512367E+00</totfact>
</mgrwt>
</event>
<event>
 6    1  0.9364335E-007  0.6956523E+03  0.7818608E-02  0.9724696E-01
         -1   -1    0    0    0  501 -0.00000000000E+00  0.00000000000E+00  0.70149361540E+02  0.70149361540E+02  0.00000000000E+00 0.  1.
          1   -1    0    0  501    0  0.00000000000E+00 -0.00000000000E+00 -0.17246490863E+04  0.17246490863E+04  0.00000000000E+00 0. -1.
         23    2    1    2    0    0  0.32081968231E+03  0.59054550519E+02 -0.11058045639E+04  0.11564575608E+04  0.90430348483E+02 0.  0.
         11    1    3    3    0    0  0.14676569784E+03  0.70146325363E+02 -0.58700948738E+03  0.60913119711E+03  0.00000000000E+00 0. -1.
        -11    1    3    3    0    0  0.17405398446E+03 -0.11091774844E+02 -0.51879507653E+03  0.54732636371E+03  0.00000000000E+00 0.  1.
         22    1    1    2    0    0 -0.32081968231E+03 -0.59054550519E+02 -0.54869516082E+03  0.63834088699E+03  0.00000000000E+00 0.  1.
<mgrwt>
<rscale>  0 0.69565230E+03</rscale>
<asrwt>0</asrwt>
<pdfrwt beam="1">  1        1 0.26533059E+00 0.69565230E+03</pdfrwt>
<pdfrwt beam="2">  1       -1 0.10792211E-01 0.69565230E+03</pdfrwt>
<totfact> 0.26319935E+02</totfact>
</mgrwt>
</event>
<event>
 6    1  0.9364335E-007  0.2609286E+04  0.7818608E-02  0.8365054E-01
         -2   -1    0    0    0  501 -0.00000000000E+00  0.00000000000E+00  0.11683767582E+04  0.11683767582E+04  0.00000000000E+00 0.  1.
          2   -1    0    0  501    0  0.00000000000E+00 -0.00000000000E+00 -0.14568020200E+04  0.14568020200E+04  0.00000000000E+00 0. -1.
         23    2    1    2    0    0 -0.17416461156E+02  0.57864563229E+03  0.10302386207E+04  0.11850369323E+04  0.88242928974E+02 0.  0.
         13    1    3    3    0    0 -0.52595148986E+01  0.44529391083E+03  0.85986417016E+03  0.96833915580E+03  0.00000000000E+00 0.  1.
        -13    1    3    3    0    0 -0.12156946258E+02  0.13335172146E+03  0.17037445055E+03  0.21669777654E+03  0.00000000000E+00 0. -1.
         22    1    1    2    0    0  0.17416461156E+02 -0.57864563229E+03 -0.13186638826E+04  0.14401418458E+04  0.00000000000E+00 0. -1.
<mgrwt>
<rscale>  0 0.26092862E+04</rscale>
<asrwt>0</asrwt>
<pdfrwt beam="1">  1        2 0.22412339E+00 0.26092862E+04</pdfrwt>
<pdfrwt beam="2">  1       -2 0.17975027E+00 0.26092862E+04</pdfrwt>
<totfact> 0.21613183E+00</totfact>
</mgrwt>
</event>
<event>
 6    1  0.9364335E-007  0.1876383E+04  0.7818608E-02  0.8666702E-01
         -1   -1    0    0    0  501 -0.00000000000E+00  0.00000000000E+00  0.16483036986E+04  0.16483036986E+04  0.00000000000E+00 0.  1.
          1   -1    0    0  501    0  0.00000000000E+00 -0.00000000000E+00 -0.53400541242E+03  0.53400541242E+03  0.00000000000E+00 0. -1.
         23    2    1    2    0    0 -0.83814918336E+03  0.33439004898E+03  0.26928062438E+03  0.94603826399E+03  0.90363620150E+02 0.  0.
         11    1    3    3    0    0 -0.73044610496E+03  0.31793667369E+03  0.22000448439E+03  0.82646065477E+03  0.00000000000E+00 0.  1.
        -11    1    3    3    0    0 -0.10770307840E+03  0.16453375293E+02  0.49276139998E+02  0.11957760922E+03  0.00000000000E+00 0. -1.
         22    1    1    2    0    0  0.83814918336E+03 -0.33439004898E+03  0.84501766176E+03  0.12362708470E+04  0.00000000000E+00 0.  1.
<mgrwt>
<rscale>  0 0.18763828E+04</rscale>
<asrwt>0</asrwt>
<pdfrwt beam="1">  1        1 0.82154680E-01 0.18763828E+04</pdfrwt>
<pdfrwt beam="2">  1       -1 0.25358518E+00 0.18763828E+04</pdfrwt>
<totfact> 0.25046660E+00</totfact>
</mgrwt>
</event>
<event>
 6    1  0.9364335E-007  0.3856083E+04  0.7818608E-02  0.8034226E-01
          2   -1    0    0  501    0  0.00000000000E+00  0.00000000000E+00  0.29762954732E+04  0.29762954732E+04  0.00000000000E+00 0. -1.
         -2   -1    0    0    0  501 -0.00000000000E+00 -0.00000000000E+00 -0.12489836164E+04  0.12489836164E+04  0.00000000000E+00 0.  1.
         23    2    1    2    0    0  0.10454816196E+04  0.61117658140E+03 -0.77829197630E+03  0.14423634963E+04  0.90030131045E+02 0.  0.
         11    1    3    3    0    0  0.97343486541E+03  0.54574377880E+03 -0.73166439898E+03  0.13344453912E+04  0.00000000000E+00 0. -1.
        -11    1    3    3    0    0  0.72046754174E+02  0.65432802604E+02 -0.46627577324E+02  0.10791810511E+03  0.00000000000E+00 0.  1.
         22    1    1    2    0    0 -0.10454816196E+04 -0.61117658140E+03  0.25056038331E+04  0.27829155932E+04  0.00000000000E+00 0. -1.
<mgrwt>
<rscale>  0 0.38560831E+04</rscale>
<asrwt>0</asrwt>
<pdfrwt beam="1">  1        2 0.45789161E+00 0.38560831E+04</pdfrwt>
<pdfrwt beam="2">  1       -2 0.19215133E+00 0.38560831E+04</pdfrwt>
<totfact> 0.21548516E-01</totfact>
</mgrwt>
</event>
<event>
 6    1  0.9364335E-007  0.2296773E+04  0.7818608E-02  0.8479195E-01
          1   -1    0    0  501    0  0.00000000000E+00  0.00000000000E+00  0.14124432447E+04  0.14124432447E+04  0.00000000000E+00 0. -1.
         -1   -1    0    0    0  501 -0.00000000000E+00 -0.00000000000E+00 -0.93369522450E+03  0.93369522450E+03  0.00000000000E+00 0.  1.
         23    2    1    2    0    0  0.73274747061E+03 -0.67580296404E+03 -0.33872987398E+03  0.10569920038E+04  0.94157668699E+02 0.  0.
         11    1    3    3    0    0  0.26764511082E+03 -0.19427825144E+03 -0.89292279275E+02  0.34256540320E+03  0.00000000000E+00 0. -1.
        -11    1    3    3    0    0  0.46510235979E+03 -0.48152471260E+03 -0.24943759471E+03  0.71442660055E+03  0.00000000000E+00 0.  1.
         22    1    1    2    0    0 -0.73274747061E+03  0.67580296404E+03  0.81747789415E+03  0.12891464654E+04  0.00000000000E+00 0. -1.
<mgrwt>
<rscale>  0 0.22967730E+04</rscale>
<asrwt>0</asrwt>
<pdfrwt beam="1">  1        1 0.21729896E+00 0.22967730E+04</pdfrwt>
<pdfrwt beam="2">  1       -1 0.14364542E+00 0.22967730E+04</pdfrwt>
<totfact> 0.26669328E+00</totfact>
</mgrwt>
</event>
<event>
 6    1  0.9364335E-007  0.8705229E+03  0.7818608E-02  0.9463198E-01
          1   -1    0    0  501    0  0.00000000000E+00  0.00000000000E+00  0.62739983756E+03  0.62739983756E+03  0.00000000000E+00 0. -1.
         -1   -1    0    0    0  501 -0.00000000000E+00 -0.00000000000E+00 -0.30196458189E+03  0.30196458189E+03  0.00000000000E+00 0.  1.
         23    2    1    2    0    0 -0.24440635789E+03 -0.26865450787E+03 -0.82177419239E+02  0.38341771405E+03  0.91358102206E+02 0.  0.
         11    1    3    3    0    0 -0.91833087369E+02 -0.16067081900E+03 -0.18665154255E+02  0.18600219353E+03  0.00000000000E+00 0.  1.
        -11    1    3    3    0    0 -0.15257327052E+03 -0.10798368887E+03 -0.63512264984E+02  0.19741552052E+03  0.00000000000E+00 0. -1.
         22    1    1    2    0    0  0.24440635789E+03  0.26865450787E+03  0.40761267492E+03  0.54594670540E+03  0.00000000000E+00 0.  1.
<mgrwt>
<rscale>  0 0.87052290E+03</rscale>
<asrwt>0</asrwt>
<pdfrwt beam="1">  1        1 0.96523052E-01 0.87052290E+03</pdfrwt>
<pdfrwt beam="2">  1       -1 0.46456089E-01 0.87052290E+03</pdfrwt>
<totfact> 0.14931800E+02</totfact>
</mgrwt>
</event>
<event>
 6    1  0.9364335E-007  0.1864233E+04  0.7818608E-02  0.8672867E-01
         -2   -1    0    0    0  501 -0.00000000000E+00  0.00000000000E+00  0.50142864824E+03  0.50142864824E+03  0.00000000000E+00 0.  1.
          2   -1    0    0  501    0  0.00000000000E+00 -0.00000000000E+00 -0.17327320015E+04  0.17327320015E+04  0.00000000000E+00 0. -1.
         23    2    1    2    0    0 -0.90740410816E+02  0.43172651657E+03  0.36360409784E+03  0.57936417137E+03  0.93985615025E+02 0.  0.
         11    1    3    3    0    0  0.96883721790E+01  0.11888119189E+03  0.12862748855E+03  0.17541845157E+03  0.00000000000E+00 0. -1.
        -11    1    3    3    0    0 -0.10042878300E+03  0.31284532468E+03  0.23497660929E+03  0.40394571980E+03  0.00000000000E+00 0.  1.
         22    1    1    2    0    0  0.90740410816E+02 -0.43172651657E+03 -0.15949074511E+04  0.16547964784E+04  0.00000000000E+00 0. -1.
<mgrwt>
<rscale>  0 0.18642333E+04</rscale>
<asrwt>0</asrwt>
<pdfrwt beam="1">  1        2 0.26657415E+00 0.18642333E+04</pdfrwt>
<pdfrwt beam="2">  1       -2 0.77142869E-01 0.18642333E+04</pdfrwt>
<totfact> 0.13245715E+01</totfact>
</mgrwt>
</event>
<event>
 6    1  0.9364335E-007  0.4122511E+04  0.7818608E-02  0.7980278E-01
          2   -1    0    0  501    0  0.00000000000E+00  0.00000000000E+00  0.17724153867E+04  0.17724153867E+04  0.00000000000E+00 0. -1.
         -2   -1    0    0    0  501 -0.00000000000E+00 -0.00000000000E+00 -0.23971661018E+04  0.23971661018E+04  0.00000000000E+00 0.  1.
         23    2    1    2    0    0 -0.14019854794E+04 -0.14765234424E+04 -0.63093584262E+03  0.21334766247E+04  0.89205998548E+02 0.  0.
         11    1    3    3    0    0 -0.84716614898E+03 -0.93349103835E+03 -0.42460897233E+03  0.13301837400E+04  0.00000000000E+00 0.  1.
        -11    1    3    3    0    0 -0.55481933046E+03 -0.54303240410E+03 -0.20632687029E+03  0.80329288479E+03  0.00000000000E+00 0. -1.
         22    1    1    2    0    0  0.14019854794E+04  0.14765234424E+04  0.61851275315E+01  0.20361048638E+04  0.00000000000E+00 0. -1.
<mgrwt>
<rscale>  0 0.41225109E+04</rscale>
<asrwt>0</asrwt>
<pdfrwt beam="1">  1        2 0.27267929E+00 0.41225109E+04</pdfrwt>
<pdfrwt beam="2">  1       -2 0.36879478E+00 0.41225109E+04</pdfrwt>
<totfact> 0.82491940E-02</totfact>
</mgrwt>
</event>
<event>
 6    1  0.9364335E-007  0.2387798E+04  0.7818608E-02  0.8444086E-01
         -1   -1    0    0    0  501 -0.00000000000E+00  0.00000000000E+00  0.19135078908E+04  0.19135078908E+04  0.00000000000E+00 0.  1.
          1   -1    0    0  501    0  0.00000000000E+00 -0.00000000000E+00 -0.74491211988E+03  0.74491211988E+03  0.00000000000E+00 0. -1.
         23    2    1    2    0    0  0.23794940737E+01 -0.11817832819E+04  0.40994867757E+03  0.12540828718E+04  0.89713675980E+02 0.  0.
         13    1    3    3    0    0  0.29520688020E+02 -0.68348961124E+03  0.20072453289E+03  0.71296553759E+03  0.00000000000E+00 0.  1.
        -13    1    3    3    0    0 -0.27141193946E+02 -0.49829367067E+03  0.20922414468E+03  0.54111733419E+03  0.00000000000E+00 0. -1.
         22    1    1    2    0    0 -0.23794940737E+01  0.11817832819E+04  0.75864709332E+03  0.14043371389E+04  0.00000000000E+00 0. -1.
<mgrwt>
<rscale>  0 0.23877983E+04</rscale>
<asrwt>0</asrwt>
<pdfrwt beam="1">  1        1 0.11460187E+00 0.23877983E+04</pdfrwt>
<pdfrwt beam="2">  1       -1 0.29438583E+00 0.23877983E+04</pdfrwt>
<totfact> 0.79758207E-01</totfact>
</mgrwt>
</event>
<event>
 6    1  0.9364335E-007  0.1020913E+04  0.7818608E-02  0.9285900E-01
         -2   -1    0    0    0  501 -0.00000000000E+00  0.00000000000E+00  0.26736504068E+03  0.26736504068E+03  0.00000000000E+00 0.  1.
          2   -1    0    0  501    0  0.00000000000E+00 -0.00000000000E+00 -0.97457031258E+03  0.97457031258E+03  0.00000000000E+00 0. -1.
         23    2    1    2    0    0  0.28988486354E+02  0.34022204055E+02 -0.96861804543E+03  0.97672886601E+03  0.11739044701E+03 0.  0.
         13    1    3    3    0    0  0.24217374574E+02 -0.35069731432E+02 -0.60984738394E+03  0.61133476835E+03  0.00000000000E+00 0. -1.
        -13    1    3    3    0    0  0.47711117802E+01  0.69091935487E+02 -0.35877066149E+03  0.36539409766E+03  0.00000000000E+00 0.  1.
         22    1    1    2    0    0 -0.28988486354E+02 -0.34022204055E+02  0.26141277353E+03  0.26520648724E+03  0.00000000000E+00 0.  1.
<mgrwt>
<rscale>  0 0.10209134E+04</rscale>
<asrwt>0</asrwt>
<pdfrwt beam="1">  1        2 0.14993390E+00 0.10209134E+04</pdfrwt>
<pdfrwt beam="2">  1       -2 0.41133083E-01 0.10209134E+04</pdfrwt>
<totfact> 0.14595402E+02</totfact>
</mgrwt>
</event>
<event>
 6    1  0.9364335E-007  0.3018379E+04  0.7818608E-02  0.8238502E-01
         -1   -1    0    0    0  501 -0.00000000000E+00  0.00000000000E+00  0.66751423572E+03  0.66751423572E+03  0.00000000000E+00 0.  1.
          1   -1    0    0  501    0  0.00000000000E+00 -0.00000000000E+00 -0.34121416197E+04  0.34121416197E+04  0.00000000000E+00 0. -1.
         23    2    1    2    0    0 -0.86534327243E+02 -0.14570198042E+04 -0.86258133110E+03  0.16979564107E+04  0.92814441020E+02 0.  0.
         11    1    3    3    0    0 -0.35238064043E+02 -0.76193526416E+03 -0.39809332023E+03  0.86038674998E+03  0.00000000000E+00 0. -1.
        -11    1    3    3    0    0 -0.51296263200E+02 -0.69508454002E+03 -0.46448801086E+03  0.83756966076E+03  0.00000000000E+00 0.  1.
         22    1    1    2    0    0  0.86534327243E+02  0.14570198042E+04 -0.18820460529E+04  0.23816994447E+04  0.00000000000E+00 0. -1.
<mgrwt>
<rscale>  0 0.30183791E+04</rscale>
<asrwt>0</asrwt>
<pdfrwt beam="1">  1        1 0.52494486E+00 0.30183791E+04</pdfrwt>
<pdfrwt beam="2">  1       -1 0.10269450E+00 0.30183791E+04</pdfrwt>
<totfact> 0.22281521E-01</totfact>
</mgrwt>
</event>
<event>
 6    1  0.9364335E-007  0.2149246E+04  0.7818608E-02  0.8539855E-01
         -1   -1    0    0    0  501 -0.00000000000E+00  0.00000000000E+00  0.88527316142E+03  0.88527316142E+03  0.00000000000E+00 0.  1.
          1   -1    0    0  501    0  0.00000000000E+00 -0.00000000000E+00 -0.13044725327E+04  0.13044725327E+04  0.00000000000E+00 0. -1.
         23    2    1    2    0    0 -0.10136642698E+04  0.80959196672E+02 -0.55703302797E+03  0.11635547955E+04  0.97490125204E+02 0.  0.
         13    1    3    3    0    0 -0.25561646515E+03  0.59669961674E+02 -0.16250617046E+03  0.30872080756E+03  0.00000000000E+00 0. -1.
        -13    1    3    3    0    0 -0.75804780466E+03  0.21289234997E+02 -0.39452685750E+03  0.85483398796E+03  0.00000000000E+00 0.  1.
         22    1    1    2    0    0  0.10136642698E+04 -0.80959196672E+02  0.13783365671E+03  0.10261908986E+04  0.00000000000E+00 0.  1.
<mgrwt>
<rscale>  0 0.21492459E+04</rscale>
<asrwt>0</asrwt>
<pdfrwt beam="1">  1        1 0.20068808E+00 0.21492459E+04</pdfrwt>
<pdfrwt beam="2">  1       -1 0.13619587E+00 0.21492459E+04</pdfrwt>
<totfact> 0.37030684E+00</totfact>
</mgrwt>
</event>
<event>
 6    1  0.9364335E-007  0.2262401E+04  0.7818608E-02  0.8492895E-01
         -2   -1    0    0    0  501 -0.00000000000E+00  0.00000000000E+00  0.39803147706E+03  0.39803147706E+03  0.00000000000E+00 0.  1.
          2   -1    0    0  501    0  0.00000000000E+00 -0.00000000000E+00 -0.32148569515E+04  0.32148569515E+04  0.00000000000E+00 0. -1.
         23    2    1    2    0    0  0.66757031688E+02 -0.10936989254E+04 -0.18474056721E+04  0.21498748969E+04  0.91763360395E+02 0.  0.
         11    1    3    3    0    0 -0.71794777364E+01 -0.62766029520E+03 -0.10564089152E+04  0.12288241482E+04  0.00000000000E+00 0. -1.
        -11    1    3    3    0    0  0.73936509424E+02 -0.46603863019E+03 -0.79099675691E+03  0.92105074871E+03  0.00000000000E+00 0.  1.
         22    1    1    2    0    0 -0.66757031688E+02  0.10936989254E+04 -0.96941980237E+03  0.14630135317E+04  0.00000000000E+00 0. -1.
<mgrwt>
<rscale>  0 0.22624007E+04</rscale>
<asrwt>0</asrwt>
<pdfrwt beam="1">  1        2 0.49459336E+00 0.22624007E+04</pdfrwt>
<pdfrwt beam="2">  1       -2 0.61235614E-01 0.22624007E+04</pdfrwt>
<totfact> 0.28650608E+00</totfact>
</mgrwt>
</event>
<event>
 6    1  0.9516149E-007  0.2259491E+04  0.7818608E-02  0.8494067E-01
         -1   -1    0    0    0  501 -0.00000000000E+00  0.00000000000E+00  0.76767882269E+03  0.76767882269E+03  0.00000000000E+00 0.  1.
          1   -1    0    0  501    0  0.00000000000E+00 -0.00000000000E+00 -0.16625772122E+04  0.16625772122E+04  0.00000000000E+00 0. -1.
         23    2    1    2    0    0  0.10038767745E+04 -0.51407685357E+03 -0.43576106521E+03  0.12125324734E+04  0.91124658410E+02 0.  0.
         13    1    3    3    0    0  0.54761179029E+03 -0.25719233440E+03 -0.19014988623E+03  0.63417942964E+03  0.00000000000E+00 0. -1.
        -13    1    3    3    0    0  0.45626498418E+03 -0.25688451918E+03 -0.24561117898E+03  0.57835304376E+03  0.00000000000E+00 0.  1.
         22    1    1    2    0    0 -0.10038767745E+04  0.51407685357E+03 -0.45913732435E+03  0.12177235615E+04  0.00000000000E+00 0. -1.
<mgrwt>
<rscale>  0 0.22594914E+04</rscale>
<asrwt>0</asrwt>
<pdfrwt beam="1">  1        1 0.25578111E+00 0.22594914E+04</pdfrwt>
<pdfrwt beam="2">  1       -1 0.11810444E+00 0.22594914E+04</pdfrwt>
<totfact> 0.29511390E+00</totfact>
</mgrwt>
</event>
<event>
 6    1  0.9364335E-007  0.2001156E+04  0.7818608E-02  0.8606080E-01
         -1   -1    0    0    0  501 -0.00000000000E+00  0.00000000000E+00  0.87547142042E+03  0.87547142042E+03  0.00000000000E+00 0.  1.
          1   -1    0    0  501    0  0.00000000000E+00 -0.00000000000E+00 -0.11435625021E+04  0.11435625021E+04  0.00000000000E+00 0. -1.
         23    2    1    2    0    0  0.22660319199E+03  0.47838123559E+03 -0.98852133933E+03  0.11250443425E+04  0.91393222440E+02 0.  0.
         11    1    3    3    0    0  0.10612271757E+03  0.31923163222E+03 -0.65543953809E+03  0.73673051673E+03  0.00000000000E+00 0.  1.
        -11    1    3    3    0    0  0.12048047442E+03  0.15914960337E+03 -0.33308180124E+03  0.38831382578E+03  0.00000000000E+00 0. -1.
         22    1    1    2    0    0 -0.22660319199E+03 -0.47838123559E+03  0.72043025760E+03  0.89398958006E+03  0.00000000000E+00 0.  1.
<mgrwt>
<rscale>  0 0.20011560E+04</rscale>
<asrwt>0</asrwt>
<pdfrwt beam="1">  1        1 0.17593269E+00 0.20011560E+04</pdfrwt>
<pdfrwt beam="2">  1       -1 0.13468791E+00 0.20011560E+04</pdfrwt>
<totfact> 0.50556589E+00</totfact>
</mgrwt>
</event>
<event>
 6    1  0.9364335E-007  0.4920531E+04  0.7818608E-02  0.7840884E-01
         -1   -1    0    0    0  501 -0.00000000000E+00  0.00000000000E+00  0.24651843789E+04  0.24651843789E+04  0.00000000000E+00 0.  1.
          1   -1    0    0  501    0  0.00000000000E+00 -0.00000000000E+00 -0.24553564973E+04  0.24553564973E+04  0.00000000000E+00 0. -1.
         23    2    1    2    0    0  0.64012826205E+03 -0.16755409703E+04  0.16876122374E+04  0.24644948507E+04  0.92184981062E+02 0.  0.
         13    1    3    3    0    0  0.46451524579E+03 -0.11752921505E+04  0.11338545032E+04  0.16978551432E+04  0.00000000000E+00 0. -1.
        -13    1    3    3    0    0  0.17561301626E+03 -0.50024881972E+03  0.55375773415E+03  0.76663970758E+03  0.00000000000E+00 0.  1.
         22    1    1    2    0    0 -0.64012826205E+03  0.16755409703E+04 -0.16777843558E+04  0.24560460255E+04  0.00000000000E+00 0. -1.
<mgrwt>
<rscale>  0 0.49205311E+04</rscale>
<asrwt>0</asrwt>
<pdfrwt beam="1">  1        1 0.37774715E+00 0.49205311E+04</pdfrwt>
<pdfrwt beam="2">  1       -1 0.37925914E+00 0.49205311E+04</pdfrwt>
<totfact> 0.10462993E-02</totfact>
</mgrwt>
</event>
<event>
 6    1  0.9364335E-007  0.2443905E+04  0.7818608E-02  0.8423247E-01
          1   -1    0    0  501    0  0.00000000000E+00  0.00000000000E+00  0.85577077159E+03  0.85577077159E+03  0.00000000000E+00 0. -1.
         -1   -1    0    0    0  501 -0.00000000000E+00 -0.00000000000E+00 -0.17448228610E+04  0.17448228610E+04  0.00000000000E+00 0.  1.
         23    2    1    2    0    0  0.16696004276E+03  0.43265645350E+03 -0.16462204294E+04  0.17126909589E+04  0.90561337647E+02 0.  0.
         11    1    3    3    0    0  0.69013795342E+02  0.29829612528E+03 -0.10804736055E+04  0.11230167829E+04  0.00000000000E+00 0.  1.
        -11    1    3    3    0    0  0.97946247414E+02  0.13436032822E+03 -0.56574682390E+03  0.58967417608E+03  0.00000000000E+00 0. -1.
         22    1    1    2    0    0 -0.16696004276E+03 -0.43265645350E+03  0.75716834006E+03  0.88790267362E+03  0.00000000000E+00 0. -1.
<mgrwt>
<rscale>  0 0.24439054E+04</rscale>
<asrwt>0</asrwt>
<pdfrwt beam="1">  1        1 0.13165704E+00 0.24439054E+04</pdfrwt>
<pdfrwt beam="2">  1       -1 0.26843429E+00 0.24439054E+04</pdfrwt>
<totfact> 0.93512089E-01</totfact>
</mgrwt>
</event>
<event>
 6    1  0.1163106E-006  0.3717644E+04  0.7818608E-02  0.8064063E-01
         -2   -1    0    0    0  501 -0.00000000000E+00  0.00000000000E+00  0.25173136588E+04  0.25173136588E+04  0.00000000000E+00 0.  1.
          2   -1    0    0  501    0  0.00000000000E+00 -0.00000000000E+00 -0.13725815629E+04  0.13725815629E+04  0.00000000000E+00 0. -1.
         23    2    1    2    0    0 -0.15597658167E+04  0.99673478171E+03  0.40850328455E+03  0.18978152809E+04  0.92077569933E+02 0.  0.
         11    1    3    3    0    0 -0.74565090010E+03  0.47598669296E+03  0.24234439970E+03  0.91721829722E+03  0.00000000000E+00 0. -1.
        -11    1    3    3    0    0 -0.81411491661E+03  0.52074808875E+03  0.16615888486E+03  0.98059698368E+03  0.00000000000E+00 0.  1.
         22    1    1    2    0    0  0.15597658167E+04 -0.99673478171E+03  0.73622881130E+03  0.19920799408E+04  0.00000000000E+00 0.  1.
<mgrwt>
<rscale>  0 0.37176435E+04</rscale>
<asrwt>0</asrwt>
<pdfrwt beam="1">  1        2 0.21116639E+00 0.37176435E+04</pdfrwt>
<pdfrwt beam="2">  1       -2 0.38727902E+00 0.37176435E+04</pdfrwt>
<totfact> 0.10873577E-01</totfact>
</mgrwt>
</event>
<event>
 6    1  0.9364335E-007  0.6670360E+03  0.7818608E-02  0.9775327E-01
          2   -1    0    0  501    0  0.00000000000E+00  0.00000000000E+00  0.13575351254E+04  0.13575351254E+04  0.00000000000E+00 0. -1.
         -2   -1    0    0    0  501 -0.00000000000E+00 -0.00000000000E+00 -0.81938396282E+02  0.81938396282E+02  0.00000000000E+00 0.  1.
         23    2    1    2    0    0 -0.96021432863E+02 -0.30863789708E+03  0.60679542331E+03  0.69665951150E+03  0.11250032054E+03 0.  0.
         13    1    3    3    0    0  0.14274762038E+01 -0.18409195157E+03  0.32355761808E+03  0.37226525024E+03  0.00000000000E+00 0. -1.
        -13    1    3    3    0    0 -0.97448909067E+02 -0.12454594551E+03  0.28323780524E+03  0.32439426126E+03  0.00000000000E+00 0.  1.
         22    1    1    2    0    0  0.96021432863E+02  0.30863789708E+03  0.66880130584E+03  0.74281401021E+03  0.00000000000E+00 0. -1.
<mgrwt>
<rscale>  0 0.66703598E+03</rscale>
<asrwt>0</asrwt>
<pdfrwt beam="1">  1        2 0.20885154E+00 0.66703598E+03</pdfrwt>
<pdfrwt beam="2">  1       -2 0.12605908E-01 0.66703598E+03</pdfrwt>
<totfact> 0.72754942E+02</totfact>
</mgrwt>
</event>
<event>
 6    1  0.1268428E-006  0.1709926E+04  0.7818608E-02  0.8755723E-01
         -2   -1    0    0    0  501 -0.00000000000E+00  0.00000000000E+00  0.60853960680E+03  0.60853960680E+03  0.00000000000E+00 0.  1.
          2   -1    0    0  501    0  0.00000000000E+00 -0.00000000000E+00 -0.12011734159E+04  0.12011734159E+04  0.00000000000E+00 0. -1.
         23    2    1    2    0    0 -0.47599163044E+03  0.13287682574E+03  0.43845195690E+03  0.66631364369E+03  0.86657199281E+02 0.  0.
         13    1    3    3    0    0 -0.16913554898E+03  0.49787469290E+02  0.21338820292E+03  0.27680345224E+03  0.00000000000E+00 0. -1.
        -13    1    3    3    0    0 -0.30685608146E+03  0.83089356449E+02  0.22506375397E+03  0.38951019144E+03  0.00000000000E+00 0.  1.
         22    1    1    2    0    0  0.47599163044E+03 -0.13287682574E+03 -0.10310857659E+04  0.11433993790E+04  0.00000000000E+00 0. -1.
<mgrwt>
<rscale>  0 0.17099258E+04</rscale>
<asrwt>0</asrwt>
<pdfrwt beam="1">  1        2 0.18479591E+00 0.17099258E+04</pdfrwt>
<pdfrwt beam="2">  1       -2 0.93621479E-01 0.17099258E+04</pdfrwt>
<totfact> 0.17342290E+01</totfact>
</mgrwt>
</event>
<event>
 6    1  0.9364335E-007  0.4859449E+04  0.7818608E-02  0.7850562E-01
          1   -1    0    0  501    0  0.00000000000E+00  0.00000000000E+00  0.27346309471E+04  0.27346309471E+04  0.00000000000E+00 0. -1.
         -1   -1    0    0    0  501 -0.00000000000E+00 -0.00000000000E+00 -0.21588144698E+04  0.21588144698E+04  0.00000000000E+00 0.  1.
         23    2    1    2    0    0 -0.15461613772E+04 -0.47188524725E+03 -0.15374680363E+04  0.22327571363E+04  0.90032082113E+02 0.  0.
         11    1    3    3    0    0 -0.79984586840E+03 -0.24793580980E+03 -0.73449177177E+03  0.11138688171E+04  0.00000000000E+00 0.  1.
        -11    1    3    3    0    0 -0.74631550881E+03 -0.22394943745E+03 -0.80297626457E+03  0.11188883191E+04  0.00000000000E+00 0. -1.
         22    1    1    2    0    0  0.15461613772E+04  0.47188524725E+03  0.21132845137E+04  0.26606882806E+04  0.00000000000E+00 0. -1.
<mgrwt>
<rscale>  0 0.48594489E+04</rscale>
<asrwt>0</asrwt>
<pdfrwt beam="1">  1        1 0.42071245E+00 0.48594489E+04</pdfrwt>
<pdfrwt beam="2">  1       -1 0.33212530E+00 0.48594489E+04</pdfrwt>
<totfact> 0.13805146E-02</totfact>
</mgrwt>
</event>
<event>
 6    1  0.9364335E-007  0.1219230E+04  0.7818608E-02  0.9096189E-01
          1   -1    0    0  501    0  0.00000000000E+00  0.00000000000E+00  0.11863956577E+04  0.11863956577E+04  0.00000000000E+00 0. -1.
         -1   -1    0    0    0  501 -0.00000000000E+00 -0.00000000000E+00 -0.31324316700E+03  0.31324316700E+03  0.00000000000E+00 0.  1.
         23    2    1    2    0    0  0.26004413119E+03 -0.54283767370E+03  0.51738855174E+03  0.80045095982E+03  0.10361049873E+03 0.  0.
         13    1    3    3    0    0  0.86081905580E+02 -0.26289601381E+03  0.28495981939E+03  0.39714796640E+03  0.00000000000E+00 0.  1.
        -13    1    3    3    0    0  0.17396222561E+03 -0.27994165989E+03  0.23242873235E+03  0.40330299342E+03  0.00000000000E+00 0. -1.
         22    1    1    2    0    0 -0.26004413119E+03  0.54283767370E+03  0.35576393899E+03  0.69918786491E+03  0.00000000000E+00 0.  1.
<mgrwt>
<rscale>  0 0.12192298E+04</rscale>
<asrwt>0</asrwt>
<pdfrwt beam="1">  1        1 0.18252241E+00 0.12192298E+04</pdfrwt>
<pdfrwt beam="2">  1       -1 0.48191257E-01 0.12192298E+04</pdfrwt>
<totfact> 0.46508365E+01</totfact>
</mgrwt>
</event>
<event>
 6    1  0.1300956E-006  0.2907353E+04  0.7818608E-02  0.8270693E-01
          4   -1    0    0  501    0  0.00000000000E+00  0.00000000000E+00  0.17619846008E+04  0.17619846008E+04  0.00000000000E+00 0. -1.
         -4   -1    0    0    0  501 -0.00000000000E+00 -0.00000000000E+00 -0.11993152658E+04  0.11993152658E+04  0.00000000000E+00 0.  1.
         23    2    1    2    0    0 -0.56094591031E+03 -0.11751875037E+04 -0.37334803205E+03  0.13575996158E+04  0.89229930012E+02 0.  0.
         13    1    3    3    0    0 -0.36913064741E+03 -0.85936646992E+03 -0.28372639179E+03  0.97737854994E+03  0.00000000000E+00 0. -1.
        -13    1    3    3    0    0 -0.19181526290E+03 -0.31582103382E+03 -0.89621640257E+02  0.38022106581E+03  0.00000000000E+00 0.  1.
         22    1    1    2    0    0  0.56094591031E+03  0.11751875037E+04  0.93601736703E+03  0.16037002509E+04  0.00000000000E+00 0. -1.
<mgrwt>
<rscale>  0 0.29073528E+04</rscale>
<asrwt>0</asrwt>
<pdfrwt beam="1">  1        4 0.27107455E+00 0.29073528E+04</pdfrwt>
<pdfrwt beam="2">  1       -4 0.18451004E+00 0.29073528E+04</pdfrwt>
<totfact> 0.13397014E-02</totfact>
</mgrwt>
</event>
<event>
 6    1  0.9364335E-007  0.1703556E+04  0.7818608E-02  0.8759339E-01
         -2   -1    0    0    0  501 -0.00000000000E+00  0.00000000000E+00  0.31567414347E+03  0.31567414347E+03  0.00000000000E+00 0.  1.
          2   -1    0    0  501    0  0.00000000000E+00 -0.00000000000E+00 -0.22983365471E+04  0.22983365471E+04  0.00000000000E+00 0. -1.
         23    2    1    2    0    0 -0.53190020192E+03  0.60214825817E+03 -0.57171300651E+03  0.99034861032E+03  0.91838219295E+02 0.  0.
         13    1    3    3    0    0 -0.15160049104E+03  0.15034188614E+03 -0.10668062898E+03  0.23867582242E+03  0.00000000000E+00 0. -1.
        -13    1    3    3    0    0 -0.38029971088E+03  0.45180637204E+03 -0.46503237753E+03  0.75167278789E+03  0.00000000000E+00 0.  1.
         22    1    1    2    0    0  0.53190020192E+03 -0.60214825817E+03 -0.14109493971E+04  0.16236620803E+04  0.00000000000E+00 0. -1.
<mgrwt>
<rscale>  0 0.17035556E+04</rscale>
<asrwt>0</asrwt>
<pdfrwt beam="1">  1        2 0.35359024E+00 0.17035556E+04</pdfrwt>
<pdfrwt beam="2">  1       -2 0.48565252E-01 0.17035556E+04</pdfrwt>
<totfact> 0.17369663E+01</totfact>
</mgrwt>
</event>
<event>
 6    1  0.9364335E-007  0.1838058E+04  0.7818608E-02  0.8686319E-01
          1   -1    0    0  501    0  0.00000000000E+00  0.00000000000E+00  0.11890356500E+04  0.11890356500E+04  0.00000000000E+00 0. -1.
         -1   -1    0    0    0  501 -0.00000000000E+00 -0.00000000000E+00 -0.71033519681E+03  0.71033519681E+03  0.00000000000E+00 0.  1.
         23    2    1    2    0    0  0.54713287577E+03 -0.70532849360E+03  0.45557641585E+03  0.10064109436E+04  0.92035042330E+02 0.  0.
         11    1    3    3    0    0  0.21538022498E+03 -0.28466988165E+03  0.13230472542E+03  0.38069689150E+03  0.00000000000E+00 0. -1.
        -11    1    3    3    0    0  0.33175265079E+03 -0.42065861195E+03  0.32327169044E+03  0.62571405206E+03  0.00000000000E+00 0.  1.
         22    1    1    2    0    0 -0.54713287577E+03  0.70532849360E+03  0.23124037309E+02  0.89295990321E+03  0.00000000000E+00 0.  1.
<mgrwt>
<rscale>  0 0.18380575E+04</rscale>
<asrwt>0</asrwt>
<pdfrwt beam="1">  1        1 0.18292856E+00 0.18380575E+04</pdfrwt>
<pdfrwt beam="2">  1       -1 0.10928234E+00 0.18380575E+04</pdfrwt>
<totfact> 0.79363877E+00</totfact>
</mgrwt>
</event>
<event>
 6    1  0.9364335E-007  0.2912092E+04  0.7818608E-02  0.8269289E-01
         -1   -1    0    0    0  501 -0.00000000000E+00  0.00000000000E+00  0.20109864160E+04  0.20109864160E+04  0.00000000000E+00 0.  1.
          1   -1    0    0  501    0  0.00000000000E+00 -0.00000000000E+00 -0.10542440267E+04  0.10542440267E+04  0.00000000000E+00 0. -1.
         23    2    1    2    0    0 -0.33790884525E+03  0.45869583121E+03  0.18876047362E+04  0.19738602204E+04  0.92131842581E+02 0.  0.
         13    1    3    3    0    0 -0.13838448699E+03  0.20804553028E+03  0.98079342390E+03  0.10121210151E+04  0.00000000000E+00 0. -1.
        -13    1    3    3    0    0 -0.19952435825E+03  0.25065030093E+03  0.90681131225E+03  0.96173920525E+03  0.00000000000E+00 0.  1.
         22    1    1    2    0    0  0.33790884525E+03 -0.45869583121E+03 -0.93086234691E+03  0.10913702223E+04  0.00000000000E+00 0. -1.
<mgrwt>
<rscale>  0 0.29120923E+04</rscale>
<asrwt>0</asrwt>
<pdfrwt beam="1">  1        1 0.16219139E+00 0.29120923E+04</pdfrwt>
<pdfrwt beam="2">  1       -1 0.30938253E+00 0.29120923E+04</pdfrwt>
<totfact> 0.33800454E-01</totfact>
</mgrwt>
</event>
<event>
 6    1  0.1121645E-006  0.5475123E+04  0.7818608E-02  0.7759122E-01
         -2   -1    0    0    0  501 -0.00000000000E+00  0.00000000000E+00  0.32291569549E+04  0.32291569549E+04  0.00000000000E+00 0.  1.
          2   -1    0    0  501    0  0.00000000000E+00 -0.00000000000E+00 -0.23208046006E+04  0.23208046006E+04  0.00000000000E+00 0. -1.
         23    2    1    2    0    0 -0.24024911817E+04  0.44411548829E+03  0.17044320273E+04  0.29803418773E+04  0.90259209414E+02 0.  0.
         13    1    3    3    0    0 -0.11711847961E+04  0.25991362194E+03  0.81860099226E+03  0.14523555012E+04  0.00000000000E+00 0. -1.
        -13    1    3    3    0    0 -0.12313063857E+04  0.18420186635E+03  0.88583103500E+03  0.15279863761E+04  0.00000000000E+00 0.  1.
         22    1    1    2    0    0  0.24024911817E+04 -0.44411548829E+03 -0.79607967297E+03  0.25696196783E+04  0.00000000000E+00 0.  1.
<mgrwt>
<rscale>  0 0.54751228E+04</rscale>
<asrwt>0</asrwt>
<pdfrwt beam="1">  1        2 0.35704686E+00 0.54751228E+04</pdfrwt>
<pdfrwt beam="2">  1       -2 0.49679338E+00 0.54751228E+04</pdfrwt>
<totfact> 0.53903763E-03</totfact>
</mgrwt>
</event>
<event>
 6    1  0.9364335E-007  0.4579253E+04  0.7818608E-02  0.7896907E-01
          2   -1    0    0  501    0  0.00000000000E+00  0.00000000000E+00  0.27195021792E+04  0.27195021792E+04  0.00000000000E+00 0. -1.
         -2   -1    0    0    0  501 -0.00000000000E+00 -0.00000000000E+00 -0.19277020868E+04  0.19277020868E+04  0.00000000000E+00 0.  1.
         23    2    1    2    0    0  0.13889399387E+04  0.83956002898E+03 -0.12417001469E+04  0.20454474714E+04  0.89559521248E+02 0.  0.
         13    1    3    3    0    0  0.23575432359E+03  0.13383895669E+03 -0.24962375827E+03  0.36851728333E+03  0.00000000000E+00 0.  1.
        -13    1    3    3    0    0  0.11531856151E+04  0.70572107229E+03 -0.99207638863E+03  0.16769301880E+04  0.00000000000E+00 0. -1.
         22    1    1    2    0    0 -0.13889399387E+04 -0.83956002898E+03  0.20335002393E+04  0.26017567947E+04  0.00000000000E+00 0. -1.
<mgrwt>
<rscale>  0 0.45792532E+04</rscale>
<asrwt>0</asrwt>
<pdfrwt beam="1">  1        2 0.41838495E+00 0.45792532E+04</pdfrwt>
<pdfrwt beam="2">  1       -2 0.29656955E+00 0.45792532E+04</pdfrwt>
<totfact> 0.64918922E-02</totfact>
</mgrwt>
</event>
<event>
 6    1  0.9364335E-007  0.2826108E+04  0.7818608E-02  0.8295208E-01
         -2   -1    0    0    0  501 -0.00000000000E+00  0.00000000000E+00  0.12093456870E+04  0.12093456870E+04  0.00000000000E+00 0.  1.
          2   -1    0    0  501    0  0.00000000000E+00 -0.00000000000E+00 -0.16510762490E+04  0.16510762490E+04  0.00000000000E+00 0. -1.
         23    2    1    2    0    0 -0.13353048633E+04 -0.37371444647E+03  0.45756565070E+02  0.13906106337E+04  0.94882588966E+02 0.  0.
         11    1    3    3    0    0 -0.47207342229E+03 -0.13316748797E+03  0.61606253122E+02  0.49435030728E+03  0.00000000000E+00 0. -1.
        -11    1    3    3    0    0 -0.86323144103E+03 -0.24054695851E+03 -0.15849688052E+02  0.89626032638E+03  0.00000000000E+00 0.  1.
         22    1    1    2    0    0  0.13353048633E+04  0.37371444647E+03 -0.48748712708E+03  0.14698113024E+04  0.00000000000E+00 0. -1.
<mgrwt>
<rscale>  0 0.28261082E+04</rscale>
<asrwt>0</asrwt>
<pdfrwt beam="1">  1        2 0.25401173E+00 0.28261082E+04</pdfrwt>
<pdfrwt beam="2">  1       -2 0.18605318E+00 0.28261082E+04</pdfrwt>
<totfact> 0.14945747E+00</totfact>
</mgrwt>
</event>
<event>
 6    1  0.9364335E-007  0.3398873E+04  0.7818608E-02  0.8138183E-01
          2   -1    0    0  501    0  0.00000000000E+00  0.00000000000E+00  0.19003560220E+04  0.19003560220E+04  0.00000000000E+00 0. -1.
         -2   -1    0    0    0  501 -0.00000000000E+00 -0.00000000000E+00 -0.15197594962E+04  0.15197594962E+04  0.00000000000E+00 0.  1.
         23    2    1    2    0    0 -0.27871173530E+02  0.12538972065E+04 -0.96168516440E+03  0.15830648541E+04  0.90669565259E+02 0.  0.
         11    1    3    3    0    0 -0.55179346173E+02  0.76170190002E+03 -0.55622747476E+03  0.94478756788E+03  0.00000000000E+00 0.  1.
        -11    1    3    3    0    0  0.27308172643E+02  0.49219530647E+03 -0.40545768963E+03  0.63827728621E+03  0.00000000000E+00 0. -1.
         22    1    1    2    0    0  0.27871173530E+02 -0.12538972065E+04  0.13422816901E+04  0.18370506641E+04  0.00000000000E+00 0. -1.
<mgrwt>
<rscale>  0 0.33988728E+04</rscale>
<asrwt>0</asrwt>
<pdfrwt beam="1">  1        2 0.29236247E+00 0.33988728E+04</pdfrwt>
<pdfrwt beam="2">  1       -2 0.23380915E+00 0.33988728E+04</pdfrwt>
<totfact> 0.50900805E-01</totfact>
</mgrwt>
</event>
<event>
 6    1  0.9364335E-007  0.4762255E+04  0.7818608E-02  0.7866266E-01
          2   -1    0    0  501    0  0.00000000000E+00  0.00000000000E+00  0.46004127965E+04  0.46004127965E+04  0.00000000000E+00 0. -1.
         -2   -1    0    0    0  501 -0.00000000000E+00 -0.00000000000E+00 -0.12324477569E+04  0.12324477569E+04  0.00000000000E+00 0.  1.
         23    2    1    2    0    0  0.18038700824E+04  0.10569749509E+04  0.29102001745E+03  0.21128156625E+04  0.90299790424E+02 0.  0.
         11    1    3    3    0    0  0.64692371724E+03  0.42097437517E+03  0.82849129311E+02  0.77626908910E+03  0.00000000000E+00 0. -1.
        -11    1    3    3    0    0  0.11569463652E+04  0.63600057578E+03  0.20817088814E+03  0.13365465734E+04  0.00000000000E+00 0.  1.
         22    1    1    2    0    0 -0.18038700824E+04 -0.10569749509E+04  0.30769450221E+04  0.37200448909E+04  0.00000000000E+00 0. -1.
<mgrwt>
<rscale>  0 0.47622551E+04</rscale>
<asrwt>0</asrwt>
<pdfrwt beam="1">  1        2 0.70775580E+00 0.47622551E+04</pdfrwt>
<pdfrwt beam="2">  1       -2 0.18960735E+00 0.47622551E+04</pdfrwt>
<totfact> 0.11176812E-02</totfact>
</mgrwt>
</event>
<event>
 6    1  0.9364335E-007  0.4017159E+04  0.7818608E-02  0.8001094E-01
         -1   -1    0    0    0  501 -0.00000000000E+00  0.00000000000E+00  0.30044872702E+04  0.30044872702E+04  0.00000000000E+00 0.  1.
          1   -1    0    0  501    0  0.00000000000E+00 -0.00000000000E+00 -0.13427888689E+04  0.13427888689E+04  0.00000000000E+00 0. -1.
         23    2    1    2    0    0 -0.19494827468E+04  0.40928000459E+03  0.56102887864E+03  0.20714320100E+04  0.89911439960E+02 0.  0.
         13    1    3    3    0    0 -0.12227510208E+04  0.26514436903E+03  0.39655337890E+03  0.13125075914E+04  0.00000000000E+00 0. -1.
        -13    1    3    3    0    0 -0.72673172601E+03  0.14413563556E+03  0.16447549974E+03  0.75892441853E+03  0.00000000000E+00 0.  1.
         22    1    1    2    0    0  0.19494827468E+04 -0.40928000459E+03  0.11006695227E+04  0.22758441292E+04  0.00000000000E+00 0.  1.
<mgrwt>
<rscale>  0 0.40171592E+04</rscale>
<asrwt>0</asrwt>
<pdfrwt beam="1">  1        1 0.20658290E+00 0.40171592E+04</pdfrwt>
<pdfrwt beam="2">  1       -1 0.46222881E+00 0.40171592E+04</pdfrwt>
<totfact> 0.17575255E-02</totfact>
</mgrwt>
</event>
<event>
 6    1  0.1130410E-006  0.2839377E+04  0.7818608E-02  0.8291147E-01
          2   -1    0    0  501    0  0.00000000000E+00  0.00000000000E+00  0.24199866365E+04  0.24199866365E+04  0.00000000000E+00 0. -1.
         -2   -1    0    0    0  501 -0.00000000000E+00 -0.00000000000E+00 -0.83286223680E+03  0.83286223680E+03  0.00000000000E+00 0.  1.
         23    2    1    2    0    0 -0.23381436353E+03  0.56989201498E+03 -0.66869682908E+03  0.91443584702E+03  0.97935712396E+02 0.  0.
         11    1    3    3    0    0 -0.18633788185E+03  0.33094805339E+03 -0.42145300716E+03  0.56733681134E+03  0.00000000000E+00 0.  1.
        -11    1    3    3    0    0 -0.47476481677E+02  0.23894396159E+03 -0.24724382191E+03  0.34709903568E+03  0.00000000000E+00 0. -1.
         22    1    1    2    0    0  0.23381436353E+03 -0.56989201498E+03  0.22558212288E+04  0.23384130263E+04  0.00000000000E+00 0. -1.
<mgrwt>
<rscale>  0 0.28393770E+04</rscale>
<asrwt>0</asrwt>
<pdfrwt beam="1">  1        2 0.37230563E+00 0.28393770E+04</pdfrwt>
<pdfrwt beam="2">  1       -2 0.12813265E+00 0.28393770E+04</pdfrwt>
<totfact> 0.15126136E+00</totfact>
</mgrwt>
</event>
<event>
 6    1  0.9364335E-007  0.2028800E+04  0.7818608E-02  0.8593273E-01
         -1   -1    0    0    0  501 -0.00000000000E+00  0.00000000000E+00  0.79645691132E+03  0.79645691132E+03  0.00000000000E+00 0.  1.
          1   -1    0    0  501    0  0.00000000000E+00 -0.00000000000E+00 -0.12919811425E+04  0.12919811425E+04  0.00000000000E+00 0. -1.
         23    2    1    2    0    0  0.65334365163E+03  0.77011023572E+03 -0.32080102724E+03  0.10635205448E+04  0.90746613274E+02 0.  0.
         11    1    3    3    0    0  0.36714096649E+03  0.46100530358E+03 -0.22973799445E+03  0.63253294404E+03  0.00000000000E+00 0.  1.
        -11    1    3    3    0    0  0.28620268514E+03  0.30910493214E+03 -0.91063032783E+02  0.43098760074E+03  0.00000000000E+00 0. -1.
         22    1    1    2    0    0 -0.65334365163E+03 -0.77011023572E+03 -0.17472320393E+03  0.10249175090E+04  0.00000000000E+00 0. -1.
<mgrwt>
<rscale>  0 0.20288000E+04</rscale>
<asrwt>0</asrwt>
<pdfrwt beam="1">  1        1 0.19876633E+00 0.20288000E+04</pdfrwt>
<pdfrwt beam="2">  1       -1 0.12253183E+00 0.20288000E+04</pdfrwt>
<totfact> 0.49879811E+00</totfact>
</mgrwt>
</event>
<event>
 6    1  0.9364335E-007  0.2576848E+04  0.7818608E-02  0.8376108E-01
         -2   -1    0    0    0  501 -0.00000000000E+00  0.00000000000E+00  0.99182328355E+03  0.99182328355E+03  0.00000000000E+00 0.  1.
          2   -1    0    0  501    0  0.00000000000E+00 -0.00000000000E+00 -0.16737222120E+04  0.16737222120E+04  0.00000000000E+00 0. -1.
         23    2    1    2    0    0 -0.75460792948E+03 -0.47302891875E+03 -0.13020955229E+04  0.15802652087E+04  0.92714043804E+02 0.  0.
         13    1    3    3    0    0 -0.85285262508E+02 -0.30897543714E+02 -0.99066926180E+02  0.13432233646E+03  0.00000000000E+00 0. -1.
        -13    1    3    3    0    0 -0.66932266697E+03 -0.44213137503E+03 -0.12030285967E+04  0.14459428722E+04  0.00000000000E+00 0.  1.
         22    1    1    2    0    0  0.75460792948E+03  0.47302891875E+03  0.62019659445E+03  0.10852802868E+04  0.00000000000E+00 0.  1.
<mgrwt>
<rscale>  0 0.25768482E+04</rscale>
<asrwt>0</asrwt>
<pdfrwt beam="1">  1        2 0.25749572E+00 0.25768482E+04</pdfrwt>
<pdfrwt beam="2">  1       -2 0.15258820E+00 0.25768482E+04</pdfrwt>
<totfact> 0.25739312E+00</totfact>
</mgrwt>
</event>
<event>
 6    1  0.9364335E-007  0.2487430E+04  0.7818608E-02  0.8407477E-01
          2   -1    0    0  501    0  0.00000000000E+00  0.00000000000E+00  0.20011385261E+04  0.20011385261E+04  0.00000000000E+00 0. -1.
         -2   -1    0    0    0  501 -0.00000000000E+00 -0.00000000000E+00 -0.77297356595E+03  0.77297356595E+03  0.00000000000E+00 0.  1.
         23    2    1    2    0    0 -0.58269656436E+03  0.98208403092E+03  0.11596944985E+04  0.16301223482E+04  0.91559873193E+02 0.  0.
         13    1    3    3    0    0 -0.28554453911E+03  0.41729584012E+03  0.46781156566E+03  0.68885351343E+03  0.00000000000E+00 0.  1.
        -13    1    3    3    0    0 -0.29715202525E+03  0.56478819079E+03  0.69188293285E+03  0.94126883479E+03  0.00000000000E+00 0. -1.
         22    1    1    2    0    0  0.58269656436E+03 -0.98208403092E+03  0.68470461637E+02  0.11439897438E+04  0.00000000000E+00 0.  1.
<mgrwt>
<rscale>  0 0.24874301E+04</rscale>
<asrwt>0</asrwt>
<pdfrwt beam="1">  1        2 0.30786746E+00 0.24874301E+04</pdfrwt>
<pdfrwt beam="2">  1       -2 0.11891901E+00 0.24874301E+04</pdfrwt>
<totfact> 0.32347423E+00</totfact>
</mgrwt>
</event>
<event>
 6    1  0.9364335E-007  0.2555980E+04  0.7818608E-02  0.8383309E-01
          1   -1    0    0  501    0  0.00000000000E+00  0.00000000000E+00  0.12922350368E+04  0.12922350368E+04  0.00000000000E+00 0. -1.
         -1   -1    0    0    0  501 -0.00000000000E+00 -0.00000000000E+00 -0.12639022553E+04  0.12639022553E+04  0.00000000000E+00 0.  1.
         23    2    1    2    0    0  0.10425070255E+04 -0.29207387855E+03 -0.66186404765E+03  0.12721981535E+04  0.91082794929E+02 0.  0.
         11    1    3    3    0    0  0.41694943958E+03 -0.12274361021E+03 -0.31800619618E+03  0.53855433321E+03  0.00000000000E+00 0. -1.
        -11    1    3    3    0    0  0.62555758588E+03 -0.16933026835E+03 -0.34385785147E+03  0.73364382029E+03  0.00000000000E+00 0.  1.
         22    1    1    2    0    0 -0.10425070255E+04  0.29207387855E+03  0.69019682915E+03  0.12839391386E+04  0.00000000000E+00 0. -1.
<mgrwt>
<rscale>  0 0.25559803E+04</rscale>
<asrwt>0</asrwt>
<pdfrwt beam="1">  1        1 0.19880539E+00 0.25559803E+04</pdfrwt>
<pdfrwt beam="2">  1       -1 0.19444650E+00 0.25559803E+04</pdfrwt>
<totfact> 0.13323552E+00</totfact>
</mgrwt>
</event>
<event>
 6    1  0.9364335E-007  0.2288769E+04  0.7818608E-02  0.8482363E-01
         -2   -1    0    0    0  501 -0.00000000000E+00  0.00000000000E+00  0.48377466098E+03  0.48377466098E+03  0.00000000000E+00 0.  1.
          2   -1    0    0  501    0  0.00000000000E+00 -0.00000000000E+00 -0.27070772484E+04  0.27070772484E+04  0.00000000000E+00 0. -1.
         23    2    1    2    0    0 -0.95989702519E+03  0.16334669767E+03 -0.27996136473E+03  0.10172237097E+04  0.91001468419E+02 0.  0.
         13    1    3    3    0    0 -0.38485751415E+03  0.11060192882E+03 -0.10952413705E+03  0.41514290245E+03  0.00000000000E+00 0. -1.
        -13    1    3    3    0    0 -0.57503951103E+03  0.52744768845E+02 -0.17043722768E+03  0.60208080726E+03  0.00000000000E+00 0.  1.
         22    1    1    2    0    0  0.95989702519E+03 -0.16334669767E+03 -0.19433412227E+04  0.21736281997E+04  0.00000000000E+00 0. -1.
<mgrwt>
<rscale>  0 0.22887686E+04</rscale>
<asrwt>0</asrwt>
<pdfrwt beam="1">  1        2 0.41647342E+00 0.22887686E+04</pdfrwt>
<pdfrwt beam="2">  1       -2 0.74426872E-01 0.22887686E+04</pdfrwt>
<totfact> 0.38769321E+00</totfact>
</mgrwt>
</event>
<event>
 6    1  0.9364335E-007  0.8412809E+03  0.7818608E-02  0.9502115E-01
          3   -1    0    0  501    0  0.00000000000E+00  0.00000000000E+00  0.73699216558E+03  0.73699216558E+03  0.00000000000E+00 0. -1.
         -3   -1    0    0    0  501 -0.00000000000E+00 -0.00000000000E+00 -0.24008175801E+03  0.24008175801E+03  0.00000000000E+00 0.  1.
         23    2    1    2    0    0  0.16157083596E+03 -0.29079906430E+03  0.54104341607E+03  0.64148942861E+03  0.90063744747E+02 0.  0.
         11    1    3    3    0    0  0.11354071391E+03 -0.26749182627E+03  0.44187061755E+03  0.52886010767E+03  0.00000000000E+00 0. -1.
        -11    1    3    3    0    0  0.48030122047E+02 -0.23307238033E+02  0.99172798521E+02  0.11262932094E+03  0.00000000000E+00 0.  1.
         22    1    1    2    0    0 -0.16157083596E+03  0.29079906430E+03 -0.44133008505E+02  0.33558449498E+03  0.00000000000E+00 0.  1.
<mgrwt>
<rscale>  0 0.84128087E+03</rscale>
<asrwt>0</asrwt>
<pdfrwt beam="1">  1        3 0.11338341E+00 0.84128087E+03</pdfrwt>
<pdfrwt beam="2">  1       -3 0.36935656E-01 0.84128087E+03</pdfrwt>
<totfact> 0.12432436E+01</totfact>
</mgrwt>
</event>
<event>
 6    1  0.9364335E-007  0.2757578E+04  0.7818608E-02  0.8316561E-01
         -2   -1    0    0    0  501 -0.00000000000E+00  0.00000000000E+00  0.13656579300E+04  0.13656579300E+04  0.00000000000E+00 0.  1.
          2   -1    0    0  501    0  0.00000000000E+00 -0.00000000000E+00 -0.13920459715E+04  0.13920459715E+04  0.00000000000E+00 0. -1.
         23    2    1    2    0    0 -0.11215635807E+04  0.68364202857E+03 -0.42750312942E+03  0.13843268220E+04  0.91271767381E+02 0.  0.
         11    1    3    3    0    0 -0.41114106363E+03  0.29396344700E+03 -0.19005330411E+03  0.53997383342E+03  0.00000000000E+00 0.  1.
        -11    1    3    3    0    0 -0.71042251710E+03  0.38967858157E+03 -0.23744982531E+03  0.84435298855E+03  0.00000000000E+00 0. -1.
         22    1    1    2    0    0  0.11215635807E+04 -0.68364202857E+03  0.40111508797E+03  0.13733770795E+04  0.00000000000E+00 0. -1.
<mgrwt>
<rscale>  0 0.27575776E+04</rscale>
<asrwt>0</asrwt>
<pdfrwt beam="1">  1        2 0.21416092E+00 0.27575776E+04</pdfrwt>
<pdfrwt beam="2">  1       -2 0.21010122E+00 0.27575776E+04</pdfrwt>
<totfact> 0.14600622E+00</totfact>
</mgrwt>
</event>
<event>
 6    1  0.9364335E-007  0.2002334E+04  0.7818608E-02  0.8605530E-01
         -1   -1    0    0    0  501 -0.00000000000E+00  0.00000000000E+00  0.56884498179E+03  0.56884498179E+03  0.00000000000E+00 0.  1.
          1   -1    0    0  501    0  0.00000000000E+00 -0.00000000000E+00 -0.17620541810E+04  0.17620541810E+04  0.00000000000E+00 0. -1.
         23    2    1    2    0    0 -0.34032990994E+03 -0.86942883362E+03 -0.18395140712E+03  0.95600562684E+03  0.91529743956E+02 0.  0.
         11    1    3    3    0    0 -0.15962594331E+03 -0.35387386586E+03 -0.35159800873E+02  0.38979913586E+03  0.00000000000E+00 0.  1.
        -11    1    3    3    0    0 -0.18070396663E+03 -0.51555496776E+03 -0.14879160625E+03  0.56620649098E+03  0.00000000000E+00 0. -1.
         22    1    1    2    0    0  0.34032990994E+03  0.86942883362E+03 -0.10092577921E+04  0.13748935360E+04  0.00000000000E+00 0. -1.
<mgrwt>
<rscale>  0 0.20023343E+04</rscale>
<asrwt>0</asrwt>
<pdfrwt beam="1">  1        1 0.27108526E+00 0.20023343E+04</pdfrwt>
<pdfrwt beam="2">  1       -1 0.87514613E-01 0.20023343E+04</pdfrwt>
<totfact> 0.51511619E+00</totfact>
</mgrwt>
</event>
<event>
 6    1  0.9364335E-007  0.1954470E+04  0.7818608E-02  0.8628208E-01
         -1   -1    0    0    0  501 -0.00000000000E+00  0.00000000000E+00  0.63075508839E+03  0.63075508839E+03  0.00000000000E+00 0.  1.
          1   -1    0    0  501    0  0.00000000000E+00 -0.00000000000E+00 -0.15140402942E+04  0.15140402942E+04  0.00000000000E+00 0. -1.
         23    2    1    2    0    0 -0.48797133529E+03  0.44053206606E+03  0.34735512904E+03  0.74956774559E+03  0.94929943933E+02 0.  0.
         11    1    3    3    0    0 -0.41031365226E+03  0.32973688109E+03  0.24908959528E+03  0.58234811793E+03  0.00000000000E+00 0.  1.
        -11    1    3    3    0    0 -0.77657683028E+02  0.11079518498E+03  0.98265533759E+02  0.16721962765E+03  0.00000000000E+00 0. -1.
         22    1    1    2    0    0  0.48797133529E+03 -0.44053206606E+03 -0.12306403348E+04  0.13952276370E+04  0.00000000000E+00 0. -1.
<mgrwt>
<rscale>  0 0.19544704E+04</rscale>
<asrwt>0</asrwt>
<pdfrwt beam="1">  1        1 0.23292927E+00 0.19544704E+04</pdfrwt>
<pdfrwt beam="2">  1       -1 0.97039245E-01 0.19544704E+04</pdfrwt>
<totfact> 0.60797349E+00</totfact>
</mgrwt>
</event>
<event>
 6    1  0.9364335E-007  0.2829665E+04  0.7818608E-02  0.8294117E-01
          2   -1    0    0  501    0  0.00000000000E+00  0.00000000000E+00  0.11216144592E+04  0.11216144592E+04  0.00000000000E+00 0. -1.
         -2   -1    0    0    0  501 -0.00000000000E+00 -0.00000000000E+00 -0.17847048730E+04  0.17847048730E+04  0.00000000000E+00 0.  1.
         23    2    1    2    0    0  0.39091071806E+03  0.95690414546E+03 -0.13217063686E+04  0.16806555492E+04  0.96013629486E+02 0.  0.
         11    1    3    3    0    0  0.34457623136E+03  0.89758544867E+03 -0.12469300054E+04  0.15745560820E+04  0.00000000000E+00 0. -1.
        -11    1    3    3    0    0  0.46334486699E+02  0.59318696795E+02 -0.74776363184E+02  0.10609946719E+03  0.00000000000E+00 0.  1.
         22    1    1    2    0    0 -0.39091071806E+03 -0.95690414546E+03  0.65861595480E+03  0.12256637830E+04  0.00000000000E+00 0. -1.
<mgrwt>
<rscale>  0 0.28296649E+04</rscale>
<asrwt>0</asrwt>
<pdfrwt beam="1">  1        2 0.17255607E+00 0.28296649E+04</pdfrwt>
<pdfrwt beam="2">  1       -2 0.27456998E+00 0.28296649E+04</pdfrwt>
<totfact> 0.83357889E-01</totfact>
</mgrwt>
</event>
<event>
 6    1  0.9364335E-007  0.2588075E+04  0.7818608E-02  0.8372263E-01
         -1   -1    0    0    0  501 -0.00000000000E+00  0.00000000000E+00  0.63934684119E+03  0.63934684119E+03  0.00000000000E+00 0.  1.
          1   -1    0    0  501    0  0.00000000000E+00 -0.00000000000E+00 -0.26191310932E+04  0.26191310932E+04  0.00000000000E+00 0. -1.
         23    2    1    2    0    0  0.89914272090E+03 -0.32974825614E+03 -0.20837752991E+04  0.22951474185E+04  0.91600383495E+02 0.  0.
         11    1    3    3    0    0  0.45695951656E+03 -0.11924198873E+03 -0.10084388326E+04  0.11135436815E+04  0.00000000000E+00 0.  1.
        -11    1    3    3    0    0  0.44218320435E+03 -0.21050626740E+03 -0.10753364666E+04  0.11816037370E+04  0.00000000000E+00 0. -1.
         22    1    1    2    0    0 -0.89914272090E+03  0.32974825614E+03  0.10399104714E+03  0.96333051590E+03  0.00000000000E+00 0.  1.
<mgrwt>
<rscale>  0 0.25880751E+04</rscale>
<asrwt>0</asrwt>
<pdfrwt beam="1">  1        1 0.40294326E+00 0.25880751E+04</pdfrwt>
<pdfrwt beam="2">  1       -1 0.98361049E-01 0.25880751E+04</pdfrwt>
<totfact> 0.97589952E-01</totfact>
</mgrwt>
</event>
<event>
 6    1  0.9364335E-007  0.1484527E+04  0.7818608E-02  0.8894808E-01
         -2   -1    0    0    0  501 -0.00000000000E+00  0.00000000000E+00  0.29833891349E+03  0.29833891349E+03  0.00000000000E+00 0.  1.
          2   -1    0    0  501    0  0.00000000000E+00 -0.00000000000E+00 -0.18467435193E+04  0.18467435193E+04  0.00000000000E+00 0. -1.
         23    2    1    2    0    0 -0.58039315120E+03 -0.44176143569E+03 -0.95378773631E+03  0.12040305758E+04  0.89270406814E+02 0.  0.
         11    1    3    3    0    0 -0.33097678187E+03 -0.19749124105E+03 -0.48314270518E+03  0.61804149861E+03  0.00000000000E+00 0. -1.
        -11    1    3    3    0    0 -0.24941636933E+03 -0.24427019464E+03 -0.47064503113E+03  0.58598907721E+03  0.00000000000E+00 0.  1.
         22    1    1    2    0    0  0.58039315120E+03  0.44176143569E+03 -0.59461686947E+03  0.94105185696E+03  0.00000000000E+00 0.  1.
<mgrwt>
<rscale>  0 0.14845275E+04</rscale>
<asrwt>0</asrwt>
<pdfrwt beam="1">  1        2 0.28411439E+00 0.14845275E+04</pdfrwt>
<pdfrwt beam="2">  1       -2 0.45898294E-01 0.14845275E+04</pdfrwt>
<totfact> 0.35392232E+01</totfact>
</mgrwt>
</event>
<event>
 6    1  0.9364335E-007  0.2882469E+04  0.7818608E-02  0.8278113E-01
          2   -1    0    0  501    0  0.00000000000E+00  0.00000000000E+00  0.12475589244E+04  0.12475589244E+04  0.00000000000E+00 0. -1.
         -2   -1    0    0    0  501 -0.00000000000E+00 -0.00000000000E+00 -0.16649767812E+04  0.16649767812E+04  0.00000000000E+00 0.  1.
         23    2    1    2    0    0 -0.12143375271E+04  0.16850642762E+03 -0.97176455944E+03  0.15670579791E+04  0.91292414605E+02 0.  0.
         11    1    3    3    0    0 -0.15738480490E+03  0.35943713500E+02 -0.94295382806E+02  0.18695867611E+03  0.00000000000E+00 0.  1.
        -11    1    3    3    0    0 -0.10569527222E+04  0.13256271412E+03 -0.87746917664E+03  0.13800993030E+04  0.00000000000E+00 0. -1.
         22    1    1    2    0    0  0.12143375271E+04 -0.16850642762E+03  0.55434670259E+03  0.13454777265E+04  0.00000000000E+00 0. -1.
<mgrwt>
<rscale>  0 0.28824688E+04</rscale>
<asrwt>0</asrwt>
<pdfrwt beam="1">  1        2 0.19193214E+00 0.28824688E+04</pdfrwt>
<pdfrwt beam="2">  1       -2 0.25615027E+00 0.28824688E+04</pdfrwt>
<totfact> 0.90352584E-01</totfact>
</mgrwt>
</event>
<event>
 6    1  0.9364335E-007  0.3255946E+04  0.7818608E-02  0.8174196E-01
         -1   -1    0    0    0  501 -0.00000000000E+00  0.00000000000E+00  0.10871622400E+04  0.10871622400E+04  0.00000000000E+00 0.  1.
          1   -1    0    0  501    0  0.00000000000E+00 -0.00000000000E+00 -0.24378103747E+04  0.24378103747E+04  0.00000000000E+00 0. -1.
         23    2    1    2    0    0  0.11862022400E+04  0.74329828293E+03  0.22107192296E+03  0.14202464968E+04  0.93054957365E+02 0.  0.
         11    1    3    3    0    0  0.22921133031E+03  0.15242580016E+03  0.80467910737E+02  0.28678658120E+03  0.00000000000E+00 0.  1.
        -11    1    3    3    0    0  0.95699090966E+03  0.59087248277E+03  0.14060401222E+03  0.11334599156E+04  0.00000000000E+00 0. -1.
         22    1    1    2    0    0 -0.11862022400E+04 -0.74329828293E+03 -0.15717200577E+04  0.21047261179E+04  0.00000000000E+00 0. -1.
<mgrwt>
<rscale>  0 0.32559456E+04</rscale>
<asrwt>0</asrwt>
<pdfrwt beam="1">  1        1 0.37504775E+00 0.32559456E+04</pdfrwt>
<pdfrwt beam="2">  1       -1 0.16725573E+00 0.32559456E+04</pdfrwt>
<totfact> 0.32110106E-01</totfact>
</mgrwt>
</event>
<event>
 6    1  0.9364335E-007  0.2310622E+04  0.7818608E-02  0.8473745E-01
          1   -1    0    0  501    0  0.00000000000E+00  0.00000000000E+00  0.19584404883E+04  0.19584404883E+04  0.00000000000E+00 0. -1.
         -1   -1    0    0    0  501 -0.00000000000E+00 -0.00000000000E+00 -0.68153362361E+03  0.68153362361E+03  0.00000000000E+00 0.  1.
         23    2    1    2    0    0 -0.10170729716E+04 -0.45025959752E+03  0.29016905879E+03  0.11530905817E+04  0.90822200498E+02 0.  0.
         11    1    3    3    0    0 -0.65444655657E+03 -0.26679143418E+03  0.22368456495E+03  0.74129127160E+03  0.00000000000E+00 0.  1.
        -11    1    3    3    0    0 -0.36262641507E+03 -0.18346816334E+03  0.66484493832E+02  0.41179931009E+03  0.00000000000E+00 0. -1.
         22    1    1    2    0    0  0.10170729716E+04  0.45025959752E+03  0.98673780588E+03  0.14868835302E+04  0.00000000000E+00 0. -1.
<mgrwt>
<rscale>  0 0.23106216E+04</rscale>
<asrwt>0</asrwt>
<pdfrwt beam="1">  1        1 0.30129853E+00 0.23106216E+04</pdfrwt>
<pdfrwt beam="2">  1       -1 0.10485133E+00 0.23106216E+04</pdfrwt>
<totfact> 0.24525206E+00</totfact>
</mgrwt>
</event>
<event>
 6    1  0.9364335E-007  0.3464075E+04  0.7818608E-02  0.8122357E-01
         -2   -1    0    0    0  501 -0.00000000000E+00  0.00000000000E+00  0.79339237300E+03  0.79339237300E+03  0.00000000000E+00 0.  1.
          2   -1    0    0  501    0  0.00000000000E+00 -0.00000000000E+00 -0.37811735409E+04  0.37811735409E+04  0.00000000000E+00 0. -1.
         23    2    1    2    0    0  0.11202882500E+04 -0.54829533729E+03  0.90249435927E+02  0.12534296719E+04  0.85249291361E+02 0.  0.
         11    1    3    3    0    0  0.71439895316E+03 -0.33607724697E+03  0.17711479491E+02  0.78970087800E+03  0.00000000000E+00 0. -1.
        -11    1    3    3    0    0  0.40588929684E+03 -0.21221809032E+03  0.72537956436E+02  0.46372879388E+03  0.00000000000E+00 0.  1.
         22    1    1    2    0    0 -0.11202882500E+04  0.54829533729E+03 -0.30780306038E+04  0.33211362420E+04  0.00000000000E+00 0. -1.
<mgrwt>
<rscale>  0 0.34640752E+04</rscale>
<asrwt>0</asrwt>
<pdfrwt beam="1">  1        2 0.58171899E+00 0.34640752E+04</pdfrwt>
<pdfrwt beam="2">  1       -2 0.12206037E+00 0.34640752E+04</pdfrwt>
<totfact> 0.21242867E-01</totfact>
</mgrwt>
</event>
<event>
 6    1  0.9364335E-007  0.1319124E+04  0.7818608E-02  0.9014536E-01
          2   -1    0    0  501    0  0.00000000000E+00  0.00000000000E+00  0.18678988927E+04  0.18678988927E+04  0.00000000000E+00 0. -1.
         -2   -1    0    0    0  501 -0.00000000000E+00 -0.00000000000E+00 -0.23289381824E+03  0.23289381824E+03  0.00000000000E+00 0.  1.
         23    2    1    2    0    0 -0.42867470619E+03  0.10358106950E+03  0.47246150476E+02  0.45292456016E+03  0.91746480965E+02 0.  0.
         11    1    3    3    0    0 -0.94430665800E+02  0.51196316119E+02  0.39695527768E+02  0.11451614887E+03  0.00000000000E+00 0. -1.
        -11    1    3    3    0    0 -0.33424404039E+03  0.52384753382E+02  0.75506227078E+01  0.33840841129E+03  0.00000000000E+00 0.  1.
         22    1    1    2    0    0  0.42867470619E+03 -0.10358106950E+03  0.15877589240E+04  0.16478681508E+04  0.00000000000E+00 0. -1.
<mgrwt>
<rscale>  0 0.13191241E+04</rscale>
<asrwt>0</asrwt>
<pdfrwt beam="1">  1        2 0.28736905E+00 0.13191241E+04</pdfrwt>
<pdfrwt beam="2">  1       -2 0.35829820E-01 0.13191241E+04</pdfrwt>
<totfact> 0.56735946E+01</totfact>
</mgrwt>
</event>
<event>
 6    1  0.9364335E-007  0.1773814E+04  0.7818608E-02  0.8720350E-01
         -1   -1    0    0    0  501 -0.00000000000E+00  0.00000000000E+00  0.68112761333E+03  0.68112761333E+03  0.00000000000E+00 0.  1.
          1   -1    0    0  501    0  0.00000000000E+00 -0.00000000000E+00 -0.11548556856E+04  0.11548556856E+04  0.00000000000E+00 0. -1.
         23    2    1    2    0    0  0.53501617742E+03  0.69308860121E+02  0.48713001443E+03  0.73403307728E+03  0.10228821728E+03 0.  0.
         13    1    3    3    0    0  0.18213202919E+03 -0.17361950945E+02  0.12917478067E+03  0.22396347327E+03  0.00000000000E+00 0. -1.
        -13    1    3    3    0    0  0.35288414823E+03  0.86670811066E+02  0.35795523376E+03  0.51006960401E+03  0.00000000000E+00 0.  1.
         22    1    1    2    0    0 -0.53501617742E+03 -0.69308860121E+02 -0.96085808667E+03  0.11019502216E+04  0.00000000000E+00 0. -1.
<mgrwt>
<rscale>  0 0.17738141E+04</rscale>
<asrwt>0</asrwt>
<pdfrwt beam="1">  1        1 0.17767010E+00 0.17738141E+04</pdfrwt>
<pdfrwt beam="2">  1       -1 0.10478886E+00 0.17738141E+04</pdfrwt>
<totfact> 0.93332175E+00</totfact>
</mgrwt>
</event>
<event>
 6    1  0.9364335E-007  0.8715069E+03  0.7818608E-02  0.9461917E-01
          4   -1    0    0  501    0  0.00000000000E+00  0.00000000000E+00  0.22204171380E+03  0.22204171380E+03  0.00000000000E+00 0. -1.
         -4   -1    0    0    0  501 -0.00000000000E+00 -0.00000000000E+00 -0.85515952468E+03  0.85515952468E+03  0.00000000000E+00 0.  1.
         23    2    1    2    0    0  0.68549227483E+02 -0.13533823139E+03  0.17839836747E+03  0.25162632294E+03  0.92056479497E+02 0.  0.
         11    1    3    3    0    0  0.13501257112E+02 -0.11106375360E+03  0.14389403280E+03  0.18227159401E+03  0.00000000000E+00 0. -1.
        -11    1    3    3    0    0  0.55047970371E+02 -0.24274477784E+02  0.34504334663E+02  0.69354728925E+02  0.00000000000E+00 0.  1.
         22    1    1    2    0    0 -0.68549227483E+02  0.13533823139E+03 -0.81151617834E+03  0.82557491554E+03  0.00000000000E+00 0.  1.
<mgrwt>
<rscale>  0 0.87150694E+03</rscale>
<asrwt>0</asrwt>
<pdfrwt beam="1">  1        4 0.34160264E-01 0.87150694E+03</pdfrwt>
<pdfrwt beam="2">  1       -4 0.13156300E+00 0.87150694E+03</pdfrwt>
<totfact> 0.69753593E+00</totfact>
</mgrwt>
</event>
<event>
 6    1  0.9364335E-007  0.1550858E+04  0.7818608E-02  0.8851320E-01
         -2   -1    0    0    0  501 -0.00000000000E+00  0.00000000000E+00  0.63201558671E+03  0.63201558671E+03  0.00000000000E+00 0.  1.
          2   -1    0    0  501    0  0.00000000000E+00 -0.00000000000E+00 -0.95138501244E+03  0.95138501244E+03  0.00000000000E+00 0. -1.
         23    2    1    2    0    0  0.28021642878E+03 -0.65439202234E+03 -0.46733480376E+03  0.85632156703E+03  0.90192247384E+02 0.  0.
         13    1    3    3    0    0  0.16836983348E+03 -0.41363153098E+03 -0.24101335743E+03  0.50747106588E+03  0.00000000000E+00 0. -1.
        -13    1    3    3    0    0  0.11184659530E+03 -0.24076049136E+03 -0.22632144633E+03  0.34885050114E+03  0.00000000000E+00 0.  1.
         22    1    1    2    0    0 -0.28021642878E+03  0.65439202234E+03  0.14796537804E+03  0.72707903212E+03  0.00000000000E+00 0.  1.
<mgrwt>
<rscale>  0 0.15508580E+04</rscale>
<asrwt>0</asrwt>
<pdfrwt beam="1">  1        2 0.14636692E+00 0.15508580E+04</pdfrwt>
<pdfrwt beam="2">  1       -2 0.97233168E-01 0.15508580E+04</pdfrwt>
<totfact> 0.23020044E+01</totfact>
</mgrwt>
</event>
<event>
 6    1  0.9364335E-007  0.1246398E+04  0.7818608E-02  0.9073187E-01
          1   -1    0    0  501    0  0.00000000000E+00  0.00000000000E+00  0.96082085342E+03  0.96082085342E+03  0.00000000000E+00 0. -1.
         -1   -1    0    0    0  501 -0.00000000000E+00 -0.00000000000E+00 -0.40421365532E+03  0.40421365532E+03  0.00000000000E+00 0.  1.
         23    2    1    2    0    0 -0.64186310132E+02 -0.40715729492E+03  0.78685223003E+03  0.89290134962E+03  0.90771377922E+02 0.  0.
         11    1    3    3    0    0 -0.65435916689E+02 -0.19163581996E+03  0.44297413756E+03  0.48706491685E+03  0.00000000000E+00 0. -1.
        -11    1    3    3    0    0  0.12496065572E+01 -0.21552147495E+03  0.34387809247E+03  0.40583643277E+03  0.00000000000E+00 0.  1.
         22    1    1    2    0    0  0.64186310132E+02  0.40715729492E+03 -0.23024503193E+03  0.47213315912E+03  0.00000000000E+00 0.  1.
<mgrwt>
<rscale>  0 0.12463979E+04</rscale>
<asrwt>0</asrwt>
<pdfrwt beam="1">  1        1 0.14781859E+00 0.12463979E+04</pdfrwt>
<pdfrwt beam="2">  1       -1 0.62186716E-01 0.12463979E+04</pdfrwt>
<totfact> 0.42039862E+01</totfact>
</mgrwt>
</event>
<event>
 6    1  0.9364335E-007  0.3741071E+04  0.7818608E-02  0.8058920E-01
         -2   -1    0    0    0  501 -0.00000000000E+00  0.00000000000E+00  0.22254626536E+04  0.22254626536E+04  0.00000000000E+00 0.  1.
          2   -1    0    0  501    0  0.00000000000E+00 -0.00000000000E+00 -0.15722139820E+04  0.15722139820E+04  0.00000000000E+00 0. -1.
         23    2    1    2    0    0 -0.16943301921E+04  0.40730489783E+01 -0.47499426855E+03  0.17620677533E+04  0.92151084685E+02 0.  0.
         11    1    3    3    0    0 -0.15016468960E+04 -0.74401068909E+01 -0.44863152750E+03  0.15672488644E+04  0.00000000000E+00 0. -1.
        -11    1    3    3    0    0 -0.19268329613E+03  0.11513155869E+02 -0.26362741056E+02  0.19481888893E+03  0.00000000000E+00 0.  1.
         22    1    1    2    0    0  0.16943301921E+04 -0.40730489783E+01  0.11282429402E+04  0.20356088823E+04  0.00000000000E+00 0.  1.
<mgrwt>
<rscale>  0 0.37410712E+04</rscale>
<asrwt>0</asrwt>
<pdfrwt beam="1">  1        2 0.24187907E+00 0.37410712E+04</pdfrwt>
<pdfrwt beam="2">  1       -2 0.34237887E+00 0.37410712E+04</pdfrwt>
<totfact> 0.16175474E-01</totfact>
</mgrwt>
</event>
<event>
 6    1  0.9364335E-007  0.3335643E+04  0.7818608E-02  0.8153885E-01
          2   -1    0    0  501    0  0.00000000000E+00  0.00000000000E+00  0.28965502671E+04  0.28965502671E+04  0.00000000000E+00 0. -1.
         -2   -1    0    0    0  501 -0.00000000000E+00 -0.00000000000E+00 -0.96032443103E+03  0.96032443103E+03  0.00000000000E+00 0.  1.
         23    2    1    2    0    0  0.92157742395E+03 -0.27922392376E+03  0.25416528434E+04  0.27194157718E+04  0.89174072979E+02 0.  0.
         11    1    3    3    0    0  0.42546747688E+03 -0.84184620255E+02  0.11076682215E+04  0.11895539135E+04  0.00000000000E+00 0. -1.
        -11    1    3    3    0    0  0.49610994708E+03 -0.19503930351E+03  0.14339846219E+04  0.15298618583E+04  0.00000000000E+00 0.  1.
         22    1    1    2    0    0 -0.92157742395E+03  0.27922392376E+03 -0.60542700736E+03  0.11374589264E+04  0.00000000000E+00 0.  1.
<mgrwt>
<rscale>  0 0.33356427E+04</rscale>
<asrwt>0</asrwt>
<pdfrwt beam="1">  1        2 0.44562311E+00 0.33356427E+04</pdfrwt>
<pdfrwt beam="2">  1       -2 0.14774222E+00 0.33356427E+04</pdfrwt>
<totfact> 0.52408926E-01</totfact>
</mgrwt>
</event>
<event>
 6    1  0.9364335E-007  0.1172960E+04  0.7818608E-02  0.9136859E-01
         -2   -1    0    0    0  501 -0.00000000000E+00  0.00000000000E+00  0.39051928405E+03  0.39051928405E+03  0.00000000000E+00 0.  1.
          2   -1    0    0  501    0  0.00000000000E+00 -0.00000000000E+00 -0.88077338867E+03  0.88077338867E+03  0.00000000000E+00 0. -1.
         23    2    1    2    0    0  0.29214398019E+03 -0.16982808592E+03 -0.76151022324E+03  0.83796881483E+03  0.90023500313E+02 0.  0.
         13    1    3    3    0    0  0.31485276869E+02 -0.53626124555E+02 -0.17478307501E+03  0.18551605646E+03  0.00000000000E+00 0. -1.
        -13    1    3    3    0    0  0.26065870332E+03 -0.11620196137E+03 -0.58672714823E+03  0.65245275837E+03  0.00000000000E+00 0.  1.
         22    1    1    2    0    0 -0.29214398019E+03  0.16982808592E+03  0.27125611862E+03  0.43332385789E+03  0.00000000000E+00 0.  1.
<mgrwt>
<rscale>  0 0.11729603E+04</rscale>
<asrwt>0</asrwt>
<pdfrwt beam="1">  1        2 0.13550360E+00 0.11729603E+04</pdfrwt>
<pdfrwt beam="2">  1       -2 0.60079890E-01 0.11729603E+04</pdfrwt>
<totfact> 0.77164205E+01</totfact>
</mgrwt>
</event>
<event>
 6    1  0.9364335E-007  0.3995904E+03  0.7818608E-02  0.1043922E+00
          1   -1    0    0  501    0  0.00000000000E+00  0.00000000000E+00  0.13290328959E+04  0.13290328959E+04  0.00000000000E+00 0. -1.
         -1   -1    0    0    0  501 -0.00000000000E+00 -0.00000000000E+00 -0.30035466931E+02  0.30035466931E+02  0.00000000000E+00 0.  1.
         23    2    1    2    0    0  0.65468306770E+02  0.83264247040E+02  0.12171822967E+04  0.12252298411E+04  0.91849802126E+02 0.  0.
         13    1    3    3    0    0  0.59587488699E+02  0.83848880897E+02  0.65596791969E+03  0.66398434869E+03  0.00000000000E+00 0. -1.
        -13    1    3    3    0    0  0.58808180701E+01 -0.58463385683E+00  0.56121437699E+03  0.56124549242E+03  0.00000000000E+00 0.  1.
         22    1    1    2    0    0 -0.65468306770E+02 -0.83264247040E+02  0.81815132283E+02  0.13383852172E+03  0.00000000000E+00 0.  1.
<mgrwt>
<rscale>  0 0.39959041E+03</rscale>
<asrwt>0</asrwt>
<pdfrwt beam="1">  1        1 0.20446655E+00 0.39959041E+03</pdfrwt>
<pdfrwt beam="2">  1       -1 0.46208421E-02 0.39959041E+03</pdfrwt>
<totfact> 0.18445690E+03</totfact>
</mgrwt>
</event>
<event>
 6    1  0.9364335E-007  0.3957107E+04  0.7818608E-02  0.8013256E-01
          1   -1    0    0  501    0  0.00000000000E+00  0.00000000000E+00  0.21713218235E+04  0.21713218235E+04  0.00000000000E+00 0. -1.
         -1   -1    0    0    0  501 -0.00000000000E+00 -0.00000000000E+00 -0.18028986379E+04  0.18028986379E+04  0.00000000000E+00 0.  1.
         23    2    1    2    0    0 -0.50457384696E+03  0.17598565536E+04  0.93510667056E+03  0.20577601752E+04  0.90898829392E+02 0.  0.
         11    1    3    3    0    0 -0.36529669003E+03  0.12018363845E+04  0.68285055262E+03  0.14297332773E+04  0.00000000000E+00 0.  1.
        -11    1    3    3    0    0 -0.13927715694E+03  0.55802016905E+03  0.25225611794E+03  0.62802689795E+03  0.00000000000E+00 0. -1.
         22    1    1    2    0    0  0.50457384696E+03 -0.17598565536E+04 -0.56668348505E+03  0.19164602862E+04  0.00000000000E+00 0. -1.
<mgrwt>
<rscale>  0 0.39571066E+04</rscale>
<asrwt>0</asrwt>
<pdfrwt beam="1">  1        1 0.33404951E+00 0.39571066E+04</pdfrwt>
<pdfrwt beam="2">  1       -1 0.27736902E+00 0.39571066E+04</pdfrwt>
<totfact> 0.82850881E-02</totfact>
</mgrwt>
</event>
<event>
 6    1  0.9364335E-007  0.1704070E+04  0.7818608E-02  0.8759046E-01
         -2   -1    0    0    0  501 -0.00000000000E+00  0.00000000000E+00  0.60980137550E+03  0.60980137550E+03  0.00000000000E+00 0.  1.
          2   -1    0    0  501    0  0.00000000000E+00 -0.00000000000E+00 -0.11904924751E+04  0.11904924751E+04  0.00000000000E+00 0. -1.
         23    2    1    2    0    0  0.50887302262E+03 -0.35985396084E+03  0.31879790187E+03  0.70597804149E+03  0.91248378359E+02 0.  0.
         13    1    3    3    0    0  0.36647349092E+03 -0.28023644496E+03  0.27488306372E+03  0.53702512358E+03  0.00000000000E+00 0. -1.
        -13    1    3    3    0    0  0.14239953170E+03 -0.79617515874E+02  0.43914838145E+02  0.16895291791E+03  0.00000000000E+00 0.  1.
         22    1    1    2    0    0 -0.50887302262E+03  0.35985396084E+03 -0.89948900142E+03  0.10943158091E+04  0.00000000000E+00 0. -1.
<mgrwt>
<rscale>  0 0.17040704E+04</rscale>
<asrwt>0</asrwt>
<pdfrwt beam="1">  1        2 0.18315269E+00 0.17040704E+04</pdfrwt>
<pdfrwt beam="2">  1       -2 0.93815596E-01 0.17040704E+04</pdfrwt>
<totfact> 0.17523071E+01</totfact>
</mgrwt>
</event>
<event>
 6    1  0.9364335E-007  0.2836464E+04  0.7818608E-02  0.8292036E-01
          1   -1    0    0  501    0  0.00000000000E+00  0.00000000000E+00  0.53565860704E+03  0.53565860704E+03  0.00000000000E+00 0. -1.
         -1   -1    0    0    0  501 -0.00000000000E+00 -0.00000000000E+00 -0.37549704616E+04  0.37549704616E+04  0.00000000000E+00 0.  1.
         23    2    1    2    0    0  0.89710127152E+03 -0.74302283951E+02  0.43499222263E+02  0.90592115749E+03  0.92138159789E+02 0.  0.
         11    1    3    3    0    0  0.68968587936E+02  0.23975810810E+01 -0.19925527935E+02  0.71829250173E+02  0.00000000000E+00 0.  1.
        -11    1    3    3    0    0  0.82813268359E+03 -0.76699865032E+02  0.63424750198E+02  0.83409190732E+03  0.00000000000E+00 0. -1.
         22    1    1    2    0    0 -0.89710127152E+03  0.74302283951E+02 -0.32628110768E+04  0.33847079111E+04  0.00000000000E+00 0.  1.
<mgrwt>
<rscale>  0 0.28364642E+04</rscale>
<asrwt>0</asrwt>
<pdfrwt beam="1">  1        1 0.82409017E-01 0.28364642E+04</pdfrwt>
<pdfrwt beam="2">  1       -1 0.57768776E+00 0.28364642E+04</pdfrwt>
<totfact> 0.18838791E-02</totfact>
</mgrwt>
</event>
<event>
 6    1  0.9364335E-007  0.4902537E+04  0.7818608E-02  0.7843720E-01
          2   -1    0    0  501    0  0.00000000000E+00  0.00000000000E+00  0.27960313571E+04  0.27960313571E+04  0.00000000000E+00 0. -1.
         -2   -1    0    0    0  501 -0.00000000000E+00 -0.00000000000E+00 -0.21490162083E+04  0.21490162083E+04  0.00000000000E+00 0.  1.
         23    2    1    2    0    0 -0.17861116166E+04  0.15472894064E+04 -0.33027682789E+03  0.23878227372E+04  0.91188964069E+02 0.  0.
         11    1    3    3    0    0 -0.52991293677E+03  0.40775732739E+03 -0.10704081652E+03  0.67714953666E+03  0.00000000000E+00 0.  1.
        -11    1    3    3    0    0 -0.12561986799E+04  0.11395320790E+04 -0.22323601137E+03  0.17106732006E+04  0.00000000000E+00 0. -1.
         22    1    1    2    0    0  0.17861116166E+04 -0.15472894064E+04  0.97729197662E+03  0.25572248282E+04  0.00000000000E+00 0. -1.
<mgrwt>
<rscale>  0 0.49025368E+04</rscale>
<asrwt>0</asrwt>
<pdfrwt beam="1">  1        2 0.43015867E+00 0.49025368E+04</pdfrwt>
<pdfrwt beam="2">  1       -2 0.33061788E+00 0.49025368E+04</pdfrwt>
<totfact> 0.35095593E-02</totfact>
</mgrwt>
</event>
<event>
 6    1  0.9364335E-007  0.2184838E+04  0.7818608E-02  0.8524765E-01
         -2   -1    0    0    0  501 -0.00000000000E+00  0.00000000000E+00  0.10505567524E+04  0.10505567524E+04  0.00000000000E+00 0.  1.
          2   -1    0    0  501    0  0.00000000000E+00 -0.00000000000E+00 -0.11359498593E+04  0.11359498593E+04  0.00000000000E+00 0. -1.
         23    2    1    2    0    0  0.55447624454E+02 -0.10882368495E+04  0.40109213659E+01  0.10931965184E+04  0.87912801127E+02 0.  0.
         11    1    3    3    0    0  0.54007068710E+00 -0.15073928313E+03  0.30162606321E+02  0.15372835124E+03  0.00000000000E+00 0.  1.
        -11    1    3    3    0    0  0.54907553767E+02 -0.93749756639E+03 -0.26151684955E+02  0.93946816714E+03  0.00000000000E+00 0. -1.
         22    1    1    2    0    0 -0.55447624454E+02  0.10882368495E+04 -0.89404028289E+02  0.10933100932E+04  0.00000000000E+00 0. -1.
<mgrwt>
<rscale>  0 0.21848385E+04</rscale>
<asrwt>0</asrwt>
<pdfrwt beam="1">  1        2 0.17476152E+00 0.21848385E+04</pdfrwt>
<pdfrwt beam="2">  1       -2 0.16162412E+00 0.21848385E+04</pdfrwt>
<totfact> 0.46434931E+00</totfact>
</mgrwt>
</event>
<event>
 6    1  0.9364335E-007  0.2248200E+04  0.7818608E-02  0.8498630E-01
          2   -1    0    0  501    0  0.00000000000E+00  0.00000000000E+00  0.13420812651E+04  0.13420812651E+04  0.00000000000E+00 0. -1.
         -2   -1    0    0    0  501 -0.00000000000E+00 -0.00000000000E+00 -0.94152366864E+03  0.94152366864E+03  0.00000000000E+00 0.  1.
         23    2    1    2    0    0  0.11064612468E+04  0.18645917909E+01  0.39110246021E+03  0.11771017178E+04  0.91363845692E+02 0.  0.
         11    1    3    3    0    0  0.77569262119E+03 -0.38713097803E+02  0.26063196470E+03  0.81922327087E+03  0.00000000000E+00 0. -1.
        -11    1    3    3    0    0  0.33076862557E+03  0.40577689594E+02  0.13047049551E+03  0.35787844690E+03  0.00000000000E+00 0.  1.
         22    1    1    2    0    0 -0.11064612468E+04 -0.18645917909E+01  0.94551362268E+01  0.11065032159E+04  0.00000000000E+00 0.  1.
<mgrwt>
<rscale>  0 0.22482004E+04</rscale>
<asrwt>0</asrwt>
<pdfrwt beam="1">  1        2 0.20647404E+00 0.22482004E+04</pdfrwt>
<pdfrwt beam="2">  1       -2 0.14484979E+00 0.22482004E+04</pdfrwt>
<totfact> 0.46751641E+00</totfact>
</mgrwt>
</event>
<event>
 6    1  0.9364335E-007  0.7254041E+03  0.7818608E-02  0.9674748E-01
          2   -1    0    0  501    0  0.00000000000E+00  0.00000000000E+00  0.51681427994E+03  0.51681427994E+03  0.00000000000E+00 0. -1.
         -2   -1    0    0    0  501 -0.00000000000E+00 -0.00000000000E+00 -0.25454557940E+03  0.25454557940E+03  0.00000000000E+00 0.  1.
         23    2    1    2    0    0 -0.23257669037E+03  0.25887208934E+03  0.47461680179E+02  0.36239930924E+03  0.89297103576E+02 0.  0.
         13    1    3    3    0    0 -0.76683969035E+02  0.11812943670E+03  0.57525393394E+02  0.15213206700E+03  0.00000000000E+00 0. -1.
        -13    1    3    3    0    0 -0.15589272134E+03  0.14074265263E+03 -0.10063713215E+02  0.21026724224E+03  0.00000000000E+00 0.  1.
         22    1    1    2    0    0  0.23257669037E+03 -0.25887208934E+03  0.21480702037E+03  0.40896055010E+03  0.00000000000E+00 0. -1.
<mgrwt>
<rscale>  0 0.72540414E+03</rscale>
<asrwt>0</asrwt>
<pdfrwt beam="1">  1        2 0.79509889E-01 0.72540414E+03</pdfrwt>
<pdfrwt beam="2">  1       -2 0.39160858E-01 0.72540414E+03</pdfrwt>
<totfact> 0.36797627E+02</totfact>
</mgrwt>
</event>
<event>
 6    1  0.9364335E-007  0.2069032E+04  0.7818608E-02  0.8575009E-01
         -1   -1    0    0    0  501 -0.00000000000E+00  0.00000000000E+00  0.73109165615E+03  0.73109165615E+03  0.00000000000E+00 0.  1.
          1   -1    0    0  501    0  0.00000000000E+00 -0.00000000000E+00 -0.14638704427E+04  0.14638704427E+04  0.00000000000E+00 0. -1.
         23    2    1    2    0    0  0.50957262035E+03  0.32057734619E+03  0.52281167881E+03  0.80250329983E+03  0.90804209359E+02 0.  0.
         13    1    3    3    0    0  0.65552070852E+02  0.66530452455E+02  0.11586104593E+03  0.14881920931E+03  0.00000000000E+00 0.  1.
        -13    1    3    3    0    0  0.44402054950E+03  0.25404689373E+03  0.40695063288E+03  0.65368409051E+03  0.00000000000E+00 0. -1.
         22    1    1    2    0    0 -0.50957262035E+03 -0.32057734619E+03 -0.12555904653E+04  0.13924587990E+04  0.00000000000E+00 0. -1.
<mgrwt>
<rscale>  0 0.20690321E+04</rscale>
<asrwt>0</asrwt>
<pdfrwt beam="1">  1        1 0.22521083E+00 0.20690321E+04</pdfrwt>
<pdfrwt beam="2">  1       -1 0.11247564E+00 0.20690321E+04</pdfrwt>
<totfact> 0.46266493E+00</totfact>
</mgrwt>
</event>
<event>
 6    1  0.9364335E-007  0.3412387E+04  0.7818608E-02  0.8134873E-01
          2   -1    0    0  501    0  0.00000000000E+00  0.00000000000E+00  0.24855027697E+04  0.24855027697E+04  0.00000000000E+00 0. -1.
         -2   -1    0    0    0  501 -0.00000000000E+00 -0.00000000000E+00 -0.11712301864E+04  0.11712301864E+04  0.00000000000E+00 0.  1.
         23    2    1    2    0    0  0.30680909166E+02 -0.10945182613E+04  0.20581503601E+04  0.23330012276E+04  0.89444287036E+02 0.  0.
         13    1    3    3    0    0  0.61081783394E+02 -0.65257130152E+03  0.12072979440E+04  0.13737352778E+04  0.00000000000E+00 0. -1.
        -13    1    3    3    0    0 -0.30400874228E+02 -0.44194695977E+03  0.85085241615E+03  0.95926594981E+03  0.00000000000E+00 0.  1.
         22    1    1    2    0    0 -0.30680909166E+02  0.10945182613E+04 -0.74387777682E+03  0.13237317286E+04  0.00000000000E+00 0.  1.
<mgrwt>
<rscale>  0 0.34123868E+04</rscale>
<asrwt>0</asrwt>
<pdfrwt beam="1">  1        2 0.38238504E+00 0.34123868E+04</pdfrwt>
<pdfrwt beam="2">  1       -2 0.18018926E+00 0.34123868E+04</pdfrwt>
<totfact> 0.53093672E-01</totfact>
</mgrwt>
</event>
<event>
 6    1  0.9364335E-007  0.3782359E+04  0.7818608E-02  0.8049951E-01
          2   -1    0    0  501    0  0.00000000000E+00  0.00000000000E+00  0.16060847856E+04  0.16060847856E+04  0.00000000000E+00 0. -1.
         -2   -1    0    0    0  501 -0.00000000000E+00 -0.00000000000E+00 -0.22268808466E+04  0.22268808466E+04  0.00000000000E+00 0.  1.
         23    2    1    2    0    0  0.40456611570E+03 -0.15559860695E+04 -0.13177802911E+04  0.20806661693E+04  0.88659019394E+02 0.  0.
         13    1    3    3    0    0  0.22391861096E+03 -0.83840540463E+03 -0.65449900876E+03  0.10869370356E+04  0.00000000000E+00 0. -1.
        -13    1    3    3    0    0  0.18064750473E+03 -0.71758066490E+03 -0.66328128237E+03  0.99372913369E+03  0.00000000000E+00 0.  1.
         22    1    1    2    0    0 -0.40456611570E+03  0.15559860695E+04  0.69698423018E+03  0.17522994629E+04  0.00000000000E+00 0. -1.
<mgrwt>
<rscale>  0 0.37823588E+04</rscale>
<asrwt>0</asrwt>
<pdfrwt beam="1">  1        2 0.24708997E+00 0.37823588E+04</pdfrwt>
<pdfrwt beam="2">  1       -2 0.34259705E+00 0.37823588E+04</pdfrwt>
<totfact> 0.15383098E-01</totfact>
</mgrwt>
</event>
<event>
 6    1  0.9364335E-007  0.2684930E+04  0.7818608E-02  0.8339911E-01
          2   -1    0    0  501    0  0.00000000000E+00  0.00000000000E+00  0.16960367223E+04  0.16960367223E+04  0.00000000000E+00 0. -1.
         -2   -1    0    0    0  501 -0.00000000000E+00 -0.00000000000E+00 -0.10626018643E+04  0.10626018643E+04  0.00000000000E+00 0.  1.
         23    2    1    2    0    0  0.74945111767E+03  0.45656935435E+03 -0.72462495910E+03  0.11417097013E+04  0.91033826673E+02 0.  0.
         13    1    3    3    0    0  0.33797094140E+03  0.24805058129E+03 -0.30914236699E+03  0.52088621711E+03  0.00000000000E+00 0.  1.
        -13    1    3    3    0    0  0.41148017627E+03  0.20851877306E+03 -0.41548259211E+03  0.62082348420E+03  0.00000000000E+00 0. -1.
         22    1    1    2    0    0 -0.74945111767E+03 -0.45656935435E+03  0.13580598171E+04  0.16169288853E+04  0.00000000000E+00 0. -1.
<mgrwt>
<rscale>  0 0.26849296E+04</rscale>
<asrwt>0</asrwt>
<pdfrwt beam="1">  1        2 0.26092873E+00 0.26849296E+04</pdfrwt>
<pdfrwt beam="2">  1       -2 0.16347721E+00 0.26849296E+04</pdfrwt>
<totfact> 0.20566287E+00</totfact>
</mgrwt>
</event>
<event>
 6    1  0.9364335E-007  0.8570420E+03  0.7818608E-02  0.9480934E-01
          4   -1    0    0  501    0  0.00000000000E+00  0.00000000000E+00  0.10488069688E+04  0.10488069688E+04  0.00000000000E+00 0. -1.
         -4   -1    0    0    0  501 -0.00000000000E+00 -0.00000000000E+00 -0.17508489795E+03  0.17508489795E+03  0.00000000000E+00 0.  1.
         23    2    1    2    0    0  0.66181835856E+02 -0.19858190768E+03 -0.83778866195E+02  0.24377817239E+03  0.92704311968E+02 0.  0.
         11    1    3    3    0    0  0.88046817509E+02 -0.16767972241E+03 -0.58351197568E+02  0.19817566359E+03  0.00000000000E+00 0.  1.
        -11    1    3    3    0    0 -0.21864981653E+02 -0.30902185268E+02 -0.25427668627E+02  0.45602508800E+02  0.00000000000E+00 0. -1.
         22    1    1    2    0    0 -0.66181835856E+02  0.19858190768E+03  0.95750093706E+03  0.98011369439E+03  0.00000000000E+00 0. -1.
<mgrwt>
<rscale>  0 0.85704203E+03</rscale>
<asrwt>0</asrwt>
<pdfrwt beam="1">  1        4 0.16135492E+00 0.85704203E+03</pdfrwt>
<pdfrwt beam="2">  1       -4 0.26936139E-01 0.85704203E+03</pdfrwt>
<totfact> 0.64553170E+00</totfact>
</mgrwt>
</event>
<event>
 6    1  0.9364335E-007  0.1992340E+04  0.7818608E-02  0.8610210E-01
          2   -1    0    0  501    0  0.00000000000E+00  0.00000000000E+00  0.18969335298E+04  0.18969335298E+04  0.00000000000E+00 0. -1.
         -2   -1    0    0    0  501 -0.00000000000E+00 -0.00000000000E+00 -0.52313646783E+03  0.52313646783E+03  0.00000000000E+00 0.  1.
         23    2    1    2    0    0  0.69637799646E+03  0.70126439424E+03  0.55738481500E+03  0.11381795883E+04  0.89782395742E+02 0.  0.
         11    1    3    3    0    0  0.31046914516E+03  0.37538896599E+03  0.26476119139E+03  0.55444247163E+03  0.00000000000E+00 0. -1.
        -11    1    3    3    0    0  0.38590885130E+03  0.32587542825E+03  0.29262362362E+03  0.58373711664E+03  0.00000000000E+00 0.  1.
         22    1    1    2    0    0 -0.69637799646E+03 -0.70126439424E+03  0.81641224696E+03  0.12818904093E+04  0.00000000000E+00 0. -1.
<mgrwt>
<rscale>  0 0.19923404E+04</rscale>
<asrwt>0</asrwt>
<pdfrwt beam="1">  1        2 0.29183592E+00 0.19923404E+04</pdfrwt>
<pdfrwt beam="2">  1       -2 0.80482535E-01 0.19923404E+04</pdfrwt>
<totfact> 0.96635513E+00</totfact>
</mgrwt>
</event>
<event>
 6    1  0.9364335E-007  0.8312598E+03  0.7818608E-02  0.9515840E-01
          2   -1    0    0  501    0  0.00000000000E+00  0.00000000000E+00  0.20150656671E+04  0.20150656671E+04  0.00000000000E+00 0. -1.
         -2   -1    0    0    0  501 -0.00000000000E+00 -0.00000000000E+00 -0.85728328123E+02  0.85728328123E+02  0.00000000000E+00 0.  1.
         23    2    1    2    0    0  0.35084680116E+03  0.10799279850E+03  0.51140253347E+03  0.63611142379E+03  0.91374338940E+02 0.  0.
         13    1    3    3    0    0  0.22694313327E+03  0.65537286983E+02  0.25128705257E+03  0.34488187037E+03  0.00000000000E+00 0.  1.
        -13    1    3    3    0    0  0.12390366789E+03  0.42455511521E+02  0.26011548091E+03  0.29122955342E+03  0.00000000000E+00 0. -1.
         22    1    1    2    0    0 -0.35084680116E+03 -0.10799279850E+03  0.14179348055E+04  0.14646825715E+04  0.00000000000E+00 0. -1.
<mgrwt>
<rscale>  0 0.83125979E+03</rscale>
<asrwt>0</asrwt>
<pdfrwt beam="1">  1        2 0.31001007E+00 0.83125979E+03</pdfrwt>
<pdfrwt beam="2">  1       -2 0.13188975E-01 0.83125979E+03</pdfrwt>
<totfact> 0.29008022E+02</totfact>
</mgrwt>
</event>
<event>
 6    1  0.9364335E-007  0.4305401E+04  0.7818608E-02  0.7945620E-01
         -2   -1    0    0    0  501 -0.00000000000E+00  0.00000000000E+00  0.19794515086E+04  0.19794515086E+04  0.00000000000E+00 0.  1.
          2   -1    0    0  501    0  0.00000000000E+00 -0.00000000000E+00 -0.23411127386E+04  0.23411127386E+04  0.00000000000E+00 0. -1.
         23    2    1    2    0    0  0.15554274965E+04 -0.14296485912E+04 -0.59063618607E+03  0.21955514657E+04  0.91352849089E+02 0.  0.
         11    1    3    3    0    0  0.13245442277E+04 -0.11779224540E+04 -0.51259008841E+03  0.18451740616E+04  0.00000000000E+00 0.  1.
        -11    1    3    3    0    0  0.23088326880E+03 -0.25172613716E+03 -0.78046097660E+02  0.35037740410E+03  0.00000000000E+00 0. -1.
         22    1    1    2    0    0 -0.15554274965E+04  0.14296485912E+04  0.22897495607E+03  0.21250127815E+04  0.00000000000E+00 0.  1.
<mgrwt>
<rscale>  0 0.43054009E+04</rscale>
<asrwt>0</asrwt>
<pdfrwt beam="1">  1        2 0.36017119E+00 0.43054009E+04</pdfrwt>
<pdfrwt beam="2">  1       -2 0.30453100E+00 0.43054009E+04</pdfrwt>
<totfact> 0.98586880E-02</totfact>
</mgrwt>
</event>
<event>
 6    1  0.9364335E-007  0.4520101E+04  0.7818608E-02  0.7907127E-01
         -2   -1    0    0    0  501 -0.00000000000E+00  0.00000000000E+00  0.15818780851E+04  0.15818780851E+04  0.00000000000E+00 0.  1.
          2   -1    0    0  501    0  0.00000000000E+00 -0.00000000000E+00 -0.32289640456E+04  0.32289640456E+04  0.00000000000E+00 0. -1.
         23    2    1    2    0    0  0.14120698121E+04  0.11373388603E+04  0.60902241361E+03  0.19164499954E+04  0.11996435808E+03 0.  0.
         13    1    3    3    0    0  0.94283641368E+03  0.80906239722E+03  0.37426977715E+03  0.12975362545E+04  0.00000000000E+00 0.  1.
        -13    1    3    3    0    0  0.46923339840E+03  0.32827646313E+03  0.23475263646E+03  0.61891374095E+03  0.00000000000E+00 0. -1.
         22    1    1    2    0    0 -0.14120698121E+04 -0.11373388603E+04 -0.22561083740E+04  0.28943921353E+04  0.00000000000E+00 0. -1.
<mgrwt>
<rscale>  0 0.45201006E+04</rscale>
<asrwt>0</asrwt>
<pdfrwt beam="1">  1        2 0.49676370E+00 0.45201006E+04</pdfrwt>
<pdfrwt beam="2">  1       -2 0.24336586E+00 0.45201006E+04</pdfrwt>
<totfact> 0.66233259E-02</totfact>
</mgrwt>
</event>
<event>
 6    1  0.9364335E-007  0.2756265E+04  0.7818608E-02  0.8316976E-01
          1   -1    0    0  501    0  0.00000000000E+00  0.00000000000E+00  0.15219490812E+04  0.15219490812E+04  0.00000000000E+00 0. -1.
         -1   -1    0    0    0  501 -0.00000000000E+00 -0.00000000000E+00 -0.12479059583E+04  0.12479059583E+04  0.00000000000E+00 0.  1.
         23    2    1    2    0    0  0.22622909496E+03 -0.13574365688E+04  0.10568683925E+03  0.13834360984E+04  0.94403859324E+02 0.  0.
         11    1    3    3    0    0  0.12388807173E+03 -0.47063637783E+03  0.42204467672E+02  0.48849572317E+03  0.00000000000E+00 0. -1.
        -11    1    3    3    0    0  0.10234102323E+03 -0.88680019099E+03  0.63482371574E+02  0.89494037526E+03  0.00000000000E+00 0.  1.
         22    1    1    2    0    0 -0.22622909496E+03  0.13574365688E+04  0.16835628363E+03  0.13864189410E+04  0.00000000000E+00 0. -1.
<mgrwt>
<rscale>  0 0.27562651E+04</rscale>
<asrwt>0</asrwt>
<pdfrwt beam="1">  1        1 0.23414601E+00 0.27562651E+04</pdfrwt>
<pdfrwt beam="2">  1       -1 0.19198553E+00 0.27562651E+04</pdfrwt>
<totfact> 0.93931733E-01</totfact>
</mgrwt>
</event>
<event>
 6    1  0.9364335E-007  0.1919557E+04  0.7818608E-02  0.8645182E-01
         -2   -1    0    0    0  501 -0.00000000000E+00  0.00000000000E+00  0.31099388261E+03  0.31099388261E+03  0.00000000000E+00 0.  1.
          2   -1    0    0  501    0  0.00000000000E+00 -0.00000000000E+00 -0.29620354794E+04  0.29620354794E+04  0.00000000000E+00 0. -1.
         23    2    1    2    0    0 -0.65400162198E+03  0.64128344997E+03 -0.18052343583E+04  0.20262926338E+04  0.89600026339E+02 0.  0.
         11    1    3    3    0    0 -0.10758451709E+03  0.10085870542E+03 -0.36879554116E+03  0.39718642721E+03  0.00000000000E+00 0. -1.
        -11    1    3    3    0    0 -0.54641710489E+03  0.54042474455E+03 -0.14364388171E+04  0.16291062066E+04  0.00000000000E+00 0.  1.
         22    1    1    2    0    0  0.65400162198E+03 -0.64128344997E+03 -0.84580723854E+03  0.12467367282E+04  0.00000000000E+00 0.  1.
<mgrwt>
<rscale>  0 0.19195572E+04</rscale>
<asrwt>0</asrwt>
<pdfrwt beam="1">  1        2 0.45569777E+00 0.19195572E+04</pdfrwt>
<pdfrwt beam="2">  1       -2 0.47845213E-01 0.19195572E+04</pdfrwt>
<totfact> 0.71369051E+00</totfact>
</mgrwt>
</event>
<event>
 6    1  0.9364335E-007  0.1360467E+04  0.7818608E-02  0.8982943E-01
         -1   -1    0    0    0  501 -0.00000000000E+00  0.00000000000E+00  0.83807003414E+03  0.83807003414E+03  0.00000000000E+00 0.  1.
          1   -1    0    0  501    0  0.00000000000E+00 -0.00000000000E+00 -0.55212263700E+03  0.55212263700E+03  0.00000000000E+00 0. -1.
         23    2    1    2    0    0  0.20625393371E+03  0.47488263985E+03 -0.30239525649E+03  0.60648272169E+03  0.91237019653E+02 0.  0.
         11    1    3    3    0    0  0.60153438934E+02  0.70037742615E+02 -0.79261085900E+02  0.12168007784E+03  0.00000000000E+00 0. -1.
        -11    1    3    3    0    0  0.14610049477E+03  0.40484489724E+03 -0.22313417059E+03  0.48480264384E+03  0.00000000000E+00 0.  1.
         22    1    1    2    0    0 -0.20625393371E+03 -0.47488263985E+03  0.58834265362E+03  0.78370994945E+03  0.00000000000E+00 0.  1.
<mgrwt>
<rscale>  0 0.13604667E+04</rscale>
<asrwt>0</asrwt>
<pdfrwt beam="1">  1        1 0.84941944E-01 0.13604667E+04</pdfrwt>
<pdfrwt beam="2">  1       -1 0.12893385E+00 0.13604667E+04</pdfrwt>
<totfact> 0.19543845E+01</totfact>
</mgrwt>
</event>
<event>
 6    1  0.9364335E-007  0.1162160E+04  0.7818608E-02  0.9146638E-01
         -1   -1    0    0    0  501 -0.00000000000E+00  0.00000000000E+00  0.72937032351E+03  0.72937032351E+03  0.00000000000E+00 0.  1.
          1   -1    0    0  501    0  0.00000000000E+00 -0.00000000000E+00 -0.46293894212E+03  0.46293894212E+03  0.00000000000E+00 0. -1.
         23    2    1    2    0    0 -0.54995978096E+03 -0.10723203140E+03  0.27706947506E+03  0.63189188700E+03  0.92549411736E+02 0.  0.
         13    1    3    3    0    0 -0.67398852785E+02 -0.40945578123E+02  0.57500614532E+02  0.97598495870E+02  0.00000000000E+00 0.  1.
        -13    1    3    3    0    0 -0.48256092818E+03 -0.66286453274E+02  0.21956886052E+03  0.53429339113E+03  0.00000000000E+00 0. -1.
         22    1    1    2    0    0  0.54995978096E+03  0.10723203140E+03 -0.10638093659E+02  0.56041737863E+03  0.00000000000E+00 0. -1.
<mgrwt>
<rscale>  0 0.11621599E+04</rscale>
<asrwt>0</asrwt>
<pdfrwt beam="1">  1        1 0.71221376E-01 0.11621599E+04</pdfrwt>
<pdfrwt beam="2">  1       -1 0.11221082E+00 0.11621599E+04</pdfrwt>
<totfact> 0.35605953E+01</totfact>
</mgrwt>
</event>
<event>
 6    1  0.9364335E-007  0.1963732E+04  0.7818608E-02  0.8623767E-01
          2   -1    0    0  501    0  0.00000000000E+00  0.00000000000E+00  0.19813313741E+04  0.19813313741E+04  0.00000000000E+00 0. -1.
         -2   -1    0    0    0  501 -0.00000000000E+00 -0.00000000000E+00 -0.48657234435E+03  0.48657234435E+03  0.00000000000E+00 0.  1.
         23    2    1    2    0    0  0.20201007422E+03 -0.69816444583E+03 -0.77400422923E+02  0.73587398195E+03  0.85311361041E+02 0.  0.
         13    1    3    3    0    0  0.20563599660E+03 -0.61543513862E+03 -0.64732243632E+02  0.65210186038E+03  0.00000000000E+00 0. -1.
        -13    1    3    3    0    0 -0.36259223754E+01 -0.82729307217E+02 -0.12668179291E+02  0.83772121569E+02  0.00000000000E+00 0.  1.
         22    1    1    2    0    0 -0.20201007422E+03  0.69816444583E+03  0.15721594527E+04  0.17320297365E+04  0.00000000000E+00 0. -1.
<mgrwt>
<rscale>  0 0.19637322E+04</rscale>
<asrwt>0</asrwt>
<pdfrwt beam="1">  1        2 0.30482021E+00 0.19637322E+04</pdfrwt>
<pdfrwt beam="2">  1       -2 0.74857285E-01 0.19637322E+04</pdfrwt>
<totfact> 0.10223780E+01</totfact>
</mgrwt>
</event>
<event>
 6    1  0.9364335E-007  0.2175721E+04  0.7818608E-02  0.8528602E-01
          1   -1    0    0  501    0  0.00000000000E+00  0.00000000000E+00  0.55828545578E+03  0.55828545578E+03  0.00000000000E+00 0. -1.
         -1   -1    0    0    0  501 -0.00000000000E+00 -0.00000000000E+00 -0.21197756854E+04  0.21197756854E+04  0.00000000000E+00 0.  1.
         23    2    1    2    0    0 -0.68996178794E+03 -0.69964977031E+02 -0.18107858478E+04  0.19411142828E+04  0.89648789270E+02 0.  0.
         11    1    3    3    0    0 -0.48090041159E+03 -0.35270430320E+02 -0.11442308415E+04  0.12416816934E+04  0.00000000000E+00 0. -1.
        -11    1    3    3    0    0 -0.20906137635E+03 -0.34694546710E+02 -0.66655500626E+03  0.69943258933E+03  0.00000000000E+00 0.  1.
         22    1    1    2    0    0  0.68996178794E+03  0.69964977031E+02  0.24929561819E+03  0.73694685838E+03  0.00000000000E+00 0. -1.
<mgrwt>
<rscale>  0 0.21757205E+04</rscale>
<asrwt>0</asrwt>
<pdfrwt beam="1">  1        1 0.85890070E-01 0.21757205E+04</pdfrwt>
<pdfrwt beam="2">  1       -1 0.32611934E+00 0.21757205E+04</pdfrwt>
<totfact> 0.77505136E-01</totfact>
</mgrwt>
</event>
<event>
 6    1  0.9364335E-007  0.1269018E+04  0.7818608E-02  0.9054501E-01
          1   -1    0    0  501    0  0.00000000000E+00  0.00000000000E+00  0.31942248496E+03  0.31942248496E+03  0.00000000000E+00 0. -1.
         -1   -1    0    0    0  501 -0.00000000000E+00 -0.00000000000E+00 -0.12604051909E+04  0.12604051909E+04  0.00000000000E+00 0.  1.
         23    2    1    2    0    0  0.11263977028E+03  0.14530048959E+03 -0.12235824773E+04  0.12426888604E+04  0.11541912752E+03 0.  0.
         11    1    3    3    0    0 -0.23207040121E+02  0.34709734839E+02 -0.25433423481E+03  0.25773869597E+03  0.00000000000E+00 0.  1.
        -11    1    3    3    0    0  0.13584681040E+03  0.11059075475E+03 -0.96924824248E+03  0.98495016447E+03  0.00000000000E+00 0. -1.
         22    1    1    2    0    0 -0.11263977028E+03 -0.14530048959E+03  0.28259977133E+03  0.33713881544E+03  0.00000000000E+00 0. -1.
<mgrwt>
<rscale>  0 0.12690181E+04</rscale>
<asrwt>0</asrwt>
<pdfrwt beam="1">  1        1 0.49141921E-01 0.12690181E+04</pdfrwt>
<pdfrwt beam="2">  1       -1 0.19390849E+00 0.12690181E+04</pdfrwt>
<totfact> 0.13195370E+01</totfact>
</mgrwt>
</event>
<event>
 6    1  0.9364335E-007  0.3447503E+04  0.7818608E-02  0.8126345E-01
          1   -1    0    0  501    0  0.00000000000E+00  0.00000000000E+00  0.19765595262E+04  0.19765595262E+04  0.00000000000E+00 0. -1.
         -1   -1    0    0    0  501 -0.00000000000E+00 -0.00000000000E+00 -0.15032783033E+04  0.15032783033E+04  0.00000000000E+00 0.  1.
         23    2    1    2    0    0 -0.12105100825E+04 -0.11695578899E+04 -0.13206402138E+03  0.16910831838E+04  0.95504509721E+02 0.  0.
         11    1    3    3    0    0 -0.32601545848E+03 -0.34355148077E+03 -0.75051183849E+02  0.47952724564E+03  0.00000000000E+00 0.  1.
        -11    1    3    3    0    0 -0.88449462400E+03 -0.82600640909E+03 -0.57012837535E+02  0.12115559382E+04  0.00000000000E+00 0. -1.
         22    1    1    2    0    0  0.12105100825E+04  0.11695578899E+04  0.60534524431E+03  0.17887546456E+04  0.00000000000E+00 0. -1.
<mgrwt>
<rscale>  0 0.34475029E+04</rscale>
<asrwt>0</asrwt>
<pdfrwt beam="1">  1        1 0.30408608E+00 0.34475029E+04</pdfrwt>
<pdfrwt beam="2">  1       -1 0.23127359E+00 0.34475029E+04</pdfrwt>
<totfact> 0.23451064E-01</totfact>
</mgrwt>
</event>
<event>
 6    1  0.9364335E-007  0.3293148E+04  0.7818608E-02  0.8164641E-01
          1   -1    0    0  501    0  0.00000000000E+00  0.00000000000E+00  0.28044224094E+04  0.28044224094E+04  0.00000000000E+00 0. -1.
         -1   -1    0    0    0  501 -0.00000000000E+00 -0.00000000000E+00 -0.96676093089E+03  0.96676093089E+03  0.00000000000E+00 0.  1.
         23    2    1    2    0    0 -0.54781883271E+03 -0.12669942339E+04  0.19452077819E+04  0.23866451250E+04  0.82835835709E+02 0.  0.
         13    1    3    3    0    0 -0.46576239485E+03 -0.10581658052E+04  0.15756671767E+04  0.19543225250E+04  0.00000000000E+00 0. -1.
        -13    1    3    3    0    0 -0.82056437861E+02 -0.20882842871E+03  0.36954060517E+03  0.43232260004E+03  0.00000000000E+00 0.  1.
         22    1    1    2    0    0  0.54781883271E+03  0.12669942339E+04 -0.10754630343E+03  0.13845382153E+04  0.00000000000E+00 0.  1.
<mgrwt>
<rscale>  0 0.32931480E+04</rscale>
<asrwt>0</asrwt>
<pdfrwt beam="1">  1        1 0.43144960E+00 0.32931480E+04</pdfrwt>
<pdfrwt beam="2">  1       -1 0.14873245E+00 0.32931480E+04</pdfrwt>
<totfact> 0.24501531E-01</totfact>
</mgrwt>
</event>
<event>
 6    1  0.9364335E-007  0.2624759E+04  0.7818608E-02  0.8359839E-01
          1   -1    0    0  501    0  0.00000000000E+00  0.00000000000E+00  0.11666693947E+04  0.11666693947E+04  0.00000000000E+00 0. -1.
         -1   -1    0    0    0  501 -0.00000000000E+00 -0.00000000000E+00 -0.14762883272E+04  0.14762883272E+04  0.00000000000E+00 0.  1.
         23    2    1    2    0    0 -0.55663826823E+03  0.92005497413E+03  0.59958834095E+03  0.12347655534E+04  0.93768204882E+02 0.  0.
         11    1    3    3    0    0 -0.33283927737E+03  0.47043139309E+03  0.34553426523E+03  0.67192381161E+03  0.00000000000E+00 0.  1.
        -11    1    3    3    0    0 -0.22379899086E+03  0.44962358105E+03  0.25405407572E+03  0.56284174182E+03  0.00000000000E+00 0. -1.
         22    1    1    2    0    0  0.55663826823E+03 -0.92005497413E+03 -0.90920727352E+03  0.14081921685E+04  0.00000000000E+00 0.  1.
<mgrwt>
<rscale>  0 0.26247593E+04</rscale>
<asrwt>0</asrwt>
<pdfrwt beam="1">  1        1 0.17948760E+00 0.26247593E+04</pdfrwt>
<pdfrwt beam="2">  1       -1 0.22712128E+00 0.26247593E+04</pdfrwt>
<totfact> 0.98013500E-01</totfact>
</mgrwt>
</event>
<event>
 6    1  0.9364335E-007  0.1390034E+04  0.7818608E-02  0.8961064E-01
         -2   -1    0    0    0  501 -0.00000000000E+00  0.00000000000E+00  0.20311667872E+03  0.20311667872E+03  0.00000000000E+00 0.  1.
          2   -1    0    0  501    0  0.00000000000E+00 -0.00000000000E+00 -0.23781816563E+04  0.23781816563E+04  0.00000000000E+00 0. -1.
         23    2    1    2    0    0  0.47400123839E+03  0.37881874844E+03 -0.17102206284E+04  0.18169286031E+04  0.90521449036E+02 0.  0.
         13    1    3    3    0    0  0.19709508667E+03  0.12440414067E+03 -0.76269741392E+03  0.79751502092E+03  0.00000000000E+00 0.  1.
        -13    1    3    3    0    0  0.27690615172E+03  0.25441460777E+03 -0.94752321449E+03  0.10194135822E+04  0.00000000000E+00 0. -1.
         22    1    1    2    0    0 -0.47400123839E+03 -0.37881874844E+03 -0.46484434921E+03  0.76436973198E+03  0.00000000000E+00 0.  1.
<mgrwt>
<rscale>  0 0.13900336E+04</rscale>
<asrwt>0</asrwt>
<pdfrwt beam="1">  1        2 0.36587410E+00 0.13900336E+04</pdfrwt>
<pdfrwt beam="2">  1       -2 0.31248720E-01 0.13900336E+04</pdfrwt>
<totfact> 0.37964338E+01</totfact>
</mgrwt>
</event>
<event>
 6    1  0.9364335E-007  0.2480841E+04  0.7818608E-02  0.8409843E-01
         -1   -1    0    0    0  501 -0.00000000000E+00  0.00000000000E+00  0.93425665921E+03  0.93425665921E+03  0.00000000000E+00 0.  1.
          1   -1    0    0  501    0  0.00000000000E+00 -0.00000000000E+00 -0.16469163248E+04  0.16469163248E+04  0.00000000000E+00 0. -1.
         23    2    1    2    0    0 -0.12261298818E+04 -0.17186484602E+03 -0.31788281808E+03  0.12816420026E+04  0.92869394008E+02 0.  0.
         13    1    3    3    0    0 -0.36677702414E+03 -0.93317481069E+02 -0.10744861276E+03  0.39341929553E+03  0.00000000000E+00 0. -1.
        -13    1    3    3    0    0 -0.85935285767E+03 -0.78547364949E+02 -0.21043420532E+03  0.88822270703E+03  0.00000000000E+00 0.  1.
         22    1    1    2    0    0  0.12261298818E+04  0.17186484602E+03 -0.39477684749E+03  0.12995309814E+04  0.00000000000E+00 0. -1.
<mgrwt>
<rscale>  0 0.24808406E+04</rscale>
<asrwt>0</asrwt>
<pdfrwt beam="1">  1        1 0.25337174E+00 0.24808406E+04</pdfrwt>
<pdfrwt beam="2">  1       -1 0.14373179E+00 0.24808406E+04</pdfrwt>
<totfact> 0.18032898E+00</totfact>
</mgrwt>
</event>
<event>
 6    1  0.9364335E-007  0.1031442E+04  0.7818608E-02  0.9274716E-01
          2   -1    0    0  501    0  0.00000000000E+00  0.00000000000E+00  0.11641115458E+03  0.11641115458E+03  0.00000000000E+00 0. -1.
         -2   -1    0    0    0  501 -0.00000000000E+00 -0.00000000000E+00 -0.22847323476E+04  0.22847323476E+04  0.00000000000E+00 0.  1.
         23    2    1    2    0    0 -0.24178614743E+03 -0.40271707803E+03 -0.15651863625E+04  0.16366742681E+04  0.90844507857E+02 0.  0.
         11    1    3    3    0    0 -0.14220165433E+03 -0.22911071193E+03 -0.74111527161E+03  0.78864749707E+03  0.00000000000E+00 0. -1.
        -11    1    3    3    0    0 -0.99584493095E+02 -0.17360636610E+03 -0.82407109087E+03  0.84802677105E+03  0.00000000000E+00 0.  1.
         22    1    1    2    0    0  0.24178614743E+03  0.40271707803E+03 -0.60313483054E+03  0.76446923407E+03  0.00000000000E+00 0. -1.
<mgrwt>
<rscale>  0 0.10314424E+04</rscale>
<asrwt>0</asrwt>
<pdfrwt beam="1">  1        2 0.17909409E-01 0.10314424E+04</pdfrwt>
<pdfrwt beam="2">  1       -2 0.35149727E+00 0.10314424E+04</pdfrwt>
<totfact> 0.50325564E+00</totfact>
</mgrwt>
</event>
<event>
 6    1  0.9364335E-007  0.2296324E+04  0.7818608E-02  0.8479372E-01
          1   -1    0    0  501    0  0.00000000000E+00  0.00000000000E+00  0.90445834577E+03  0.90445834577E+03  0.00000000000E+00 0. -1.
         -1   -1    0    0    0  501 -0.00000000000E+00 -0.00000000000E+00 -0.14575312316E+04  0.14575312316E+04  0.00000000000E+00 0.  1.
         23    2    1    2    0    0  0.44943120762E+03 -0.29121387052E+03 -0.13196127952E+04  0.14269081042E+04  0.88853136221E+02 0.  0.
         11    1    3    3    0    0  0.29072837474E+03 -0.17749243326E+03 -0.72432878949E+03  0.80042410447E+03  0.00000000000E+00 0.  1.
        -11    1    3    3    0    0  0.15870283288E+03 -0.11372143726E+03 -0.59528400573E+03  0.62648399974E+03  0.00000000000E+00 0. -1.
         22    1    1    2    0    0 -0.44943120762E+03  0.29121387052E+03  0.76653990938E+03  0.93508147316E+03  0.00000000000E+00 0. -1.
<mgrwt>
<rscale>  0 0.22963243E+04</rscale>
<asrwt>0</asrwt>
<pdfrwt beam="1">  1        1 0.13914744E+00 0.22963243E+04</pdfrwt>
<pdfrwt beam="2">  1       -1 0.22423557E+00 0.22963243E+04</pdfrwt>
<totfact> 0.16819879E+00</totfact>
</mgrwt>
</event>
<event>
 6    1  0.9364335E-007  0.8312193E+03  0.7818608E-02  0.9515896E-01
          2   -1    0    0  501    0  0.00000000000E+00  0.00000000000E+00  0.63637433276E+03  0.63637433276E+03  0.00000000000E+00 0. -1.
         -2   -1    0    0    0  501 -0.00000000000E+00 -0.00000000000E+00 -0.27143045543E+03  0.27143045543E+03  0.00000000000E+00 0.  1.
         23    2    1    2    0    0  0.12014281274E+03  0.38391727061E+03  0.27576652930E+03  0.49576187110E+03  0.88915060741E+02 0.  0.
         13    1    3    3    0    0  0.11627438447E+03  0.28886153416E+03  0.24355429253E+03  0.39532190910E+03  0.00000000000E+00 0. -1.
        -13    1    3    3    0    0  0.38684282706E+01  0.95055736448E+02  0.32212236769E+02  0.10043996200E+03  0.00000000000E+00 0.  1.
         22    1    1    2    0    0 -0.12014281274E+03 -0.38391727061E+03  0.89177348024E+02  0.41204291709E+03  0.00000000000E+00 0.  1.
<mgrwt>
<rscale>  0 0.83121929E+03</rscale>
<asrwt>0</asrwt>
<pdfrwt beam="1">  1        2 0.97903743E-01 0.83121929E+03</pdfrwt>
<pdfrwt beam="2">  1       -2 0.41758532E-01 0.83121929E+03</pdfrwt>
<totfact> 0.25210690E+02</totfact>
</mgrwt>
</event>
<event>
 6    1  0.9364335E-007  0.7313438E+03  0.7818608E-02  0.9665082E-01
          3   -1    0    0  501    0  0.00000000000E+00  0.00000000000E+00  0.17241602569E+03  0.17241602569E+03  0.00000000000E+00 0. -1.
         -3   -1    0    0    0  501 -0.00000000000E+00 -0.00000000000E+00 -0.77554243367E+03  0.77554243367E+03  0.00000000000E+00 0.  1.
         23    2    1    2    0    0  0.20744865205E+03  0.22481930331E+03 -0.55212912077E+03  0.63783044436E+03  0.91664864460E+02 0.  0.
         11    1    3    3    0    0  0.19495094045E+03  0.16300817761E+03 -0.46979524273E+03  0.53412087138E+03  0.00000000000E+00 0.  1.
        -11    1    3    3    0    0  0.12497711600E+02  0.61811125703E+02 -0.82333878040E+02  0.10370957299E+03  0.00000000000E+00 0. -1.
         22    1    1    2    0    0 -0.20744865205E+03 -0.22481930331E+03 -0.50997287208E+02  0.31012801499E+03  0.00000000000E+00 0.  1.
<mgrwt>
<rscale>  0 0.73134382E+03</rscale>
<asrwt>0</asrwt>
<pdfrwt beam="1">  1        3 0.26525542E-01 0.73134382E+03</pdfrwt>
<pdfrwt beam="2">  1       -3 0.11931422E+00 0.73134382E+03</pdfrwt>
<totfact> 0.20671706E+01</totfact>
</mgrwt>
</event>
<event>
 6    1  0.9364335E-007  0.1037591E+04  0.7818608E-02  0.9268251E-01
         -1   -1    0    0    0  501 -0.00000000000E+00  0.00000000000E+00  0.28383676233E+03  0.28383676233E+03  0.00000000000E+00 0.  1.
          1   -1    0    0  501    0  0.00000000000E+00 -0.00000000000E+00 -0.94825121388E+03  0.94825121388E+03  0.00000000000E+00 0. -1.
         23    2    1    2    0    0  0.41508278815E+03  0.15846343481E+03 -0.27202995339E+02  0.45527215434E+03  0.95542400953E+02 0.  0.
         13    1    3    3    0    0  0.46209965361E+02  0.53921165640E+02 -0.19320375750E+01  0.71039325531E+02  0.00000000000E+00 0.  1.
        -13    1    3    3    0    0  0.36887282278E+03  0.10454226917E+03 -0.25270957764E+02  0.38423282881E+03  0.00000000000E+00 0. -1.
         22    1    1    2    0    0 -0.41508278815E+03 -0.15846343481E+03 -0.63721145621E+03  0.77681582187E+03  0.00000000000E+00 0. -1.
<mgrwt>
<rscale>  0 0.10375906E+04</rscale>
<asrwt>0</asrwt>
<pdfrwt beam="1">  1        1 0.14588480E+00 0.10375906E+04</pdfrwt>
<pdfrwt beam="2">  1       -1 0.43667194E-01 0.10375906E+04</pdfrwt>
<totfact> 0.86107164E+01</totfact>
</mgrwt>
</event>
<event>
 6    1  0.9364335E-007  0.2385498E+04  0.7818608E-02  0.8444953E-01
          2   -1    0    0  501    0  0.00000000000E+00  0.00000000000E+00  0.23945785539E+04  0.23945785539E+04  0.00000000000E+00 0. -1.
         -2   -1    0    0    0  501 -0.00000000000E+00 -0.00000000000E+00 -0.59411289852E+03  0.59411289852E+03  0.00000000000E+00 0.  1.
         23    2    1    2    0    0  0.26707255857E+03  0.10523110981E+04  0.28809605166E+03  0.11269857246E+04  0.91711993110E+02 0.  0.
         11    1    3    3    0    0  0.13841913019E+03  0.71926412438E+03  0.19852806235E+03  0.75889006303E+03  0.00000000000E+00 0.  1.
        -11    1    3    3    0    0  0.12865342838E+03  0.33304697375E+03  0.89567989311E+02  0.36809566157E+03  0.00000000000E+00 0. -1.
         22    1    1    2    0    0 -0.26707255857E+03 -0.10523110981E+04  0.15123696037E+04  0.18617057278E+04  0.00000000000E+00 0. -1.
<mgrwt>
<rscale>  0 0.23854979E+04</rscale>
<asrwt>0</asrwt>
<pdfrwt beam="1">  1        2 0.36839670E+00 0.23854979E+04</pdfrwt>
<pdfrwt beam="2">  1       -2 0.91401986E-01 0.23854979E+04</pdfrwt>
<totfact> 0.36752892E+00</totfact>
</mgrwt>
</event>
<event>
 6    1  0.9364335E-007  0.4355838E+04  0.7818608E-02  0.7936373E-01
          2   -1    0    0  501    0  0.00000000000E+00  0.00000000000E+00  0.27178487008E+04  0.27178487008E+04  0.00000000000E+00 0. -1.
         -2   -1    0    0    0  501 -0.00000000000E+00 -0.00000000000E+00 -0.17452523112E+04  0.17452523112E+04  0.00000000000E+00 0.  1.
         23    2    1    2    0    0  0.18194036650E+04  0.68779761923E+03  0.14883610087E+04  0.24508116681E+04  0.89241687033E+02 0.  0.
         13    1    3    3    0    0  0.21756337462E+03  0.61540492187E+02  0.20006463439E+03  0.30190546880E+03  0.00000000000E+00 0. -1.
        -13    1    3    3    0    0  0.16018402904E+04  0.62625712704E+03  0.12882963743E+04  0.21489061993E+04  0.00000000000E+00 0.  1.
         22    1    1    2    0    0 -0.18194036650E+04 -0.68779761923E+03 -0.51576461913E+03  0.20122893439E+04  0.00000000000E+00 0.  1.
<mgrwt>
<rscale>  0 0.43558383E+04</rscale>
<asrwt>0</asrwt>
<pdfrwt beam="1">  1        2 0.41813057E+00 0.43558383E+04</pdfrwt>
<pdfrwt beam="2">  1       -2 0.26850036E+00 0.43558383E+04</pdfrwt>
<totfact> 0.98308960E-02</totfact>
</mgrwt>
</event>
<event>
 6    1  0.9364335E-007  0.1370203E+04  0.7818608E-02  0.8975674E-01
         -2   -1    0    0    0  501 -0.00000000000E+00  0.00000000000E+00  0.25824223986E+03  0.25824223986E+03  0.00000000000E+00 0.  1.
          2   -1    0    0  501    0  0.00000000000E+00 -0.00000000000E+00 -0.18175344690E+04  0.18175344690E+04  0.00000000000E+00 0. -1.
         23    2    1    2    0    0 -0.18805332482E+02 -0.45178521977E+03 -0.15568828224E+04  0.16235938580E+04  0.87803005817E+02 0.  0.
         11    1    3    3    0    0  0.30588989256E+02 -0.23448243874E+03 -0.74031153117E+03  0.77716077071E+03  0.00000000000E+00 0. -1.
        -11    1    3    3    0    0 -0.49394321739E+02 -0.21730278103E+03 -0.81657129119E+03  0.84643308729E+03  0.00000000000E+00 0.  1.
         22    1    1    2    0    0  0.18805332482E+02  0.45178521977E+03 -0.24094067350E+01  0.45218285081E+03  0.00000000000E+00 0.  1.
<mgrwt>
<rscale>  0 0.13702032E+04</rscale>
<asrwt>0</asrwt>
<pdfrwt beam="1">  1        2 0.27962069E+00 0.13702032E+04</pdfrwt>
<pdfrwt beam="2">  1       -2 0.39729575E-01 0.13702032E+04</pdfrwt>
<totfact> 0.49329209E+01</totfact>
</mgrwt>
</event>
<event>
 6    1  0.9364335E-007  0.1804031E+04  0.7818608E-02  0.8704159E-01
          2   -1    0    0  501    0  0.00000000000E+00  0.00000000000E+00  0.34134794050E+04  0.34134794050E+04  0.00000000000E+00 0. -1.
         -2   -1    0    0    0  501 -0.00000000000E+00 -0.00000000000E+00 -0.23835850689E+03  0.23835850689E+03  0.00000000000E+00 0.  1.
         23    2    1    2    0    0 -0.59243703773E+03 -0.44970123045E+03  0.56733773795E+03  0.94005881860E+03  0.92874286926E+02 0.  0.
         13    1    3    3    0    0 -0.11742690055E+03 -0.10500089831E+03  0.77277659821E+02  0.17545968861E+03  0.00000000000E+00 0. -1.
        -13    1    3    3    0    0 -0.47501013718E+03 -0.34470033214E+03  0.49006007813E+03  0.76459912999E+03  0.00000000000E+00 0.  1.
         22    1    1    2    0    0  0.59243703773E+03  0.44970123045E+03  0.26077831601E+04  0.27117790933E+04  0.00000000000E+00 0. -1.
<mgrwt>
<rscale>  0 0.18040309E+04</rscale>
<asrwt>0</asrwt>
<pdfrwt beam="1">  1        2 0.52515064E+00 0.18040309E+04</pdfrwt>
<pdfrwt beam="2">  1       -2 0.36670542E-01 0.18040309E+04</pdfrwt>
<totfact> 0.62145777E+00</totfact>
</mgrwt>
</event>
<event>
 6    1  0.9364335E-007  0.7398776E+03  0.7818608E-02  0.9651366E-01
         -2   -1    0    0    0  501 -0.00000000000E+00  0.00000000000E+00  0.56379937726E+02  0.56379937726E+02  0.00000000000E+00 0.  1.
          2   -1    0    0  501    0  0.00000000000E+00 -0.00000000000E+00 -0.24273654835E+04  0.24273654835E+04  0.00000000000E+00 0. -1.
         23    2    1    2    0    0  0.45510440196E+02 -0.31335172145E+03 -0.18090069637E+04  0.18387024551E+04  0.89777625200E+02 0.  0.
         11    1    3    3    0    0  0.23567808692E+02 -0.27658512898E+03 -0.13853173540E+04  0.14128548922E+04  0.00000000000E+00 0. -1.
        -11    1    3    3    0    0  0.21942631505E+02 -0.36766592475E+02 -0.42368960972E+03  0.42584756285E+03  0.00000000000E+00 0.  1.
         22    1    1    2    0    0 -0.45510440196E+02  0.31335172145E+03 -0.56197858208E+03  0.64504296618E+03  0.00000000000E+00 0.  1.
<mgrwt>
<rscale>  0 0.73987760E+03</rscale>
<asrwt>0</asrwt>
<pdfrwt beam="1">  1        2 0.37344091E+00 0.73987760E+03</pdfrwt>
<pdfrwt beam="2">  1       -2 0.86738350E-02 0.73987760E+03</pdfrwt>
<totfact> 0.34346394E+02</totfact>
</mgrwt>
</event>
<event>
 6    1  0.9364335E-007  0.5518454E+04  0.7818608E-02  0.7753155E-01
         -2   -1    0    0    0  501 -0.00000000000E+00  0.00000000000E+00  0.27418896695E+04  0.27418896695E+04  0.00000000000E+00 0.  1.
          2   -1    0    0  501    0  0.00000000000E+00 -0.00000000000E+00 -0.27766739595E+04  0.27766739595E+04  0.00000000000E+00 0. -1.
         23    2    1    2    0    0 -0.16100220772E+04  0.13615679769E+04 -0.17958729529E+04  0.27712974018E+04  0.94293061710E+02 0.  0.
         13    1    3    3    0    0 -0.61623697270E+03  0.57176398333E+03 -0.74871110421E+03  0.11257132747E+04  0.00000000000E+00 0.  1.
        -13    1    3    3    0    0 -0.99378510447E+03  0.78980399355E+03 -0.10471618487E+04  0.16455841271E+04  0.00000000000E+00 0. -1.
         22    1    1    2    0    0  0.16100220772E+04 -0.13615679769E+04  0.17610886629E+04  0.27472662272E+04  0.00000000000E+00 0.  1.
<mgrwt>
<rscale>  0 0.55184540E+04</rscale>
<asrwt>0</asrwt>
<pdfrwt beam="1">  1        2 0.42718061E+00 0.55184540E+04</pdfrwt>
<pdfrwt beam="2">  1       -2 0.42182918E+00 0.55184540E+04</pdfrwt>
<totfact> 0.89177296E-03</totfact>
</mgrwt>
</event>
<event>
 6    1  0.9364335E-007  0.5926865E+03  0.7818608E-02  0.9920697E-01
          2   -1    0    0  501    0  0.00000000000E+00  0.00000000000E+00  0.82154336109E+03  0.82154336109E+03  0.00000000000E+00 0. -1.
         -2   -1    0    0    0  501 -0.00000000000E+00 -0.00000000000E+00 -0.10689553467E+03  0.10689553467E+03  0.00000000000E+00 0.  1.
         23    2    1    2    0    0  0.21822560374E+03  0.16437168405E+03  0.51386649182E+03  0.58939080335E+03  0.93178769124E+02 0.  0.
         13    1    3    3    0    0  0.12825143498E+03  0.42943257733E+02  0.27979653643E+03  0.31077106647E+03  0.00000000000E+00 0. -1.
        -13    1    3    3    0    0  0.89974168761E+02  0.12142842632E+03  0.23406995539E+03  0.27861973688E+03  0.00000000000E+00 0.  1.
         22    1    1    2    0    0 -0.21822560374E+03 -0.16437168405E+03  0.20078133460E+03  0.33904809241E+03  0.00000000000E+00 0.  1.
<mgrwt>
<rscale>  0 0.59268648E+03</rscale>
<asrwt>0</asrwt>
<pdfrwt beam="1">  1        2 0.12639128E+00 0.59268648E+03</pdfrwt>
<pdfrwt beam="2">  1       -2 0.16445467E-01 0.59268648E+03</pdfrwt>
<totfact> 0.10012663E+03</totfact>
</mgrwt>
</event>
<event>
 6    1  0.9364335E-007  0.3499636E+04  0.7818608E-02  0.8113876E-01
         -2   -1    0    0    0  501 -0.00000000000E+00  0.00000000000E+00  0.10020041994E+04  0.10020041994E+04  0.00000000000E+00 0.  1.
          2   -1    0    0  501    0  0.00000000000E+00 -0.00000000000E+00 -0.30557387413E+04  0.30557387413E+04  0.00000000000E+00 0. -1.
         23    2    1    2    0    0 -0.76593434417E+02 -0.15325064548E+04 -0.54896197959E+02  0.15378625242E+04  0.86976792929E+02 0.  0.
         13    1    3    3    0    0 -0.93634462596E+02 -0.13858300839E+04 -0.41775990668E+02  0.13896178134E+04  0.00000000000E+00 0. -1.
        -13    1    3    3    0    0  0.17041028179E+02 -0.14667637092E+03 -0.13120207291E+02  0.14824471076E+03  0.00000000000E+00 0.  1.
         22    1    1    2    0    0  0.76593434417E+02  0.15325064548E+04 -0.19988383439E+04  0.25198804165E+04  0.00000000000E+00 0. -1.
<mgrwt>
<rscale>  0 0.34996360E+04</rscale>
<asrwt>0</asrwt>
<pdfrwt beam="1">  1        2 0.47011365E+00 0.34996360E+04</pdfrwt>
<pdfrwt beam="2">  1       -2 0.15415449E+00 0.34996360E+04</pdfrwt>
<totfact> 0.36729428E-01</totfact>
</mgrwt>
</event>
<event>
 6    1  0.9364335E-007  0.2477318E+04  0.7818608E-02  0.8411111E-01
          1   -1    0    0  501    0  0.00000000000E+00  0.00000000000E+00  0.21109627092E+04  0.21109627092E+04  0.00000000000E+00 0. -1.
         -1   -1    0    0    0  501 -0.00000000000E+00 -0.00000000000E+00 -0.72681326091E+03  0.72681326091E+03  0.00000000000E+00 0.  1.
         23    2    1    2    0    0 -0.63768209034E+03 -0.64398996075E+03 -0.27143386785E+03  0.95036567170E+03  0.90316374160E+02 0.  0.
         13    1    3    3    0    0 -0.46830437928E+03 -0.50598694125E+03 -0.23785856300E+03  0.72932055528E+03  0.00000000000E+00 0. -1.
        -13    1    3    3    0    0 -0.16937771106E+03 -0.13800301950E+03 -0.33575304851E+02  0.22104511642E+03  0.00000000000E+00 0.  1.
         22    1    1    2    0    0  0.63768209034E+03  0.64398996075E+03  0.16555833162E+04  0.18874102984E+04  0.00000000000E+00 0. -1.
<mgrwt>
<rscale>  0 0.24773177E+04</rscale>
<asrwt>0</asrwt>
<pdfrwt beam="1">  1        1 0.32476349E+00 0.24773177E+04</pdfrwt>
<pdfrwt beam="2">  1       -1 0.11181743E+00 0.24773177E+04</pdfrwt>
<totfact> 0.16364828E+00</totfact>
</mgrwt>
</event>
<event>
 6    1  0.9364335E-007  0.1978997E+04  0.7818608E-02  0.8616504E-01
         -2   -1    0    0    0  501 -0.00000000000E+00  0.00000000000E+00  0.13460101526E+04  0.13460101526E+04  0.00000000000E+00 0.  1.
          2   -1    0    0  501    0  0.00000000000E+00 -0.00000000000E+00 -0.72741434635E+03  0.72741434635E+03  0.00000000000E+00 0. -1.
         23    2    1    2    0    0  0.37209044565E+03  0.42678256351E+03 -0.53763586490E+03  0.78599825498E+03  0.90256730261E+02 0.  0.
         13    1    3    3    0    0  0.51741610398E+02  0.11394562283E+03 -0.10474217950E+03  0.16319228957E+03  0.00000000000E+00 0. -1.
        -13    1    3    3    0    0  0.32034883525E+03  0.31283694068E+03 -0.43289368540E+03  0.62280596542E+03  0.00000000000E+00 0.  1.
         22    1    1    2    0    0 -0.37209044565E+03 -0.42678256351E+03  0.11562316711E+04  0.12874262439E+04  0.00000000000E+00 0.  1.
<mgrwt>
<rscale>  0 0.19789968E+04</rscale>
<asrwt>0</asrwt>
<pdfrwt beam="1">  1        2 0.11190990E+00 0.19789968E+04</pdfrwt>
<pdfrwt beam="2">  1       -2 0.20707849E+00 0.19789968E+04</pdfrwt>
<totfact> 0.43392077E+00</totfact>
</mgrwt>
</event>
<event>
 6    1  0.9364335E-007  0.4438503E+04  0.7818608E-02  0.7921492E-01
          1   -1    0    0  501    0  0.00000000000E+00  0.00000000000E+00  0.15608742517E+04  0.15608742517E+04  0.00000000000E+00 0. -1.
         -1   -1    0    0    0  501 -0.00000000000E+00 -0.00000000000E+00 -0.31553326821E+04  0.31553326821E+04  0.00000000000E+00 0.  1.
         23    2    1    2    0    0  0.18853298822E+04 -0.36853626786E+03 -0.19763078794E+04  0.27576113280E+04  0.91321721439E+02 0.  0.
         11    1    3    3    0    0  0.11837042560E+04 -0.26709607284E+03 -0.12855721032E+04  0.17678211760E+04  0.00000000000E+00 0.  1.
        -11    1    3    3    0    0  0.70162562620E+03 -0.10144019502E+03 -0.69073577613E+03  0.98979015197E+03  0.00000000000E+00 0. -1.
         22    1    1    2    0    0 -0.18853298822E+04  0.36853626786E+03  0.38184944895E+03  0.19585956058E+04  0.00000000000E+00 0. -1.
<mgrwt>
<rscale>  0 0.44385031E+04</rscale>
<asrwt>0</asrwt>
<pdfrwt beam="1">  1        1 0.24013450E+00 0.44385031E+04</pdfrwt>
<pdfrwt beam="2">  1       -1 0.48543579E+00 0.44385031E+04</pdfrwt>
<totfact> 0.83478747E-03</totfact>
</mgrwt>
</event>
<event>
 6    1  0.9364335E-007  0.2898608E+04  0.7818608E-02  0.8273292E-01
          1   -1    0    0  501    0  0.00000000000E+00  0.00000000000E+00  0.37297970598E+04  0.37297970598E+04  0.00000000000E+00 0. -1.
         -1   -1    0    0    0  501 -0.00000000000E+00 -0.00000000000E+00 -0.56316258695E+03  0.56316258695E+03  0.00000000000E+00 0.  1.
         23    2    1    2    0    0  0.58135632860E+03  0.70270647473E+03 -0.80691487680E+02  0.91999396884E+03  0.90034527239E+02 0.  0.
         11    1    3    3    0    0  0.36199399969E+03  0.41417806116E+03 -0.90197246922E+02  0.55742144335E+03  0.00000000000E+00 0. -1.
        -11    1    3    3    0    0  0.21936232891E+03  0.28852841357E+03  0.95057592416E+01  0.36257252549E+03  0.00000000000E+00 0.  1.
         22    1    1    2    0    0 -0.58135632860E+03 -0.70270647473E+03  0.32473259606E+04  0.33729656779E+04  0.00000000000E+00 0. -1.
<mgrwt>
<rscale>  0 0.28986081E+04</rscale>
<asrwt>0</asrwt>
<pdfrwt beam="1">  1        1 0.57381492E+00 0.28986081E+04</pdfrwt>
<pdfrwt beam="2">  1       -1 0.86640400E-01 0.28986081E+04</pdfrwt>
<totfact> 0.18373992E-01</totfact>
</mgrwt>
</event>
<event>
 6    1  0.9364335E-007  0.2756594E+04  0.7818608E-02  0.8316872E-01
          2   -1    0    0  501    0  0.00000000000E+00  0.00000000000E+00  0.10745596392E+04  0.10745596392E+04  0.00000000000E+00 0. -1.
         -2   -1    0    0    0  501 -0.00000000000E+00 -0.00000000000E+00 -0.17678894179E+04  0.17678894179E+04  0.00000000000E+00 0.  1.
         23    2    1    2    0    0  0.39416410099E+02 -0.11166833363E+04 -0.11765462111E+04  0.16250610961E+04  0.89594935257E+02 0.  0.
         13    1    3    3    0    0 -0.27175385549E+02 -0.48546310701E+03 -0.51500336076E+03  0.70826646923E+03  0.00000000000E+00 0.  1.
        -13    1    3    3    0    0  0.66591795648E+02 -0.63122022926E+03 -0.66154285033E+03  0.91679462689E+03  0.00000000000E+00 0. -1.
         22    1    1    2    0    0 -0.39416410099E+02  0.11166833363E+04  0.48321643245E+03  0.12173879610E+04  0.00000000000E+00 0. -1.
<mgrwt>
<rscale>  0 0.27565940E+04</rscale>
<asrwt>0</asrwt>
<pdfrwt beam="1">  1        2 0.16531687E+00 0.27565940E+04</pdfrwt>
<pdfrwt beam="2">  1       -2 0.27198299E+00 0.27565940E+04</pdfrwt>
<totfact> 0.92989736E-01</totfact>
</mgrwt>
</event>
<event>
 6    1  0.9730222E-007  0.3814527E+04  0.7818608E-02  0.8043045E-01
         -1   -1    0    0    0  501 -0.00000000000E+00  0.00000000000E+00  0.13330421240E+04  0.13330421240E+04  0.00000000000E+00 0.  1.
          1   -1    0    0  501    0  0.00000000000E+00 -0.00000000000E+00 -0.27288370871E+04  0.27288370871E+04  0.00000000000E+00 0. -1.
         23    2    1    2    0    0  0.66683843819E+03  0.12167583951E+03  0.11988091179E+04  0.13801915244E+04  0.91141813910E+02 0.  0.
         13    1    3    3    0    0  0.40129201308E+03  0.30624991014E+02  0.67382465678E+03  0.78486485329E+03  0.00000000000E+00 0. -1.
        -13    1    3    3    0    0  0.26554642511E+03  0.91050848498E+02  0.52498446110E+03  0.59532667107E+03  0.00000000000E+00 0.  1.
         22    1    1    2    0    0 -0.66683843819E+03 -0.12167583951E+03 -0.25946040809E+04  0.26816876867E+04  0.00000000000E+00 0. -1.
<mgrwt>
<rscale>  0 0.38145274E+04</rscale>
<asrwt>0</asrwt>
<pdfrwt beam="1">  1        1 0.41982109E+00 0.38145274E+04</pdfrwt>
<pdfrwt beam="2">  1       -1 0.20508341E+00 0.38145274E+04</pdfrwt>
<totfact> 0.10331235E-01</totfact>
</mgrwt>
</event>
<event>
 6    1  0.9364335E-007  0.1468371E+04  0.7818608E-02  0.8905762E-01
         -2   -1    0    0    0  501 -0.00000000000E+00  0.00000000000E+00  0.33594969314E+03  0.33594969314E+03  0.00000000000E+00 0.  1.
          2   -1    0    0  501    0  0.00000000000E+00 -0.00000000000E+00 -0.16044918090E+04  0.16044918090E+04  0.00000000000E+00 0. -1.
         23    2    1    2    0    0  0.43827123433E+03  0.57237032662E+03 -0.47369876434E+03  0.86737793500E+03  0.90909279735E+02 0.  0.
         11    1    3    3    0    0  0.15218077876E+03  0.25735399462E+03 -0.16339153713E+03  0.34071522182E+03  0.00000000000E+00 0. -1.
        -11    1    3    3    0    0  0.28609045557E+03  0.31501633200E+03 -0.31030722721E+03  0.52666271318E+03  0.00000000000E+00 0.  1.
         22    1    1    2    0    0 -0.43827123433E+03 -0.57237032662E+03 -0.79484335149E+03  0.10730635671E+04  0.00000000000E+00 0.  1.
<mgrwt>
<rscale>  0 0.14683712E+04</rscale>
<asrwt>0</asrwt>
<pdfrwt beam="1">  1        2 0.24684489E+00 0.14683712E+04</pdfrwt>
<pdfrwt beam="2">  1       -2 0.51684568E-01 0.14683712E+04</pdfrwt>
<totfact> 0.37959970E+01</totfact>
</mgrwt>
</event>
<event>
 6    1  0.9364335E-007  0.4181483E+04  0.7818608E-02  0.7968904E-01
         -2   -1    0    0    0  501 -0.00000000000E+00  0.00000000000E+00  0.94241334936E+03  0.94241334936E+03  0.00000000000E+00 0.  1.
          2   -1    0    0  501    0  0.00000000000E+00 -0.00000000000E+00 -0.46383054942E+04  0.46383054942E+04  0.00000000000E+00 0. -1.
         23    2    1    2    0    0 -0.11328867667E+04 -0.10240164927E+04 -0.37527065599E+04  0.40525597939E+04  0.91608706858E+02 0.  0.
         13    1    3    3    0    0 -0.77578632520E+03 -0.75731387925E+03 -0.26575693223E+04  0.28701991981E+04  0.00000000000E+00 0.  1.
        -13    1    3    3    0    0 -0.35710044146E+03 -0.26670261343E+03 -0.10951372376E+04  0.11823605958E+04  0.00000000000E+00 0. -1.
         22    1    1    2    0    0  0.11328867667E+04  0.10240164927E+04  0.56814415033E+02  0.15281590497E+04  0.00000000000E+00 0.  1.
<mgrwt>
<rscale>  0 0.41814835E+04</rscale>
<asrwt>0</asrwt>
<pdfrwt beam="1">  1        2 0.71358545E+00 0.41814835E+04</pdfrwt>
<pdfrwt beam="2">  1       -2 0.14498667E+00 0.41814835E+04</pdfrwt>
<totfact> 0.22524570E-02</totfact>
</mgrwt>
</event>
<event>
 6    1  0.9364335E-007  0.4131641E+04  0.7818608E-02  0.7978504E-01
         -2   -1    0    0    0  501 -0.00000000000E+00  0.00000000000E+00  0.13013852821E+04  0.13013852821E+04  0.00000000000E+00 0.  1.
          2   -1    0    0  501    0  0.00000000000E+00 -0.00000000000E+00 -0.32792852543E+04  0.32792852543E+04  0.00000000000E+00 0. -1.
         23    2    1    2    0    0  0.85661995511E+03 -0.19916197718E+03 -0.30606300530E+04  0.31857627731E+04  0.90359750439E+02 0.  0.
         11    1    3    3    0    0  0.56315051627E+03 -0.87728963478E+02 -0.20089663325E+04  0.20882482133E+04  0.00000000000E+00 0.  1.
        -11    1    3    3    0    0  0.29346943884E+03 -0.11143301370E+03 -0.10516637204E+04  0.10975145598E+04  0.00000000000E+00 0. -1.
         22    1    1    2    0    0 -0.85661995511E+03  0.19916197718E+03  0.10827300807E+04  0.13949077634E+04  0.00000000000E+00 0.  1.
<mgrwt>
<rscale>  0 0.41316406E+04</rscale>
<asrwt>0</asrwt>
<pdfrwt beam="1">  1        2 0.50450542E+00 0.41316406E+04</pdfrwt>
<pdfrwt beam="2">  1       -2 0.20021312E+00 0.41316406E+04</pdfrwt>
<totfact> 0.11883968E-01</totfact>
</mgrwt>
</event>
<event>
 6    1  0.9364335E-007  0.2065729E+04  0.7818608E-02  0.8576492E-01
          2   -1    0    0  501    0  0.00000000000E+00  0.00000000000E+00  0.11659351608E+04  0.11659351608E+04  0.00000000000E+00 0. -1.
         -2   -1    0    0    0  501 -0.00000000000E+00 -0.00000000000E+00 -0.91498176841E+03  0.91498176841E+03  0.00000000000E+00 0.  1.
         23    2    1    2    0    0  0.66910640266E+02 -0.79273146128E+03  0.78561462334E+03  0.11223957582E+04  0.98395620591E+02 0.  0.
         13    1    3    3    0    0  0.60014470935E+02 -0.26362832078E+03  0.22799463578E+03  0.35367100840E+03  0.00000000000E+00 0. -1.
        -13    1    3    3    0    0  0.68961693309E+01 -0.52910314050E+03  0.55761998756E+03  0.76872474980E+03  0.00000000000E+00 0.  1.
         22    1    1    2    0    0 -0.66910640266E+02  0.79273146128E+03 -0.53466123092E+03  0.95852117104E+03  0.00000000000E+00 0.  1.
<mgrwt>
<rscale>  0 0.20657293E+04</rscale>
<asrwt>0</asrwt>
<pdfrwt beam="1">  1        2 0.17937464E+00 0.20657293E+04</pdfrwt>
<pdfrwt beam="2">  1       -2 0.14076643E+00 0.20657293E+04</pdfrwt>
<totfact> 0.64979149E+00</totfact>
</mgrwt>
</event>
<event>
 6    1  0.9364335E-007  0.2656845E+04  0.7818608E-02  0.8349145E-01
         -2   -1    0    0    0  501 -0.00000000000E+00  0.00000000000E+00  0.40193569701E+03  0.40193569701E+03  0.00000000000E+00 0.  1.
          2   -1    0    0  501    0  0.00000000000E+00 -0.00000000000E+00 -0.43905200524E+04  0.43905200524E+04  0.00000000000E+00 0. -1.
         23    2    1    2    0    0  0.12017783769E+04  0.51406450053E+03 -0.15843202671E+04  0.20558484732E+04  0.88930637839E+02 0.  0.
         13    1    3    3    0    0  0.97799224380E+03  0.38143608791E+03 -0.12534407280E+04  0.16349544265E+04  0.00000000000E+00 0. -1.
        -13    1    3    3    0    0  0.22378613305E+03  0.13262841263E+03 -0.33087953915E+03  0.42089404678E+03  0.00000000000E+00 0.  1.
         22    1    1    2    0    0 -0.12017783769E+04 -0.51406450053E+03 -0.24042640883E+04  0.27366072762E+04  0.00000000000E+00 0.  1.
<mgrwt>
<rscale>  0 0.26568453E+04</rscale>
<asrwt>0</asrwt>
<pdfrwt beam="1">  1        2 0.67546465E+00 0.26568453E+04</pdfrwt>
<pdfrwt beam="2">  1       -2 0.61836259E-01 0.26568453E+04</pdfrwt>
<totfact> 0.33605275E-01</totfact>
</mgrwt>
</event>
<event>
 6    1  0.9364335E-007  0.8439134E+03  0.7818608E-02  0.9498543E-01
          1   -1    0    0  501    0  0.00000000000E+00  0.00000000000E+00  0.30972155594E+04  0.30972155594E+04  0.00000000000E+00 0. -1.
         -1   -1    0    0    0  501 -0.00000000000E+00 -0.00000000000E+00 -0.57486304669E+02  0.57486304669E+02  0.00000000000E+00 0.  1.
         23    2    1    2    0    0 -0.50259466811E+02 -0.21362431394E+03  0.28632331456E+04  0.28730775788E+04  0.91155725789E+02 0.  0.
         13    1    3    3    0    0 -0.27786709965E+02 -0.13507567837E+03  0.22778472636E+04  0.22820179001E+04  0.00000000000E+00 0.  1.
        -13    1    3    3    0    0 -0.22472756846E+02 -0.78548635571E+02  0.58538588200E+03  0.59105967871E+03  0.00000000000E+00 0. -1.
         22    1    1    2    0    0  0.50259466811E+02  0.21362431394E+03  0.17649610917E+03  0.28162428529E+03  0.00000000000E+00 0.  1.
<mgrwt>
<rscale>  0 0.84391345E+03</rscale>
<asrwt>0</asrwt>
<pdfrwt beam="1">  1        1 0.47649457E+00 0.84391345E+03</pdfrwt>
<pdfrwt beam="2">  1       -1 0.88440493E-02 0.84391345E+03</pdfrwt>
<totfact> 0.40722751E+01</totfact>
</mgrwt>
</event>
<event>
 6    1  0.9364335E-007  0.7557164E+03  0.7818608E-02  0.9626425E-01
          2   -1    0    0  501    0  0.00000000000E+00  0.00000000000E+00  0.72626577238E+03  0.72626577238E+03  0.00000000000E+00 0. -1.
         -2   -1    0    0    0  501 -0.00000000000E+00 -0.00000000000E+00 -0.19659034202E+03  0.19659034202E+03  0.00000000000E+00 0.  1.
         23    2    1    2    0    0 -0.52851985119E+00 -0.57543925553E+02  0.71791344225E+03  0.72601828313E+03  0.91603789070E+02 0.  0.
         13    1    3    3    0    0  0.20319270496E+01  0.74956187656E+01  0.45842600256E+03  0.45849178058E+03  0.00000000000E+00 0. -1.
        -13    1    3    3    0    0 -0.25604469008E+01 -0.65039544318E+02  0.25948743969E+03  0.26752650255E+03  0.00000000000E+00 0.  1.
         22    1    1    2    0    0  0.52851985119E+00  0.57543925553E+02 -0.18823801189E+03  0.19683783128E+03  0.00000000000E+00 0.  1.
<mgrwt>
<rscale>  0 0.75571645E+03</rscale>
<asrwt>0</asrwt>
<pdfrwt beam="1">  1        2 0.11173319E+00 0.75571645E+03</pdfrwt>
<pdfrwt beam="2">  1       -2 0.30244668E-01 0.75571645E+03</pdfrwt>
<totfact> 0.39691530E+02</totfact>
</mgrwt>
</event>
<event>
 6    1  0.9364335E-007  0.3639663E+04  0.7818608E-02  0.8081466E-01
         -2   -1    0    0    0  501 -0.00000000000E+00  0.00000000000E+00  0.12688410923E+04  0.12688410923E+04  0.00000000000E+00 0.  1.
          2   -1    0    0  501    0  0.00000000000E+00 -0.00000000000E+00 -0.26100880061E+04  0.26100880061E+04  0.00000000000E+00 0. -1.
         23    2    1    2    0    0  0.46396371764E+03  0.38657691583E+03  0.11572520500E+04  0.13084814496E+04  0.90483996820E+02 0.  0.
         11    1    3    3    0    0  0.32013410045E+03  0.31622188304E+03  0.87754893900E+03  0.98619179773E+03  0.00000000000E+00 0. -1.
        -11    1    3    3    0    0  0.14382961719E+03  0.70355032794E+02  0.27970311102E+03  0.32228965192E+03  0.00000000000E+00 0.  1.
         22    1    1    2    0    0 -0.46396371764E+03 -0.38657691583E+03 -0.24984989638E+04  0.25704476488E+04  0.00000000000E+00 0. -1.
<mgrwt>
<rscale>  0 0.36396631E+04</rscale>
<asrwt>0</asrwt>
<pdfrwt beam="1">  1        2 0.40155199E+00 0.36396631E+04</pdfrwt>
<pdfrwt beam="2">  1       -2 0.19520633E+00 0.36396631E+04</pdfrwt>
<totfact> 0.34884481E-01</totfact>
</mgrwt>
</event>
<event>
 6    1  0.9364335E-007  0.5371861E+04  0.7818608E-02  0.7773571E-01
         -2   -1    0    0    0  501 -0.00000000000E+00  0.00000000000E+00  0.24502543070E+04  0.24502543070E+04  0.00000000000E+00 0.  1.
          2   -1    0    0  501    0  0.00000000000E+00 -0.00000000000E+00 -0.29442752512E+04  0.29442752512E+04  0.00000000000E+00 0. -1.
         23    2    1    2    0    0  0.51224976678E+03  0.10743583755E+04 -0.26641884011E+04  0.29193987468E+04  0.91342561673E+02 0.  0.
         11    1    3    3    0    0  0.24837366423E+03  0.61280698214E+03 -0.14220391743E+04  0.15682529413E+04  0.00000000000E+00 0. -1.
        -11    1    3    3    0    0  0.26387610255E+03  0.46155139338E+03 -0.12421492268E+04  0.13511458055E+04  0.00000000000E+00 0.  1.
         22    1    1    2    0    0 -0.51224976678E+03 -0.10743583755E+04  0.21701674569E+04  0.24751308114E+04  0.00000000000E+00 0.  1.
<mgrwt>
<rscale>  0 0.53718612E+04</rscale>
<asrwt>0</asrwt>
<pdfrwt beam="1">  1        2 0.45296542E+00 0.53718612E+04</pdfrwt>
<pdfrwt beam="2">  1       -2 0.37696220E+00 0.53718612E+04</pdfrwt>
<totfact> 0.13967839E-02</totfact>
</mgrwt>
</event>
<event>
 6    1  0.9364335E-007  0.2798389E+04  0.7818608E-02  0.8303769E-01
         -1   -1    0    0    0  501 -0.00000000000E+00  0.00000000000E+00  0.12083919818E+04  0.12083919818E+04  0.00000000000E+00 0.  1.
          1   -1    0    0  501    0  0.00000000000E+00 -0.00000000000E+00 -0.16201245185E+04  0.16201245185E+04  0.00000000000E+00 0. -1.
         23    2    1    2    0    0  0.13034740264E+04 -0.60923949521E+02 -0.71256410560E+03  0.14893914508E+04  0.88221448754E+02 0.  0.
         13    1    3    3    0    0  0.90217865965E+03 -0.69192043787E+02 -0.52794616793E+03  0.10475881963E+04  0.00000000000E+00 0. -1.
        -13    1    3    3    0    0  0.40129536679E+03  0.82680942664E+01 -0.18461793767E+03  0.44180325451E+03  0.00000000000E+00 0.  1.
         22    1    1    2    0    0 -0.13034740264E+04  0.60923949521E+02  0.30083156884E+03  0.13391250494E+04  0.00000000000E+00 0.  1.
<mgrwt>
<rscale>  0 0.27983892E+04</rscale>
<asrwt>0</asrwt>
<pdfrwt beam="1">  1        1 0.24924993E+00 0.27983892E+04</pdfrwt>
<pdfrwt beam="2">  1       -1 0.18590646E+00 0.27983892E+04</pdfrwt>
<totfact> 0.88391257E-01</totfact>
</mgrwt>
</event>
<event>
 6    1  0.9364335E-007  0.2776955E+04  0.7818608E-02  0.8310459E-01
         -1   -1    0    0    0  501 -0.00000000000E+00  0.00000000000E+00  0.19587263566E+04  0.19587263566E+04  0.00000000000E+00 0.  1.
          1   -1    0    0  501    0  0.00000000000E+00 -0.00000000000E+00 -0.98424671425E+03  0.98424671425E+03  0.00000000000E+00 0. -1.
         23    2    1    2    0    0 -0.84627871730E+03 -0.56044331133E+03 -0.51380662693E+03  0.11415068925E+04  0.93575440631E+02 0.  0.
         13    1    3    3    0    0 -0.64471327964E+03 -0.37753297144E+03 -0.38044029208E+03  0.83840394400E+03  0.00000000000E+00 0. -1.
        -13    1    3    3    0    0 -0.20156543765E+03 -0.18291033988E+03 -0.13336633485E+03  0.30310294846E+03  0.00000000000E+00 0.  1.
         22    1    1    2    0    0  0.84627871730E+03  0.56044331133E+03  0.14882862693E+04  0.18014661784E+04  0.00000000000E+00 0.  1.
<mgrwt>
<rscale>  0 0.27769552E+04</rscale>
<asrwt>0</asrwt>
<pdfrwt beam="1">  1        1 0.15142257E+00 0.27769552E+04</pdfrwt>
<pdfrwt beam="2">  1       -1 0.30134251E+00 0.27769552E+04</pdfrwt>
<totfact> 0.43710732E-01</totfact>
</mgrwt>
</event>
<event>
 6    1  0.9364335E-007  0.2531287E+04  0.7818608E-02  0.8391923E-01
          1   -1    0    0  501    0  0.00000000000E+00  0.00000000000E+00  0.15229089612E+04  0.15229089612E+04  0.00000000000E+00 0. -1.
         -1   -1    0    0    0  501 -0.00000000000E+00 -0.00000000000E+00 -0.10518382410E+04  0.10518382410E+04  0.00000000000E+00 0.  1.
         23    2    1    2    0    0  0.91080179135E+03 -0.71127792185E+03 -0.28499600259E+03  0.11937645540E+04  0.91514499685E+02 0.  0.
         11    1    3    3    0    0  0.39351461046E+03 -0.25084488926E+03 -0.12067853394E+03  0.48201682094E+03  0.00000000000E+00 0. -1.
        -11    1    3    3    0    0  0.51728718089E+03 -0.46043303259E+03 -0.16431746866E+03  0.71174773306E+03  0.00000000000E+00 0.  1.
         22    1    1    2    0    0 -0.91080179135E+03  0.71127792185E+03  0.75606672275E+03  0.13809826481E+04  0.00000000000E+00 0. -1.
<mgrwt>
<rscale>  0 0.25312873E+04</rscale>
<asrwt>0</asrwt>
<pdfrwt beam="1">  1        1 0.23429369E+00 0.25312873E+04</pdfrwt>
<pdfrwt beam="2">  1       -1 0.16182127E+00 0.25312873E+04</pdfrwt>
<totfact> 0.15820887E+00</totfact>
</mgrwt>
</event>
<event>
 6    1  0.9364335E-007  0.1554512E+04  0.7818608E-02  0.8848991E-01
          2   -1    0    0  501    0  0.00000000000E+00  0.00000000000E+00  0.18234736778E+04  0.18234736778E+04  0.00000000000E+00 0. -1.
         -2   -1    0    0    0  501 -0.00000000000E+00 -0.00000000000E+00 -0.33130549263E+03  0.33130549263E+03  0.00000000000E+00 0.  1.
         23    2    1    2    0    0 -0.37745424863E+02  0.44231650981E+03 -0.13125117458E+03  0.47175836558E+03  0.90887142795E+02 0.  0.
         13    1    3    3    0    0 -0.62395526025E+02  0.34440820674E+03 -0.82331013325E+02  0.35956725420E+03  0.00000000000E+00 0. -1.
        -13    1    3    3    0    0  0.24650101162E+02  0.97908303066E+02 -0.48920161252E+02  0.11219111138E+03  0.00000000000E+00 0.  1.
         22    1    1    2    0    0  0.37745424863E+02 -0.44231650981E+03  0.16234193598E+04  0.16830208049E+04  0.00000000000E+00 0. -1.
<mgrwt>
<rscale>  0 0.15545119E+04</rscale>
<asrwt>0</asrwt>
<pdfrwt beam="1">  1        2 0.28053441E+00 0.15545119E+04</pdfrwt>
<pdfrwt beam="2">  1       -2 0.50970077E-01 0.15545119E+04</pdfrwt>
<totfact> 0.29315183E+01</totfact>
</mgrwt>
</event>
<event>
 6    1  0.9364335E-007  0.1758132E+04  0.7818608E-02  0.8728887E-01
          2   -1    0    0  501    0  0.00000000000E+00  0.00000000000E+00  0.10072322988E+04  0.10072322988E+04  0.00000000000E+00 0. -1.
         -2   -1    0    0    0  501 -0.00000000000E+00 -0.00000000000E+00 -0.76720871633E+03  0.76720871633E+03  0.00000000000E+00 0.  1.
         23    2    1    2    0    0 -0.79405479687E+03  0.36901926382E+03  0.76094279362E+02  0.88361496366E+03  0.91032011688E+02 0.  0.
         11    1    3    3    0    0 -0.54230092010E+03  0.29581697439E+03  0.65826499041E+02  0.62123352956E+03  0.00000000000E+00 0. -1.
        -11    1    3    3    0    0 -0.25175387677E+03  0.73202289435E+02  0.10267780321E+02  0.26238143410E+03  0.00000000000E+00 0.  1.
         22    1    1    2    0    0  0.79405479687E+03 -0.36901926382E+03  0.16392930306E+03  0.89082605143E+03  0.00000000000E+00 0. -1.
<mgrwt>
<rscale>  0 0.17581324E+04</rscale>
<asrwt>0</asrwt>
<pdfrwt beam="1">  1        2 0.15495882E+00 0.17581324E+04</pdfrwt>
<pdfrwt beam="2">  1       -2 0.11803211E+00 0.17581324E+04</pdfrwt>
<totfact> 0.13059774E+01</totfact>
</mgrwt>
</event>
<event>
 6    1  0.9364335E-007  0.6324827E+03  0.7818608E-02  0.9840216E-01
         -1   -1    0    0    0  501 -0.00000000000E+00  0.00000000000E+00  0.10268129624E+03  0.10268129624E+03  0.00000000000E+00 0.  1.
          1   -1    0    0  501    0  0.00000000000E+00 -0.00000000000E+00 -0.97397094077E+03  0.97397094077E+03  0.00000000000E+00 0. -1.
         23    2    1    2    0    0 -0.62726594192E+02 -0.22230942272E+03 -0.79654402703E+03  0.83387041647E+03  0.86610504129E+02 0.  0.
         13    1    3    3    0    0  0.14504010939E+02 -0.95192188542E+02 -0.36139399416E+03  0.37400205629E+03  0.00000000000E+00 0.  1.
        -13    1    3    3    0    0 -0.77230605131E+02 -0.12711723418E+03 -0.43515003287E+03  0.45986836018E+03  0.00000000000E+00 0. -1.
         22    1    1    2    0    0  0.62726594192E+02  0.22230942272E+03 -0.74745617501E+02  0.24278182054E+03  0.00000000000E+00 0.  1.
<mgrwt>
<rscale>  0 0.63248272E+03</rscale>
<asrwt>0</asrwt>
<pdfrwt beam="1">  1        1 0.14984168E+00 0.63248272E+03</pdfrwt>
<pdfrwt beam="2">  1       -1 0.15797123E-01 0.63248272E+03</pdfrwt>
<totfact> 0.48599250E+02</totfact>
</mgrwt>
</event>
<event>
 6    1  0.9364335E-007  0.1688022E+04  0.7818608E-02  0.8768225E-01
         -1   -1    0    0    0  501 -0.00000000000E+00  0.00000000000E+00  0.12195567994E+04  0.12195567994E+04  0.00000000000E+00 0.  1.
          1   -1    0    0  501    0  0.00000000000E+00 -0.00000000000E+00 -0.58410943532E+03  0.58410943532E+03  0.00000000000E+00 0. -1.
         23    2    1    2    0    0  0.40447454295E+03  0.72235637105E+03  0.48048589330E+03  0.96140057587E+03  0.89587894899E+02 0.  0.
         11    1    3    3    0    0  0.22491269141E+03  0.38212140950E+03  0.20668644487E+03  0.48920525023E+03  0.00000000000E+00 0.  1.
        -11    1    3    3    0    0  0.17956185154E+03  0.34023496155E+03  0.27379944844E+03  0.47219532564E+03  0.00000000000E+00 0. -1.
         22    1    1    2    0    0 -0.40447454295E+03 -0.72235637105E+03  0.15496147080E+03  0.84226565888E+03  0.00000000000E+00 0. -1.
<mgrwt>
<rscale>  0 0.16880221E+04</rscale>
<asrwt>0</asrwt>
<pdfrwt beam="1">  1        1 0.89862990E-01 0.16880221E+04</pdfrwt>
<pdfrwt beam="2">  1       -1 0.18762412E+00 0.16880221E+04</pdfrwt>
<totfact> 0.62266910E+00</totfact>
</mgrwt>
</event>
<event>
 6    1  0.9364335E-007  0.1538034E+04  0.7818608E-02  0.8859548E-01
          2   -1    0    0  501    0  0.00000000000E+00  0.00000000000E+00  0.85463635703E+03  0.85463635703E+03  0.00000000000E+00 0. -1.
         -2   -1    0    0    0  501 -0.00000000000E+00 -0.00000000000E+00 -0.69197494488E+03  0.69197494488E+03  0.00000000000E+00 0.  1.
         23    2    1    2    0    0 -0.25700958533E+03 -0.52362884590E+03 -0.41825348248E+03  0.72338398821E+03  0.90040677332E+02 0.  0.
         11    1    3    3    0    0 -0.93273192243E+02 -0.29203503906E+03 -0.21485512049E+03  0.37436222463E+03  0.00000000000E+00 0. -1.
        -11    1    3    3    0    0 -0.16373639309E+03 -0.23159380685E+03 -0.20339836199E+03  0.34902176358E+03  0.00000000000E+00 0.  1.
         22    1    1    2    0    0  0.25700958533E+03  0.52362884590E+03  0.58091489463E+03  0.82322731370E+03  0.00000000000E+00 0.  1.
<mgrwt>
<rscale>  0 0.15380337E+04</rscale>
<asrwt>0</asrwt>
<pdfrwt beam="1">  1        2 0.13148252E+00 0.15380337E+04</pdfrwt>
<pdfrwt beam="2">  1       -2 0.10645768E+00 0.15380337E+04</pdfrwt>
<totfact> 0.21586072E+01</totfact>
</mgrwt>
</event>
<event>
 6    1  0.9364335E-007  0.2080466E+04  0.7818608E-02  0.8569897E-01
          1   -1    0    0  501    0  0.00000000000E+00  0.00000000000E+00  0.77783243749E+03  0.77783243749E+03  0.00000000000E+00 0. -1.
         -1   -1    0    0    0  501 -0.00000000000E+00 -0.00000000000E+00 -0.13911538016E+04  0.13911538016E+04  0.00000000000E+00 0.  1.
         23    2    1    2    0    0  0.30253872962E+03 -0.78210169099E+03  0.33082151691E+03  0.90620418437E+03  0.92468425695E+02 0.  0.
         11    1    3    3    0    0  0.35891816114E+02 -0.45449589318E+02  0.40698578984E+02  0.70783203971E+02  0.00000000000E+00 0.  1.
        -11    1    3    3    0    0  0.26664691350E+03 -0.73665210167E+03  0.29012293793E+03  0.83542098040E+03  0.00000000000E+00 0. -1.
         22    1    1    2    0    0 -0.30253872962E+03  0.78210169099E+03 -0.94414288104E+03  0.12627820547E+04  0.00000000000E+00 0.  1.
<mgrwt>
<rscale>  0 0.20804659E+04</rscale>
<asrwt>0</asrwt>
<pdfrwt beam="1">  1        1 0.11966653E+00 0.20804659E+04</pdfrwt>
<pdfrwt beam="2">  1       -1 0.21402366E+00 0.20804659E+04</pdfrwt>
<totfact> 0.25718124E+00</totfact>
</mgrwt>
</event>
<event>
 6    1  0.9364335E-007  0.1407346E+04  0.7818608E-02  0.8948518E-01
          2   -1    0    0  501    0  0.00000000000E+00  0.00000000000E+00  0.50679825469E+03  0.50679825469E+03  0.00000000000E+00 0. -1.
         -2   -1    0    0    0  501 -0.00000000000E+00 -0.00000000000E+00 -0.97702754546E+03  0.97702754546E+03  0.00000000000E+00 0.  1.
         23    2    1    2    0    0 -0.47113520700E+03  0.15106393647E+03 -0.75932602073E+03  0.91079385038E+03  0.90447420978E+02 0.  0.
         13    1    3    3    0    0 -0.12037071093E+03  0.81452847235E+02 -0.22269710015E+03  0.26592794660E+03  0.00000000000E+00 0.  1.
        -13    1    3    3    0    0 -0.35076449607E+03  0.69611089240E+02 -0.53662892058E+03  0.64486590378E+03  0.00000000000E+00 0. -1.
         22    1    1    2    0    0  0.47113520700E+03 -0.15106393647E+03  0.28909672996E+03  0.57303194976E+03  0.00000000000E+00 0. -1.
<mgrwt>
<rscale>  0 0.14073462E+04</rscale>
<asrwt>0</asrwt>
<pdfrwt beam="1">  1        2 0.77968963E-01 0.14073462E+04</pdfrwt>
<pdfrwt beam="2">  1       -2 0.15031193E+00 0.14073462E+04</pdfrwt>
<totfact> 0.17555170E+01</totfact>
</mgrwt>
</event>
<event>
 6    1  0.9364335E-007  0.5182128E+04  0.7818608E-02  0.7801010E-01
          2   -1    0    0  501    0  0.00000000000E+00  0.00000000000E+00  0.38661996237E+04  0.38661996237E+04  0.00000000000E+00 0. -1.
         -2   -1    0    0    0  501 -0.00000000000E+00 -0.00000000000E+00 -0.17364891939E+04  0.17364891939E+04  0.00000000000E+00 0.  1.
         23    2    1    2    0    0 -0.18673433162E+03 -0.18048065552E+04 -0.93304448742E+03  0.20428202674E+04  0.10171635536E+03 0.  0.
         13    1    3    3    0    0 -0.10761870625E+03 -0.13687139854E+04 -0.67395770035E+03  0.15294373938E+04  0.00000000000E+00 0. -1.
        -13    1    3    3    0    0 -0.79115625376E+02 -0.43609256987E+03 -0.25908678707E+03  0.51338287360E+03  0.00000000000E+00 0.  1.
         22    1    1    2    0    0  0.18673433162E+03  0.18048065552E+04  0.30627549171E+04  0.35598685502E+04  0.00000000000E+00 0. -1.
<mgrwt>
<rscale>  0 0.51821285E+04</rscale>
<asrwt>0</asrwt>
<pdfrwt beam="1">  1        2 0.59479994E+00 0.51821285E+04</pdfrwt>
<pdfrwt beam="2">  1       -2 0.26715219E+00 0.51821285E+04</pdfrwt>
<totfact> 0.15752010E-02</totfact>
</mgrwt>
</event>
<event>
 6    1  0.9364335E-007  0.1775635E+04  0.7818608E-02  0.8719365E-01
          1   -1    0    0  501    0  0.00000000000E+00  0.00000000000E+00  0.15459116911E+04  0.15459116911E+04  0.00000000000E+00 0. -1.
         -1   -1    0    0    0  501 -0.00000000000E+00 -0.00000000000E+00 -0.50987386339E+03  0.50987386339E+03  0.00000000000E+00 0.  1.
         23    2    1    2    0    0  0.42077251827E+03  0.72732854809E+03  0.84280742078E+03  0.11935823770E+04  0.90874711908E+02 0.  0.
         13    1    3    3    0    0  0.24199375878E+03  0.35274262494E+03  0.47207713886E+03  0.63705978037E+03  0.00000000000E+00 0. -1.
        -13    1    3    3    0    0  0.17877875949E+03  0.37458592315E+03  0.37073028192E+03  0.55652259667E+03  0.00000000000E+00 0.  1.
         22    1    1    2    0    0 -0.42077251827E+03 -0.72732854809E+03  0.19323040689E+03  0.86220317741E+03  0.00000000000E+00 0. -1.
<mgrwt>
<rscale>  0 0.17756351E+04</rscale>
<asrwt>0</asrwt>
<pdfrwt beam="1">  1        1 0.23783257E+00 0.17756351E+04</pdfrwt>
<pdfrwt beam="2">  1       -1 0.78442133E-01 0.17756351E+04</pdfrwt>
<totfact> 0.93505333E+00</totfact>
</mgrwt>
</event>
<event>
 6    1  0.9364335E-007  0.9955063E+03  0.7818608E-02  0.9313487E-01
         -1   -1    0    0    0  501 -0.00000000000E+00  0.00000000000E+00  0.56853034583E+03  0.56853034583E+03  0.00000000000E+00 0.  1.
          1   -1    0    0  501    0  0.00000000000E+00 -0.00000000000E+00 -0.43578712301E+03  0.43578712301E+03  0.00000000000E+00 0. -1.
         23    2    1    2    0    0  0.11764842001E+03 -0.22242783019E+03  0.49535096953E+03  0.56295631474E+03  0.90730033171E+02 0.  0.
         13    1    3    3    0    0  0.25282867162E+02 -0.11192495722E+03  0.15060761719E+03  0.18933851635E+03  0.00000000000E+00 0. -1.
        -13    1    3    3    0    0  0.92365552852E+02 -0.11050287298E+03  0.34474335234E+03  0.37361779839E+03  0.00000000000E+00 0.  1.
         22    1    1    2    0    0 -0.11764842001E+03  0.22242783019E+03 -0.36260774670E+03  0.44136115410E+03  0.00000000000E+00 0. -1.
<mgrwt>
<rscale>  0 0.99550631E+03</rscale>
<asrwt>0</asrwt>
<pdfrwt beam="1">  1        1 0.67044173E-01 0.99550631E+03</pdfrwt>
<pdfrwt beam="2">  1       -1 0.87466207E-01 0.99550631E+03</pdfrwt>
<totfact> 0.69029285E+01</totfact>
</mgrwt>
</event>
<event>
 6    1  0.9364335E-007  0.2435460E+04  0.7818608E-02  0.8426346E-01
          2   -1    0    0  501    0  0.00000000000E+00  0.00000000000E+00  0.10202493801E+04  0.10202493801E+04  0.00000000000E+00 0. -1.
         -2   -1    0    0    0  501 -0.00000000000E+00 -0.00000000000E+00 -0.14534357355E+04  0.14534357355E+04  0.00000000000E+00 0.  1.
         23    2    1    2    0    0 -0.54612607835E+02  0.75070645957E+03  0.75305498643E+03  0.10687967762E+04  0.93230954446E+02 0.  0.
         11    1    3    3    0    0 -0.72221191045E+02  0.37707775743E+03  0.40018675714E+03  0.55457459027E+03  0.00000000000E+00 0.  1.
        -11    1    3    3    0    0  0.17608583210E+02  0.37362870214E+03  0.35286822929E+03  0.51422218594E+03  0.00000000000E+00 0. -1.
         22    1    1    2    0    0  0.54612607835E+02 -0.75070645957E+03 -0.11862413418E+04  0.14048883395E+04  0.00000000000E+00 0.  1.
<mgrwt>
<rscale>  0 0.24354605E+04</rscale>
<asrwt>0</asrwt>
<pdfrwt beam="1">  1        2 0.15696144E+00 0.24354605E+04</pdfrwt>
<pdfrwt beam="2">  1       -2 0.22360550E+00 0.24354605E+04</pdfrwt>
<totfact> 0.20553145E+00</totfact>
</mgrwt>
</event>
<event>
 6    1  0.9364335E-007  0.5693468E+04  0.7818608E-02  0.7729615E-01
          2   -1    0    0  501    0  0.00000000000E+00  0.00000000000E+00  0.22075724519E+04  0.22075724519E+04  0.00000000000E+00 0. -1.
         -2   -1    0    0    0  501 -0.00000000000E+00 -0.00000000000E+00 -0.36709534387E+04  0.36709534387E+04  0.00000000000E+00 0.  1.
         23    2    1    2    0    0  0.27587384471E+03  0.99650228131E+03 -0.34695826628E+04  0.36215437597E+04  0.91935708890E+02 0.  0.
         11    1    3    3    0    0  0.17065122437E+03  0.62319972725E+03 -0.20095547846E+04  0.21108790047E+04  0.00000000000E+00 0. -1.
        -11    1    3    3    0    0  0.10522262033E+03  0.37330255406E+03 -0.14600278782E+04  0.15106647549E+04  0.00000000000E+00 0.  1.
         22    1    1    2    0    0 -0.27587384471E+03 -0.99650228131E+03  0.20062016759E+04  0.22569821309E+04  0.00000000000E+00 0. -1.
<mgrwt>
<rscale>  0 0.56934684E+04</rscale>
<asrwt>0</asrwt>
<pdfrwt beam="1">  1        2 0.33962653E+00 0.56934684E+04</pdfrwt>
<pdfrwt beam="2">  1       -2 0.56476207E+00 0.56934684E+04</pdfrwt>
<totfact> 0.25857274E-03</totfact>
</mgrwt>
</event>
<event>
 6    1  0.9364335E-007  0.2759438E+04  0.7818608E-02  0.8315973E-01
          2   -1    0    0  501    0  0.00000000000E+00  0.00000000000E+00  0.19307460709E+04  0.19307460709E+04  0.00000000000E+00 0. -1.
         -2   -1    0    0    0  501 -0.00000000000E+00 -0.00000000000E+00 -0.98595302177E+03  0.98595302177E+03  0.00000000000E+00 0.  1.
         23    2    1    2    0    0 -0.94337575974E+03  0.39705787062E+03 -0.50332798945E+03  0.11433781067E+04  0.79759973336E+02 0.  0.
         11    1    3    3    0    0 -0.22716401546E+03  0.13253149787E+03 -0.13703867791E+03  0.29655975298E+03  0.00000000000E+00 0.  1.
        -11    1    3    3    0    0 -0.71621174428E+03  0.26452637275E+03 -0.36628931155E+03  0.84681835377E+03  0.00000000000E+00 0. -1.
         22    1    1    2    0    0  0.94337575974E+03 -0.39705787062E+03  0.14481210386E+04  0.17733209859E+04  0.00000000000E+00 0. -1.
<mgrwt>
<rscale>  0 0.27594383E+04</rscale>
<asrwt>0</asrwt>
<pdfrwt beam="1">  1        2 0.29703786E+00 0.27594383E+04</pdfrwt>
<pdfrwt beam="2">  1       -2 0.15168508E+00 0.27594383E+04</pdfrwt>
<totfact> 0.18540217E+00</totfact>
</mgrwt>
</event>
<event>
 6    1  0.9364335E-007  0.3085832E+04  0.7818608E-02  0.8219637E-01
          2   -1    0    0  501    0  0.00000000000E+00  0.00000000000E+00  0.12447729924E+04  0.12447729924E+04  0.00000000000E+00 0. -1.
         -2   -1    0    0    0  501 -0.00000000000E+00 -0.00000000000E+00 -0.19124684206E+04  0.19124684206E+04  0.00000000000E+00 0.  1.
         23    2    1    2    0    0  0.32215002124E+03 -0.14785016512E+04 -0.63534035297E+03  0.16437042910E+04  0.91425724958E+02 0.  0.
         11    1    3    3    0    0  0.10904933862E+03 -0.38704434022E+03 -0.20416535355E+03  0.45097513362E+03  0.00000000000E+00 0. -1.
        -11    1    3    3    0    0  0.21310068262E+03 -0.10914573110E+04 -0.43117499942E+03  0.11927291574E+04  0.00000000000E+00 0.  1.
         22    1    1    2    0    0 -0.32215002124E+03  0.14785016512E+04 -0.32355075256E+02  0.15135371220E+04  0.00000000000E+00 0. -1.
<mgrwt>
<rscale>  0 0.30858315E+04</rscale>
<asrwt>0</asrwt>
<pdfrwt beam="1">  1        2 0.19150354E+00 0.30858315E+04</pdfrwt>
<pdfrwt beam="2">  1       -2 0.29422591E+00 0.30858315E+04</pdfrwt>
<totfact> 0.52201296E-01</totfact>
</mgrwt>
</event>
<event>
 6    1  0.9364335E-007  0.3926510E+04  0.7818608E-02  0.8019538E-01
         -1   -1    0    0    0  501 -0.00000000000E+00  0.00000000000E+00  0.13296672751E+04  0.13296672751E+04  0.00000000000E+00 0.  1.
          1   -1    0    0  501    0  0.00000000000E+00 -0.00000000000E+00 -0.28987472470E+04  0.28987472470E+04  0.00000000000E+00 0. -1.
         23    2    1    2    0    0  0.16653707186E+04  0.14008671951E+03 -0.18921743219E+04  0.25262177419E+04  0.91479484096E+02 0.  0.
         13    1    3    3    0    0  0.80959403181E+03  0.23596255010E+02 -0.89896525771E+03  0.12100156256E+04  0.00000000000E+00 0. -1.
        -13    1    3    3    0    0  0.85577668678E+03  0.11649046450E+03 -0.99320906417E+03  0.13162021164E+04  0.00000000000E+00 0.  1.
         22    1    1    2    0    0 -0.16653707186E+04 -0.14008671951E+03  0.32309434997E+03  0.17021967801E+04  0.00000000000E+00 0.  1.
<mgrwt>
<rscale>  0 0.39265096E+04</rscale>
<asrwt>0</asrwt>
<pdfrwt beam="1">  1        1 0.44596112E+00 0.39265096E+04</pdfrwt>
<pdfrwt beam="2">  1       -1 0.20456420E+00 0.39265096E+04</pdfrwt>
<totfact> 0.78012972E-02</totfact>
</mgrwt>
</event>
<event>
 6    1  0.9364335E-007  0.1357431E+04  0.7818608E-02  0.8985222E-01
          1   -1    0    0  501    0  0.00000000000E+00  0.00000000000E+00  0.34587673591E+04  0.34587673591E+04  0.00000000000E+00 0. -1.
         -1   -1    0    0    0  501 -0.00000000000E+00 -0.00000000000E+00 -0.13318458197E+03  0.13318458197E+03  0.00000000000E+00 0.  1.
         23    2    1    2    0    0 -0.44248711247E+03  0.25413234101E+03  0.28420763818E+04  0.28889892637E+04  0.92101651613E+02 0.  0.
         11    1    3    3    0    0 -0.35159123160E+03  0.17641547455E+03  0.19841635558E+04  0.20227812116E+04  0.00000000000E+00 0.  1.
        -11    1    3    3    0    0 -0.90895880871E+02  0.77716866460E+02  0.85791282601E+03  0.86620805210E+03  0.00000000000E+00 0. -1.
         22    1    1    2    0    0  0.44248711247E+03 -0.25413234101E+03  0.48350639527E+03  0.70296267732E+03  0.00000000000E+00 0.  1.
<mgrwt>
<rscale>  0 0.13574306E+04</rscale>
<asrwt>0</asrwt>
<pdfrwt beam="1">  1        1 0.53211799E+00 0.13574306E+04</pdfrwt>
<pdfrwt beam="2">  1       -1 0.20489938E-01 0.13574306E+04</pdfrwt>
<totfact> 0.52524769E+00</totfact>
</mgrwt>
</event>
<event>
 6    1  0.9364335E-007  0.2197862E+04  0.7818608E-02  0.8519319E-01
         -1   -1    0    0    0  501 -0.00000000000E+00  0.00000000000E+00  0.16478754682E+04  0.16478754682E+04  0.00000000000E+00 0.  1.
          1   -1    0    0  501    0  0.00000000000E+00 -0.00000000000E+00 -0.73285227372E+03  0.73285227372E+03  0.00000000000E+00 0. -1.
         23    2    1    2    0    0 -0.32043119953E+03  0.95365729284E+03  0.93168524362E+03  0.13745388880E+04  0.95819495669E+02 0.  0.
         13    1    3    3    0    0 -0.14299950467E+03  0.56070666942E+03  0.50678084696E+03  0.76919935928E+03  0.00000000000E+00 0. -1.
        -13    1    3    3    0    0 -0.17743169486E+03  0.39295062342E+03  0.42490439667E+03  0.60533952877E+03  0.00000000000E+00 0.  1.
         22    1    1    2    0    0  0.32043119953E+03 -0.95365729284E+03 -0.16662049119E+02  0.10061888539E+04  0.00000000000E+00 0. -1.
<mgrwt>
<rscale>  0 0.21978619E+04</rscale>
<asrwt>0</asrwt>
<pdfrwt beam="1">  1        1 0.11274650E+00 0.21978619E+04</pdfrwt>
<pdfrwt beam="2">  1       -1 0.25351930E+00 0.21978619E+04</pdfrwt>
<totfact> 0.15309798E+00</totfact>
</mgrwt>
</event>
<event>
 6    1  0.9364335E-007  0.8601031E+03  0.7818608E-02  0.9476876E-01
         -2   -1    0    0    0  501 -0.00000000000E+00  0.00000000000E+00  0.96184505597E+02  0.96184505597E+02  0.00000000000E+00 0.  1.
          2   -1    0    0  501    0  0.00000000000E+00 -0.00000000000E+00 -0.19228079013E+04  0.19228079013E+04  0.00000000000E+00 0. -1.
         23    2    1    2    0    0  0.19808350454E+03 -0.25583730024E+03 -0.27521962180E+03  0.43420741560E+03  0.90002447589E+02 0.  0.
         13    1    3    3    0    0  0.42827962625E+01 -0.60029556965E+02 -0.54602153459E+02  0.81260600635E+02  0.00000000000E+00 0.  1.
        -13    1    3    3    0    0  0.19380070828E+03 -0.19580774327E+03 -0.22061746834E+03  0.35294681497E+03  0.00000000000E+00 0. -1.
         22    1    1    2    0    0 -0.19808350454E+03  0.25583730024E+03 -0.15514037739E+04  0.15847849912E+04  0.00000000000E+00 0. -1.
<mgrwt>
<rscale>  0 0.86010308E+03</rscale>
<asrwt>0</asrwt>
<pdfrwt beam="1">  1        2 0.29581660E+00 0.86010308E+03</pdfrwt>
<pdfrwt beam="2">  1       -2 0.14797616E-01 0.86010308E+03</pdfrwt>
<totfact> 0.26793085E+02</totfact>
</mgrwt>
</event>
<event>
 6    1  0.9364335E-007  0.1658275E+04  0.7818608E-02  0.8785526E-01
          2   -1    0    0  501    0  0.00000000000E+00  0.00000000000E+00  0.17425962117E+04  0.17425962117E+04  0.00000000000E+00 0. -1.
         -2   -1    0    0    0  501 -0.00000000000E+00 -0.00000000000E+00 -0.39450870592E+03  0.39450870592E+03  0.00000000000E+00 0.  1.
         23    2    1    2    0    0 -0.44790893700E+03  0.62134643558E+03  0.27555783556E+03  0.81914676110E+03  0.91517684764E+02 0.  0.
         13    1    3    3    0    0 -0.37545446743E+03  0.54772356020E+03  0.26621949357E+03  0.71542992268E+03  0.00000000000E+00 0. -1.
        -13    1    3    3    0    0 -0.72454469570E+02  0.73622875376E+02  0.93383419927E+01  0.10371683841E+03  0.00000000000E+00 0.  1.
         22    1    1    2    0    0  0.44790893700E+03 -0.62134643558E+03  0.10725296702E+04  0.13179581565E+04  0.00000000000E+00 0. -1.
<mgrwt>
<rscale>  0 0.16582755E+04</rscale>
<asrwt>0</asrwt>
<pdfrwt beam="1">  1        2 0.26809172E+00 0.16582755E+04</pdfrwt>
<pdfrwt beam="2">  1       -2 0.60693648E-01 0.16582755E+04</pdfrwt>
<totfact> 0.22404910E+01</totfact>
</mgrwt>
</event>
<event>
 6    1  0.9364335E-007  0.1304811E+04  0.7818608E-02  0.9025759E-01
         -2   -1    0    0    0  501 -0.00000000000E+00  0.00000000000E+00  0.20428988812E+03  0.20428988812E+03  0.00000000000E+00 0.  1.
          2   -1    0    0  501    0  0.00000000000E+00 -0.00000000000E+00 -0.20834753245E+04  0.20834753245E+04  0.00000000000E+00 0. -1.
         23    2    1    2    0    0 -0.40533725161E+02 -0.12712228670E+03 -0.20581713274E+04  0.20645186945E+04  0.91461295019E+02 0.  0.
         13    1    3    3    0    0 -0.61645562124E+02 -0.84664512877E+02 -0.16999134360E+04  0.17031365022E+04  0.00000000000E+00 0.  1.
        -13    1    3    3    0    0  0.21111836963E+02 -0.42457773825E+02 -0.35825789133E+03  0.36138219231E+03  0.00000000000E+00 0. -1.
         22    1    1    2    0    0  0.40533725161E+02  0.12712228670E+03  0.17898589103E+03  0.22324651809E+03  0.00000000000E+00 0.  1.
<mgrwt>
<rscale>  0 0.13048110E+04</rscale>
<asrwt>0</asrwt>
<pdfrwt beam="1">  1        2 0.32053467E+00 0.13048110E+04</pdfrwt>
<pdfrwt beam="2">  1       -2 0.31429213E-01 0.13048110E+04</pdfrwt>
<totfact> 0.55342317E+01</totfact>
</mgrwt>
</event>
<event>
 6    1  0.1002542E-006  0.1517565E+04  0.7818608E-02  0.8872856E-01
          2   -1    0    0  501    0  0.00000000000E+00  0.00000000000E+00  0.49377171310E+03  0.49377171310E+03  0.00000000000E+00 0. -1.
         -2   -1    0    0    0  501 -0.00000000000E+00 -0.00000000000E+00 -0.11660257025E+04  0.11660257025E+04  0.00000000000E+00 0.  1.
         23    2    1    2    0    0  0.25598413884E+02  0.49667405303E+03 -0.96001712649E+03  0.10852123333E+04  0.93340941580E+02 0.  0.
         11    1    3    3    0    0  0.35415234602E+02  0.31382544949E+03 -0.69145941085E+03  0.76016890784E+03  0.00000000000E+00 0. -1.
        -11    1    3    3    0    0 -0.98168207184E+01  0.18284860354E+03 -0.26855771564E+03  0.32504342543E+03  0.00000000000E+00 0.  1.
         22    1    1    2    0    0 -0.25598413884E+02 -0.49667405303E+03  0.28776313710E+03  0.57458508232E+03  0.00000000000E+00 0. -1.
<mgrwt>
<rscale>  0 0.15175645E+04</rscale>
<asrwt>0</asrwt>
<pdfrwt beam="1">  1        2 0.75964881E-01 0.15175645E+04</pdfrwt>
<pdfrwt beam="2">  1       -2 0.17938857E+00 0.15175645E+04</pdfrwt>
<totfact> 0.11027748E+01</totfact>
</mgrwt>
</event>
<event>
 6    1  0.9364335E-007  0.1154560E+04  0.7818608E-02  0.9153587E-01
          1   -1    0    0  501    0  0.00000000000E+00  0.00000000000E+00  0.12032753650E+04  0.12032753650E+04  0.00000000000E+00 0. -1.
         -1   -1    0    0    0  501 -0.00000000000E+00 -0.00000000000E+00 -0.27695440132E+03  0.27695440132E+03  0.00000000000E+00 0.  1.
         23    2    1    2    0    0 -0.29237816017E+03 -0.52245416851E+02  0.10953165208E+04  0.11385075539E+04  0.90920830248E+02 0.  0.
         13    1    3    3    0    0 -0.72885752173E+02 -0.37174440031E+02  0.43130088937E+03  0.43899285761E+03  0.00000000000E+00 0.  1.
        -13    1    3    3    0    0 -0.21949240800E+03 -0.15070976819E+02  0.66401563142E+03  0.69951469626E+03  0.00000000000E+00 0. -1.
         22    1    1    2    0    0  0.29237816017E+03  0.52245416851E+02 -0.16899555715E+03  0.34172221242E+03  0.00000000000E+00 0.  1.
<mgrwt>
<rscale>  0 0.11545604E+04</rscale>
<asrwt>0</asrwt>
<pdfrwt beam="1">  1        1 0.18511928E+00 0.11545604E+04</pdfrwt>
<pdfrwt beam="2">  1       -1 0.42608370E-01 0.11545604E+04</pdfrwt>
<totfact> 0.57171639E+01</totfact>
</mgrwt>
</event>
<event>
 6    1  0.9364335E-007  0.3194542E+04  0.7818608E-02  0.8190260E-01
         -2   -1    0    0    0  501 -0.00000000000E+00  0.00000000000E+00  0.14553776135E+04  0.14553776135E+04  0.00000000000E+00 0.  1.
          2   -1    0    0  501    0  0.00000000000E+00 -0.00000000000E+00 -0.17529989006E+04  0.17529989006E+04  0.00000000000E+00 0. -1.
         23    2    1    2    0    0 -0.37857001713E+03  0.13409771621E+04  0.63264850662E+03  0.15329849491E+04  0.90904972419E+02 0.  0.
         11    1    3    3    0    0 -0.88037058106E+02  0.20482116538E+03  0.83519758378E+02  0.23807096300E+03  0.00000000000E+00 0.  1.
        -11    1    3    3    0    0 -0.29053295903E+03  0.11361559967E+04  0.54912874824E+03  0.12949139861E+04  0.00000000000E+00 0. -1.
         22    1    1    2    0    0  0.37857001713E+03 -0.13409771621E+04 -0.93026979369E+03  0.16753915650E+04  0.00000000000E+00 0. -1.
<mgrwt>
<rscale>  0 0.31945424E+04</rscale>
<asrwt>0</asrwt>
<pdfrwt beam="1">  1        2 0.26969214E+00 0.31945424E+04</pdfrwt>
<pdfrwt beam="2">  1       -2 0.22390425E+00 0.31945424E+04</pdfrwt>
<totfact> 0.72088168E-01</totfact>
</mgrwt>
</event>
<event>
 6    1  0.9364335E-007  0.3140285E+04  0.7818608E-02  0.8204768E-01
         -1   -1    0    0    0  501 -0.00000000000E+00  0.00000000000E+00  0.15094809812E+04  0.15094809812E+04  0.00000000000E+00 0.  1.
          1   -1    0    0  501    0  0.00000000000E+00 -0.00000000000E+00 -0.16332413208E+04  0.16332413208E+04  0.00000000000E+00 0. -1.
         23    2    1    2    0    0 -0.12206618824E+04 -0.86655944320E+03  0.40793204690E+03  0.15541262257E+04  0.89213623625E+02 0.  0.
         13    1    3    3    0    0 -0.97042157410E+03 -0.66551821576E+03  0.28780181283E+03  0.12113886290E+04  0.00000000000E+00 0. -1.
        -13    1    3    3    0    0 -0.25024030831E+03 -0.20104122744E+03  0.12013023407E+03  0.34273759667E+03  0.00000000000E+00 0.  1.
         22    1    1    2    0    0  0.12206618824E+04  0.86655944320E+03 -0.53169238651E+03  0.15885960763E+04  0.00000000000E+00 0. -1.
<mgrwt>
<rscale>  0 0.31402845E+04</rscale>
<asrwt>0</asrwt>
<pdfrwt beam="1">  1        1 0.25126789E+00 0.31402845E+04</pdfrwt>
<pdfrwt beam="2">  1       -1 0.23222784E+00 0.31402845E+04</pdfrwt>
<totfact> 0.40622622E-01</totfact>
</mgrwt>
</event>
<event>
 6    1  0.9364335E-007  0.1350296E+04  0.7818608E-02  0.8990604E-01
         -2   -1    0    0    0  501 -0.00000000000E+00  0.00000000000E+00  0.75589045555E+03  0.75589045555E+03  0.00000000000E+00 0.  1.
          2   -1    0    0  501    0  0.00000000000E+00 -0.00000000000E+00 -0.60303018920E+03  0.60303018920E+03  0.00000000000E+00 0. -1.
         23    2    1    2    0    0 -0.43293226311E+03  0.17266818287E+02 -0.44026474100E+03  0.62439647102E+03  0.91156038756E+02 0.  0.
         13    1    3    3    0    0 -0.16648476800E+03  0.25435938672E+02 -0.22897872066E+03  0.28424535083E+03  0.00000000000E+00 0.  1.
        -13    1    3    3    0    0 -0.26644749511E+03 -0.81691203848E+01 -0.21128602034E+03  0.34015112019E+03  0.00000000000E+00 0. -1.
         22    1    1    2    0    0  0.43293226311E+03 -0.17266818287E+02  0.59312500734E+03  0.73452417373E+03  0.00000000000E+00 0.  1.
<mgrwt>
<rscale>  0 0.13502959E+04</rscale>
<asrwt>0</asrwt>
<pdfrwt beam="1">  1        2 0.92773875E-01 0.13502959E+04</pdfrwt>
<pdfrwt beam="2">  1       -2 0.11629084E+00 0.13502959E+04</pdfrwt>
<totfact> 0.27622400E+01</totfact>
</mgrwt>
</event>
<event>
 6    1  0.9364335E-007  0.1140436E+04  0.7818608E-02  0.9166653E-01
          2   -1    0    0  501    0  0.00000000000E+00  0.00000000000E+00  0.68409841818E+03  0.68409841818E+03  0.00000000000E+00 0. -1.
         -2   -1    0    0    0  501 -0.00000000000E+00 -0.00000000000E+00 -0.47529478204E+03  0.47529478204E+03  0.00000000000E+00 0.  1.
         23    2    1    2    0    0  0.38623530261E+02  0.52325678437E+03  0.32195699862E+03  0.62265013047E+03  0.93527731315E+02 0.  0.
         13    1    3    3    0    0  0.42178543095E+02  0.18058338701E+03  0.74013250772E+02  0.19966810073E+03  0.00000000000E+00 0. -1.
        -13    1    3    3    0    0 -0.35550128338E+01  0.34267339737E+03  0.24794374785E+03  0.42298202973E+03  0.00000000000E+00 0.  1.
         22    1    1    2    0    0 -0.38623530261E+02 -0.52325678437E+03 -0.11315336248E+03  0.53674306975E+03  0.00000000000E+00 0.  1.
<mgrwt>
<rscale>  0 0.11404357E+04</rscale>
<asrwt>0</asrwt>
<pdfrwt beam="1">  1        2 0.10524591E+00 0.11404357E+04</pdfrwt>
<pdfrwt beam="2">  1       -2 0.73122274E-01 0.11404357E+04</pdfrwt>
<totfact> 0.70602758E+01</totfact>
</mgrwt>
</event>
<event>
 6    1  0.9364335E-007  0.2119165E+04  0.7818608E-02  0.8552848E-01
         -2   -1    0    0    0  501 -0.00000000000E+00  0.00000000000E+00  0.65444078854E+03  0.65444078854E+03  0.00000000000E+00 0.  1.
          2   -1    0    0  501    0  0.00000000000E+00 -0.00000000000E+00 -0.17155334870E+04  0.17155334870E+04  0.00000000000E+00 0. -1.
         23    2    1    2    0    0  0.47587012912E+03 -0.93021354707E+03 -0.71632134714E+03  0.12696938987E+04  0.85186273009E+02 0.  0.
         11    1    3    3    0    0  0.31788574802E+03 -0.68296929226E+03 -0.54656875253E+03  0.93071789722E+03  0.00000000000E+00 0. -1.
        -11    1    3    3    0    0  0.15798438110E+03 -0.24724425481E+03 -0.16975259461E+03  0.33897600149E+03  0.00000000000E+00 0.  1.
         22    1    1    2    0    0 -0.47587012912E+03  0.93021354707E+03 -0.34477135133E+03  0.11002803768E+04  0.00000000000E+00 0. -1.
<mgrwt>
<rscale>  0 0.21191650E+04</rscale>
<asrwt>0</asrwt>
<pdfrwt beam="1">  1        2 0.26392823E+00 0.21191650E+04</pdfrwt>
<pdfrwt beam="2">  1       -2 0.10068320E+00 0.21191650E+04</pdfrwt>
<totfact> 0.71894817E+00</totfact>
</mgrwt>
</event>
<event>
 6    1  0.9364335E-007  0.3422598E+04  0.7818608E-02  0.8132382E-01
         -1   -1    0    0    0  501 -0.00000000000E+00  0.00000000000E+00  0.18026773848E+04  0.18026773848E+04  0.00000000000E+00 0.  1.
          1   -1    0    0  501    0  0.00000000000E+00 -0.00000000000E+00 -0.16245527999E+04  0.16245527999E+04  0.00000000000E+00 0. -1.
         23    2    1    2    0    0 -0.99437291926E+03 -0.74106550837E+03 -0.10899404291E+04  0.16535491338E+04  0.91098894677E+02 0.  0.
         11    1    3    3    0    0 -0.47923075964E+03 -0.37047871208E+03 -0.59121937347E+03  0.84643779727E+03  0.00000000000E+00 0. -1.
        -11    1    3    3    0    0 -0.51514215962E+03 -0.37058679629E+03 -0.49872105567E+03  0.80711133654E+03  0.00000000000E+00 0.  1.
         22    1    1    2    0    0  0.99437291926E+03  0.74106550837E+03  0.12680650141E+04  0.17736810509E+04  0.00000000000E+00 0.  1.
<mgrwt>
<rscale>  0 0.34225982E+04</rscale>
<asrwt>0</asrwt>
<pdfrwt beam="1">  1        1 0.24993120E+00 0.34225982E+04</pdfrwt>
<pdfrwt beam="2">  1       -1 0.27733498E+00 0.34225982E+04</pdfrwt>
<totfact> 0.20411216E-01</totfact>
</mgrwt>
</event>
<event>
 6    1  0.9364335E-007  0.5216254E+03  0.7818608E-02  0.1008284E+00
         -2   -1    0    0    0  501 -0.00000000000E+00  0.00000000000E+00  0.47834236364E+02  0.47834236364E+02  0.00000000000E+00 0.  1.
          2   -1    0    0  501    0  0.00000000000E+00 -0.00000000000E+00 -0.14220620555E+04  0.14220620555E+04  0.00000000000E+00 0. -1.
         23    2    1    2    0    0 -0.40372657685E+02  0.18697322823E+03 -0.11733711050E+04  0.11925294604E+04  0.93476330478E+02 0.  0.
         11    1    3    3    0    0  0.24160482876E+02  0.10332479095E+03 -0.52632097860E+03  0.53691108563E+03  0.00000000000E+00 0.  1.
        -11    1    3    3    0    0 -0.64533140561E+02  0.83648437287E+02 -0.64705012639E+03  0.65561837478E+03  0.00000000000E+00 0. -1.
         22    1    1    2    0    0  0.40372657685E+02 -0.18697322823E+03 -0.20085671410E+03  0.27736683141E+03  0.00000000000E+00 0.  1.
<mgrwt>
<rscale>  0 0.52162535E+03</rscale>
<asrwt>0</asrwt>
<pdfrwt beam="1">  1        2 0.21877879E+00 0.52162535E+03</pdfrwt>
<pdfrwt beam="2">  1       -2 0.73591130E-02 0.52162535E+03</pdfrwt>
<totfact> 0.16076890E+03</totfact>
</mgrwt>
</event>
<event>
 6    1  0.9364335E-007  0.2097246E+04  0.7818608E-02  0.8562457E-01
         -2   -1    0    0    0  501 -0.00000000000E+00  0.00000000000E+00  0.50906236746E+03  0.50906236746E+03  0.00000000000E+00 0.  1.
          2   -1    0    0  501    0  0.00000000000E+00 -0.00000000000E+00 -0.21600699782E+04  0.21600699782E+04  0.00000000000E+00 0. -1.
         23    2    1    2    0    0  0.37960980749E+03  0.80556816176E+03 -0.12717810936E+03  0.90416775155E+03  0.91111921566E+02 0.  0.
         11    1    3    3    0    0  0.13992856489E+03  0.24419021437E+03 -0.40505724479E+01  0.28146984066E+03  0.00000000000E+00 0. -1.
        -11    1    3    3    0    0  0.23968124259E+03  0.56137794740E+03 -0.12312753691E+03  0.62269791088E+03  0.00000000000E+00 0.  1.
         22    1    1    2    0    0 -0.37960980749E+03 -0.80556816176E+03 -0.15238295014E+04  0.17649645942E+04  0.00000000000E+00 0. -1.
<mgrwt>
<rscale>  0 0.20972461E+04</rscale>
<asrwt>0</asrwt>
<pdfrwt beam="1">  1        2 0.33231846E+00 0.20972461E+04</pdfrwt>
<pdfrwt beam="2">  1       -2 0.78317287E-01 0.20972461E+04</pdfrwt>
<totfact> 0.72667120E+00</totfact>
</mgrwt>
</event>
<event>
 6    1  0.9364335E-007  0.2011331E+04  0.7818608E-02  0.8601342E-01
         -2   -1    0    0    0  501 -0.00000000000E+00  0.00000000000E+00  0.58799280665E+03  0.58799280665E+03  0.00000000000E+00 0.  1.
          2   -1    0    0  501    0  0.00000000000E+00 -0.00000000000E+00 -0.17200254822E+04  0.17200254822E+04  0.00000000000E+00 0. -1.
         23    2    1    2    0    0  0.60281222257E+02  0.84735519589E+03  0.45940128014E+02  0.85568754839E+03  0.91902292368E+02 0.  0.
         11    1    3    3    0    0  0.77128064890E+02  0.80651226097E+03  0.40956562722E+02  0.81122635899E+03  0.00000000000E+00 0. -1.
        -11    1    3    3    0    0 -0.16846842633E+02  0.40842934918E+02  0.49835652920E+01  0.44461189396E+02  0.00000000000E+00 0.  1.
         22    1    1    2    0    0 -0.60281222257E+02 -0.84735519589E+03 -0.11779728036E+04  0.14523307405E+04  0.00000000000E+00 0. -1.
<mgrwt>
<rscale>  0 0.20113305E+04</rscale>
<asrwt>0</asrwt>
<pdfrwt beam="1">  1        2 0.26461930E+00 0.20113305E+04</pdfrwt>
<pdfrwt beam="2">  1       -2 0.90460433E-01 0.20113305E+04</pdfrwt>
<totfact> 0.92662667E+00</totfact>
</mgrwt>
</event>
<event>
 6    1  0.9364335E-007  0.3781545E+04  0.7818608E-02  0.8050127E-01
         -2   -1    0    0    0  501 -0.00000000000E+00  0.00000000000E+00  0.13621145904E+04  0.13621145904E+04  0.00000000000E+00 0.  1.
          2   -1    0    0  501    0  0.00000000000E+00 -0.00000000000E+00 -0.26246103112E+04  0.26246103112E+04  0.00000000000E+00 0. -1.
         23    2    1    2    0    0  0.17469012966E+04  0.67981944222E+03 -0.88318089782E+03  0.20742138954E+04  0.92391405193E+02 0.  0.
         13    1    3    3    0    0  0.64222610283E+03  0.27024968575E+03 -0.37312472113E+03  0.79038681500E+03  0.00000000000E+00 0. -1.
        -13    1    3    3    0    0  0.11046751937E+04  0.40956975647E+03 -0.51005617669E+03  0.12838270804E+04  0.00000000000E+00 0.  1.
         22    1    1    2    0    0 -0.17469012966E+04 -0.67981944222E+03 -0.37931482291E+03  0.19125110062E+04  0.00000000000E+00 0.  1.
<mgrwt>
<rscale>  0 0.37815447E+04</rscale>
<asrwt>0</asrwt>
<pdfrwt beam="1">  1        2 0.40378620E+00 0.37815447E+04</pdfrwt>
<pdfrwt beam="2">  1       -2 0.20955609E+00 0.37815447E+04</pdfrwt>
<totfact> 0.27240524E-01</totfact>
</mgrwt>
</event>
<event>
 6    1  0.9364335E-007  0.3018019E+04  0.7818608E-02  0.8238604E-01
         -2   -1    0    0    0  501 -0.00000000000E+00  0.00000000000E+00  0.10578298373E+04  0.10578298373E+04  0.00000000000E+00 0.  1.
          2   -1    0    0  501    0  0.00000000000E+00 -0.00000000000E+00 -0.21526241972E+04  0.21526241972E+04  0.00000000000E+00 0. -1.
         23    2    1    2    0    0  0.57264418718E+02 -0.40525397402E+03 -0.20913857804E+04  0.21330940869E+04  0.93198196500E+02 0.  0.
         11    1    3    3    0    0  0.11145196578E+02 -0.33300037185E+03 -0.16060658642E+04  0.16402624860E+04  0.00000000000E+00 0. -1.
        -11    1    3    3    0    0  0.46119222140E+02 -0.72253602163E+02 -0.48531991626E+03  0.49283160085E+03  0.00000000000E+00 0.  1.
         22    1    1    2    0    0 -0.57264418718E+02  0.40525397402E+03  0.99659142055E+03  0.10773599476E+04  0.00000000000E+00 0.  1.
<mgrwt>
<rscale>  0 0.30180193E+04</rscale>
<asrwt>0</asrwt>
<pdfrwt beam="1">  1        2 0.33117295E+00 0.30180193E+04</pdfrwt>
<pdfrwt beam="2">  1       -2 0.16274305E+00 0.30180193E+04</pdfrwt>
<totfact> 0.11284207E+00</totfact>
</mgrwt>
</event>
<event>
 6    1  0.9364335E-007  0.4421215E+04  0.7818608E-02  0.7924577E-01
          1   -1    0    0  501    0  0.00000000000E+00  0.00000000000E+00  0.44382122148E+04  0.44382122148E+04  0.00000000000E+00 0. -1.
         -1   -1    0    0    0  501 -0.00000000000E+00 -0.00000000000E+00 -0.11010705346E+04  0.11010705346E+04  0.00000000000E+00 0.  1.
         23    2    1    2    0    0 -0.72617084813E+03 -0.14796621841E+04  0.35132123886E+04  0.38816563819E+04  0.88716965059E+02 0.  0.
         13    1    3    3    0    0 -0.52540444319E+03 -0.99138685318E+03  0.23362242986E+04  0.25916870364E+04  0.00000000000E+00 0. -1.
        -13    1    3    3    0    0 -0.20076640494E+03 -0.48827533094E+03  0.11769880900E+04  0.12899693454E+04  0.00000000000E+00 0.  1.
         22    1    1    2    0    0  0.72617084813E+03  0.14796621841E+04 -0.17607070833E+03  0.16576263675E+04  0.00000000000E+00 0.  1.
<mgrwt>
<rscale>  0 0.44212146E+04</rscale>
<asrwt>0</asrwt>
<pdfrwt beam="1">  1        1 0.68280187E+00 0.44212146E+04</pdfrwt>
<pdfrwt beam="2">  1       -1 0.16939547E+00 0.44212146E+04</pdfrwt>
<totfact> 0.69541387E-03</totfact>
</mgrwt>
</event>
<event>
 6    1  0.9364335E-007  0.3755362E+04  0.7818608E-02  0.8055803E-01
         -2   -1    0    0    0  501 -0.00000000000E+00  0.00000000000E+00  0.20770918766E+04  0.20770918766E+04  0.00000000000E+00 0.  1.
          2   -1    0    0  501    0  0.00000000000E+00 -0.00000000000E+00 -0.16974141379E+04  0.16974141379E+04  0.00000000000E+00 0. -1.
         23    2    1    2    0    0 -0.72536194347E+03  0.20117321936E+03  0.19177354062E+04  0.20621269671E+04  0.89654487735E+02 0.  0.
         13    1    3    3    0    0 -0.61543135646E+03  0.19855084048E+03  0.15916993726E+04  0.17180468805E+04  0.00000000000E+00 0.  1.
        -13    1    3    3    0    0 -0.10993058701E+03  0.26223788780E+01  0.32603603360E+03  0.34408008666E+03  0.00000000000E+00 0. -1.
         22    1    1    2    0    0  0.72536194347E+03 -0.20117321936E+03 -0.15380576675E+04  0.17123790473E+04  0.00000000000E+00 0. -1.
<mgrwt>
<rscale>  0 0.37553616E+04</rscale>
<asrwt>0</asrwt>
<pdfrwt beam="1">  1        2 0.26114063E+00 0.37553616E+04</pdfrwt>
<pdfrwt beam="2">  1       -2 0.31955260E+00 0.37553616E+04</pdfrwt>
<totfact> 0.19078037E-01</totfact>
</mgrwt>
</event>
<event>
 6    1  0.9364335E-007  0.2740034E+04  0.7818608E-02  0.8322131E-01
         -2   -1    0    0    0  501 -0.00000000000E+00  0.00000000000E+00  0.10211926861E+04  0.10211926861E+04  0.00000000000E+00 0.  1.
          2   -1    0    0  501    0  0.00000000000E+00 -0.00000000000E+00 -0.18379945085E+04  0.18379945085E+04  0.00000000000E+00 0. -1.
         23    2    1    2    0    0 -0.36584396168E+03  0.47869536676E+03  0.87332076606E+03  0.10648891640E+04  0.91152139955E+02 0.  0.
         11    1    3    3    0    0 -0.41835766404E+02  0.76760457303E+02  0.18360813924E+03  0.20335768476E+03  0.00000000000E+00 0.  1.
        -11    1    3    3    0    0 -0.32400819527E+03  0.40193490945E+03  0.68971262682E+03  0.86153147919E+03  0.00000000000E+00 0. -1.
         22    1    1    2    0    0  0.36584396168E+03 -0.47869536676E+03 -0.16901225885E+04  0.17942980306E+04  0.00000000000E+00 0. -1.
<mgrwt>
<rscale>  0 0.27400340E+04</rscale>
<asrwt>0</asrwt>
<pdfrwt beam="1">  1        2 0.28276838E+00 0.27400340E+04</pdfrwt>
<pdfrwt beam="2">  1       -2 0.15710657E+00 0.27400340E+04</pdfrwt>
<totfact> 0.19027879E+00</totfact>
</mgrwt>
</event>
<event>
 6    1  0.9364335E-007  0.2523480E+04  0.7818608E-02  0.8394668E-01
         -2   -1    0    0    0  501 -0.00000000000E+00  0.00000000000E+00  0.17646104075E+04  0.17646104075E+04  0.00000000000E+00 0.  1.
          2   -1    0    0  501    0  0.00000000000E+00 -0.00000000000E+00 -0.90217506720E+03  0.90217506720E+03  0.00000000000E+00 0. -1.
         23    2    1    2    0    0 -0.11891314831E+04  0.16030305148E+03  0.83839457573E+03  0.14666568520E+04  0.91902690643E+02 0.  0.
         13    1    3    3    0    0 -0.35317668684E+03  0.24606732102E+02  0.20499933750E+03  0.40910144434E+03  0.00000000000E+00 0. -1.
        -13    1    3    3    0    0 -0.83595479629E+03  0.13569631938E+03  0.63339523823E+03  0.10575554077E+04  0.00000000000E+00 0.  1.
         22    1    1    2    0    0  0.11891314831E+04 -0.16030305148E+03  0.24040764544E+02  0.12001286226E+04  0.00000000000E+00 0. -1.
<mgrwt>
<rscale>  0 0.25234798E+04</rscale>
<asrwt>0</asrwt>
<pdfrwt beam="1">  1        2 0.13879616E+00 0.25234798E+04</pdfrwt>
<pdfrwt beam="2">  1       -2 0.27147852E+00 0.25234798E+04</pdfrwt>
<totfact> 0.12347589E+00</totfact>
</mgrwt>
</event>
<event>
 6    1  0.9364335E-007  0.9558139E+03  0.7818608E-02  0.9358381E-01
          1   -1    0    0  501    0  0.00000000000E+00  0.00000000000E+00  0.31120704960E+03  0.31120704960E+03  0.00000000000E+00 0. -1.
         -1   -1    0    0    0  501 -0.00000000000E+00 -0.00000000000E+00 -0.73390068656E+03  0.73390068656E+03  0.00000000000E+00 0.  1.
         23    2    1    2    0    0 -0.44328566288E+03  0.15283609764E+03 -0.28694773045E+03  0.55696021461E+03  0.89468592218E+02 0.  0.
         11    1    3    3    0    0 -0.36503785203E+03  0.10229627259E+03 -0.19598640319E+03  0.42676437414E+03  0.00000000000E+00 0. -1.
        -11    1    3    3    0    0 -0.78247810850E+02  0.50539825055E+02 -0.90961327259E+02  0.13019584047E+03  0.00000000000E+00 0.  1.
         22    1    1    2    0    0  0.44328566288E+03 -0.15283609764E+03 -0.13574590651E+03  0.48814752155E+03  0.00000000000E+00 0. -1.
<mgrwt>
<rscale>  0 0.95581393E+03</rscale>
<asrwt>0</asrwt>
<pdfrwt beam="1">  1        1 0.47878008E-01 0.95581393E+03</pdfrwt>
<pdfrwt beam="2">  1       -1 0.11290780E+00 0.95581393E+03</pdfrwt>
<totfact> 0.60274542E+01</totfact>
</mgrwt>
</event>
<event>
 6    1  0.9364335E-007  0.1358139E+04  0.7818608E-02  0.8984690E-01
         -1   -1    0    0    0  501 -0.00000000000E+00  0.00000000000E+00  0.42351883106E+03  0.42351883106E+03  0.00000000000E+00 0.  1.
          1   -1    0    0  501    0  0.00000000000E+00 -0.00000000000E+00 -0.10888190373E+04  0.10888190373E+04  0.00000000000E+00 0. -1.
         23    2    1    2    0    0 -0.18203302958E+03  0.61956439897E+02  0.38788163836E+03  0.44174615249E+03  0.87822967161E+02 0.  0.
         13    1    3    3    0    0 -0.65982893538E+02 -0.18952204583E+02  0.15025865038E+03  0.16519863895E+03  0.00000000000E+00 0.  1.
        -13    1    3    3    0    0 -0.11605013604E+03  0.80908644480E+02  0.23762298798E+03  0.27654751354E+03  0.00000000000E+00 0. -1.
         22    1    1    2    0    0  0.18203302958E+03 -0.61956439897E+02 -0.10531818446E+04  0.10705917159E+04  0.00000000000E+00 0. -1.
<mgrwt>
<rscale>  0 0.13581390E+04</rscale>
<asrwt>0</asrwt>
<pdfrwt beam="1">  1        1 0.16751062E+00 0.13581390E+04</pdfrwt>
<pdfrwt beam="2">  1       -1 0.65156745E-01 0.13581390E+04</pdfrwt>
<totfact> 0.30201445E+01</totfact>
</mgrwt>
</event>
<event>
 6    1  0.9364335E-007  0.1547607E+04  0.7818608E-02  0.8853397E-01
         -2   -1    0    0    0  501 -0.00000000000E+00  0.00000000000E+00  0.20739032610E+03  0.20739032610E+03  0.00000000000E+00 0.  1.
          2   -1    0    0  501    0  0.00000000000E+00 -0.00000000000E+00 -0.28871753439E+04  0.28871753439E+04  0.00000000000E+00 0. -1.
         23    2    1    2    0    0  0.15037308470E+03  0.24492172175E+01 -0.28568071009E+04  0.28622837699E+04  0.93292573512E+02 0.  0.
         13    1    3    3    0    0  0.25812747512E+02 -0.35692648209E+02 -0.52704764785E+03  0.52888513514E+03  0.00000000000E+00 0.  1.
        -13    1    3    3    0    0  0.12456033719E+03  0.38141865426E+02 -0.23297594530E+04  0.23333986347E+04  0.00000000000E+00 0. -1.
         22    1    1    2    0    0 -0.15037308470E+03 -0.24492172175E+01  0.17702208304E+03  0.23228190018E+03  0.00000000000E+00 0.  1.
<mgrwt>
<rscale>  0 0.15476075E+04</rscale>
<asrwt>0</asrwt>
<pdfrwt beam="1">  1        2 0.44418081E+00 0.15476075E+04</pdfrwt>
<pdfrwt beam="2">  1       -2 0.31906205E-01 0.15476075E+04</pdfrwt>
<totfact> 0.18091549E+01</totfact>
</mgrwt>
</event>
<event>
 6    1  0.9364335E-007  0.5276340E+04  0.7818608E-02  0.7787238E-01
          2   -1    0    0  501    0  0.00000000000E+00  0.00000000000E+00  0.45291249178E+04  0.45291249178E+04  0.00000000000E+00 0. -1.
         -2   -1    0    0    0  501 -0.00000000000E+00 -0.00000000000E+00 -0.15367076465E+04  0.15367076465E+04  0.00000000000E+00 0.  1.
         23    2    1    2    0    0 -0.23696929265E+04 -0.10564349788E+04  0.95225615508E+03  0.27652633997E+04  0.91599422722E+02 0.  0.
         11    1    3    3    0    0 -0.18867244815E+04 -0.80053847095E+03  0.75650120858E+03  0.21846933860E+04  0.00000000000E+00 0.  1.
        -11    1    3    3    0    0 -0.48296844505E+03 -0.25589650782E+03  0.19575494650E+03  0.58057001362E+03  0.00000000000E+00 0. -1.
         22    1    1    2    0    0  0.23696929265E+04  0.10564349788E+04  0.20401611163E+04  0.33005691647E+04  0.00000000000E+00 0. -1.
<mgrwt>
<rscale>  0 0.52763400E+04</rscale>
<asrwt>0</asrwt>
<pdfrwt beam="1">  1        2 0.69678844E+00 0.52763400E+04</pdfrwt>
<pdfrwt beam="2">  1       -2 0.23641656E+00 0.52763400E+04</pdfrwt>
<totfact> 0.63293400E-03</totfact>
</mgrwt>
</event>
<event>
 6    1  0.9364335E-007  0.1245780E+04  0.7818608E-02  0.9073703E-01
         -1   -1    0    0    0  501 -0.00000000000E+00  0.00000000000E+00  0.33244239954E+03  0.33244239954E+03  0.00000000000E+00 0.  1.
          1   -1    0    0  501    0  0.00000000000E+00 -0.00000000000E+00 -0.11670960359E+04  0.11670960359E+04  0.00000000000E+00 0. -1.
         23    2    1    2    0    0 -0.21181546750E+03  0.88375376153E+02  0.27304130229E+03  0.36831605390E+03  0.91810475588E+02 0.  0.
         11    1    3    3    0    0 -0.86940347091E+02  0.65505949529E+02  0.18208738616E+03  0.21214492588E+03  0.00000000000E+00 0. -1.
        -11    1    3    3    0    0 -0.12487512041E+03  0.22869426624E+02  0.90953916123E+02  0.15617112803E+03  0.00000000000E+00 0.  1.
         22    1    1    2    0    0  0.21181546750E+03 -0.88375376153E+02 -0.11076949386E+04  0.11312223815E+04  0.00000000000E+00 0. -1.
<mgrwt>
<rscale>  0 0.12457804E+04</rscale>
<asrwt>0</asrwt>
<pdfrwt beam="1">  1        1 0.17955324E+00 0.12457804E+04</pdfrwt>
<pdfrwt beam="2">  1       -1 0.51144984E-01 0.12457804E+04</pdfrwt>
<totfact> 0.42830705E+01</totfact>
</mgrwt>
</event>
<event>
 6    1  0.9364335E-007  0.2014534E+04  0.7818608E-02  0.8599855E-01
          2   -1    0    0  501    0  0.00000000000E+00  0.00000000000E+00  0.26045368359E+04  0.26045368359E+04  0.00000000000E+00 0. -1.
         -2   -1    0    0    0  501 -0.00000000000E+00 -0.00000000000E+00 -0.38954600596E+03  0.38954600596E+03  0.00000000000E+00 0.  1.
         23    2    1    2    0    0  0.76743745664E+03  0.62316548739E+03  0.84023900194E+03  0.13007907634E+04  0.93592494975E+02 0.  0.
         13    1    3    3    0    0  0.27871087975E+03  0.23667717109E+03  0.36993316890E+03  0.52014073793E+03  0.00000000000E+00 0. -1.
        -13    1    3    3    0    0  0.48872657690E+03  0.38648831629E+03  0.47030583304E+03  0.78065002542E+03  0.00000000000E+00 0.  1.
         22    1    1    2    0    0 -0.76743745664E+03 -0.62316548739E+03  0.13747518280E+04  0.16932920785E+04  0.00000000000E+00 0.  1.
<mgrwt>
<rscale>  0 0.20145341E+04</rscale>
<asrwt>0</asrwt>
<pdfrwt beam="1">  1        2 0.40069796E+00 0.20145341E+04</pdfrwt>
<pdfrwt beam="2">  1       -2 0.59930156E-01 0.20145341E+04</pdfrwt>
<totfact> 0.72929641E+00</totfact>
</mgrwt>
</event>
<event>
 6    1  0.9364335E-007  0.2733437E+04  0.7818608E-02  0.8324237E-01
          1   -1    0    0  501    0  0.00000000000E+00  0.00000000000E+00  0.27917549546E+04  0.27917549546E+04  0.00000000000E+00 0. -1.
         -1   -1    0    0    0  501 -0.00000000000E+00 -0.00000000000E+00 -0.66908442443E+03  0.66908442443E+03  0.00000000000E+00 0.  1.
         23    2    1    2    0    0 -0.11311613929E+04  0.74332017649E+03  0.12878134097E+04  0.18705446287E+04  0.91776076016E+02 0.  0.
         11    1    3    3    0    0 -0.50554460422E+03  0.28081250730E+03  0.52892021647E+03  0.78370122273E+03  0.00000000000E+00 0. -1.
        -11    1    3    3    0    0 -0.62561678863E+03  0.46250766919E+03  0.75889319325E+03  0.10868434059E+04  0.00000000000E+00 0.  1.
         22    1    1    2    0    0  0.11311613929E+04 -0.74332017649E+03  0.83485712043E+03  0.15902947504E+04  0.00000000000E+00 0.  1.
<mgrwt>
<rscale>  0 0.27334372E+04</rscale>
<asrwt>0</asrwt>
<pdfrwt beam="1">  1        1 0.42950076E+00 0.27334372E+04</pdfrwt>
<pdfrwt beam="2">  1       -1 0.10293607E+00 0.27334372E+04</pdfrwt>
<totfact> 0.65541221E-01</totfact>
</mgrwt>
</event>
<event>
 6    1  0.9364335E-007  0.2015443E+04  0.7818608E-02  0.8599435E-01
         -1   -1    0    0    0  501 -0.00000000000E+00  0.00000000000E+00  0.39756821966E+03  0.39756821966E+03  0.00000000000E+00 0.  1.
          1   -1    0    0  501    0  0.00000000000E+00 -0.00000000000E+00 -0.25542841987E+04  0.25542841987E+04  0.00000000000E+00 0. -1.
         23    2    1    2    0    0  0.36259897811E+03  0.50030611166E+02 -0.24526895013E+04  0.24811280756E+04  0.79559139460E+02 0.  0.
         13    1    3    3    0    0  0.29307686452E+03  0.47408982295E+02 -0.21586412915E+04  0.21789616530E+04  0.00000000000E+00 0. -1.
        -13    1    3    3    0    0  0.69522113589E+02  0.26216288710E+01 -0.29404820985E+03  0.30216642258E+03  0.00000000000E+00 0.  1.
         22    1    1    2    0    0 -0.36259897811E+03 -0.50030611166E+02  0.29597352228E+03  0.47072434276E+03  0.00000000000E+00 0.  1.
<mgrwt>
<rscale>  0 0.20154426E+04</rscale>
<asrwt>0</asrwt>
<pdfrwt beam="1">  1        1 0.39296680E+00 0.20154426E+04</pdfrwt>
<pdfrwt beam="2">  1       -1 0.61164342E-01 0.20154426E+04</pdfrwt>
<totfact> 0.31207537E+00</totfact>
</mgrwt>
</event>
<event>
 6    1  0.9364335E-007  0.1112900E+04  0.7818608E-02  0.9192709E-01
          2   -1    0    0  501    0  0.00000000000E+00  0.00000000000E+00  0.67503281454E+03  0.67503281454E+03  0.00000000000E+00 0. -1.
         -2   -1    0    0    0  501 -0.00000000000E+00 -0.00000000000E+00 -0.45869888645E+03  0.45869888645E+03  0.00000000000E+00 0.  1.
         23    2    1    2    0    0 -0.29472315153E+03 -0.25708681142E+03  0.50739327628E+03  0.64621666654E+03  0.84809661233E+02 0.  0.
         13    1    3    3    0    0 -0.23532928280E+03 -0.19337613740E+03  0.33305768161E+03  0.45133315981E+03  0.00000000000E+00 0.  1.
        -13    1    3    3    0    0 -0.59393868732E+02 -0.63710674019E+02  0.17433559467E+03  0.19488350673E+03  0.00000000000E+00 0. -1.
         22    1    1    2    0    0  0.29472315153E+03  0.25708681142E+03 -0.29105934819E+03  0.48751503446E+03  0.00000000000E+00 0.  1.
<mgrwt>
<rscale>  0 0.11129004E+04</rscale>
<asrwt>0</asrwt>
<pdfrwt beam="1">  1        2 0.10385120E+00 0.11129004E+04</pdfrwt>
<pdfrwt beam="2">  1       -2 0.70569060E-01 0.11129004E+04</pdfrwt>
<totfact> 0.77763320E+01</totfact>
</mgrwt>
</event>
<event>
 6    1  0.9364335E-007  0.1818437E+04  0.7818608E-02  0.8696556E-01
         -1   -1    0    0    0  501 -0.00000000000E+00  0.00000000000E+00  0.37475606733E+03  0.37475606733E+03  0.00000000000E+00 0.  1.
          1   -1    0    0  501    0  0.00000000000E+00 -0.00000000000E+00 -0.22059114160E+04  0.22059114160E+04  0.00000000000E+00 0. -1.
         23    2    1    2    0    0 -0.24694450034E+02  0.47466478552E+03  0.17839311270E+03  0.51567317509E+03  0.90433657287E+02 0.  0.
         13    1    3    3    0    0  0.14002535375E+02  0.39491939023E+03  0.14358400511E+03  0.42044471967E+03  0.00000000000E+00 0. -1.
        -13    1    3    3    0    0 -0.38696985409E+02  0.79745395299E+02  0.34809107590E+02  0.95228455423E+02  0.00000000000E+00 0.  1.
         22    1    1    2    0    0  0.24694450034E+02 -0.47466478552E+03 -0.20095484613E+04  0.20649943082E+04  0.00000000000E+00 0. -1.
<mgrwt>
<rscale>  0 0.18184374E+04</rscale>
<asrwt>0</asrwt>
<pdfrwt beam="1">  1        1 0.33937098E+00 0.18184374E+04</pdfrwt>
<pdfrwt beam="2">  1       -1 0.57654780E-01 0.18184374E+04</pdfrwt>
<totfact> 0.61985477E+00</totfact>
</mgrwt>
</event>
<event>
 6    1  0.9364335E-007  0.2039312E+04  0.7818608E-02  0.8588458E-01
         -2   -1    0    0    0  501 -0.00000000000E+00  0.00000000000E+00  0.99560554929E+03  0.99560554929E+03  0.00000000000E+00 0.  1.
          2   -1    0    0  501    0  0.00000000000E+00 -0.00000000000E+00 -0.10442878547E+04  0.10442878547E+04  0.00000000000E+00 0. -1.
         23    2    1    2    0    0 -0.90930752803E+03 -0.39122940697E+03  0.21207576175E+03  0.10162257826E+04  0.88532949567E+02 0.  0.
         13    1    3    3    0    0 -0.61712955420E+03 -0.30868025728E+03  0.15691495423E+03  0.70764022693E+03  0.00000000000E+00 0.  1.
        -13    1    3    3    0    0 -0.29217797383E+03 -0.82549149688E+02  0.55160807515E+02  0.30858555571E+03  0.00000000000E+00 0. -1.
         22    1    1    2    0    0  0.90930752803E+03  0.39122940697E+03 -0.26075806715E+03  0.10236676213E+04  0.00000000000E+00 0.  1.
<mgrwt>
<rscale>  0 0.20393124E+04</rscale>
<asrwt>0</asrwt>
<pdfrwt beam="1">  1        2 0.16065967E+00 0.20393124E+04</pdfrwt>
<pdfrwt beam="2">  1       -2 0.15317008E+00 0.20393124E+04</pdfrwt>
<totfact> 0.61942687E+00</totfact>
</mgrwt>
</event>
<event>
 6    1  0.9364335E-007  0.2390595E+04  0.7818608E-02  0.8443033E-01
          1   -1    0    0  501    0  0.00000000000E+00  0.00000000000E+00  0.12977711027E+04  0.12977711027E+04  0.00000000000E+00 0. -1.
         -1   -1    0    0    0  501 -0.00000000000E+00 -0.00000000000E+00 -0.11009157702E+04  0.11009157702E+04  0.00000000000E+00 0.  1.
         23    2    1    2    0    0 -0.28463950133E+03 -0.26190687942E+03  0.12315097845E+04  0.12940943261E+04  0.91917986913E+02 0.  0.
         13    1    3    3    0    0 -0.54998463716E+02 -0.10325212674E+03  0.31483917293E+03  0.33587131091E+03  0.00000000000E+00 0. -1.
        -13    1    3    3    0    0 -0.22964103761E+03 -0.15865475268E+03  0.91667061157E+03  0.95822301518E+03  0.00000000000E+00 0.  1.
         22    1    1    2    0    0  0.28463950133E+03  0.26190687942E+03 -0.10346544520E+04  0.11045925467E+04  0.00000000000E+00 0.  1.
<mgrwt>
<rscale>  0 0.23905955E+04</rscale>
<asrwt>0</asrwt>
<pdfrwt beam="1">  1        1 0.19965709E+00 0.23905955E+04</pdfrwt>
<pdfrwt beam="2">  1       -1 0.16937166E+00 0.23905955E+04</pdfrwt>
<totfact> 0.20251534E+00</totfact>
</mgrwt>
</event>
<event>
 6    1  0.9364335E-007  0.9572071E+03  0.7818608E-02  0.9356766E-01
         -2   -1    0    0    0  501 -0.00000000000E+00  0.00000000000E+00  0.39107383090E+03  0.39107383090E+03  0.00000000000E+00 0.  1.
          2   -1    0    0  501    0  0.00000000000E+00 -0.00000000000E+00 -0.58572412089E+03  0.58572412089E+03  0.00000000000E+00 0. -1.
         23    2    1    2    0    0 -0.34575561078E+03 -0.28490857174E+03 -0.25509824256E+03  0.52472075529E+03  0.97657160683E+02 0.  0.
         13    1    3    3    0    0 -0.21725537907E+03 -0.20562977325E+03 -0.21534246828E+03  0.36858632914E+03  0.00000000000E+00 0. -1.
        -13    1    3    3    0    0 -0.12850023171E+03 -0.79278798488E+02 -0.39755774280E+02  0.15613442615E+03  0.00000000000E+00 0.  1.
         22    1    1    2    0    0  0.34575561078E+03  0.28490857174E+03  0.60447952573E+02  0.45207719651E+03  0.00000000000E+00 0. -1.
<mgrwt>
<rscale>  0 0.95720714E+03</rscale>
<asrwt>0</asrwt>
<pdfrwt beam="1">  1        2 0.90111403E-01 0.95720714E+03</pdfrwt>
<pdfrwt beam="2">  1       -2 0.60165205E-01 0.95720714E+03</pdfrwt>
<totfact> 0.13163284E+02</totfact>
</mgrwt>
</event>
<event>
 6    1  0.9364335E-007  0.1714060E+04  0.7818608E-02  0.8753386E-01
         -3   -1    0    0    0  501 -0.00000000000E+00  0.00000000000E+00  0.35916980851E+03  0.35916980851E+03  0.00000000000E+00 0.  1.
          3   -1    0    0  501    0  0.00000000000E+00 -0.00000000000E+00 -0.20449959471E+04  0.20449959471E+04  0.00000000000E+00 0. -1.
         23    2    1    2    0    0 -0.22175263170E+03  0.52301639244E+03  0.50050567561E+02  0.57769694521E+03  0.92240580931E+02 0.  0.
         13    1    3    3    0    0 -0.39807042643E+02  0.20658877503E+03  0.24171714277E+02  0.21177297841E+03  0.00000000000E+00 0. -1.
        -13    1    3    3    0    0 -0.18194558905E+03  0.31642761741E+03  0.25878853284E+02  0.36592396680E+03  0.00000000000E+00 0.  1.
         22    1    1    2    0    0  0.22175263170E+03 -0.52301639244E+03 -0.17358767062E+04  0.18264688104E+04  0.00000000000E+00 0. -1.
<mgrwt>
<rscale>  0 0.17140604E+04</rscale>
<asrwt>0</asrwt>
<pdfrwt beam="1">  1        3 0.31461476E+00 0.17140604E+04</pdfrwt>
<pdfrwt beam="2">  1       -3 0.55256894E-01 0.17140604E+04</pdfrwt>
<totfact> 0.25893228E-01</totfact>
</mgrwt>
</event>
<event>
 6    1  0.9364335E-007  0.3064288E+04  0.7818608E-02  0.8225608E-01
         -1   -1    0    0    0  501 -0.00000000000E+00  0.00000000000E+00  0.15593229995E+04  0.15593229995E+04  0.00000000000E+00 0.  1.
          1   -1    0    0  501    0  0.00000000000E+00 -0.00000000000E+00 -0.15054391055E+04  0.15054391055E+04  0.00000000000E+00 0. -1.
         23    2    1    2    0    0 -0.44740790351E+03 -0.22902264161E+03  0.14731020853E+04  0.15591707007E+04  0.91423836224E+02 0.  0.
         11    1    3    3    0    0 -0.10020274508E+03 -0.35452890873E+02  0.21636865015E+03  0.24106615349E+03  0.00000000000E+00 0. -1.
        -11    1    3    3    0    0 -0.34720515843E+03 -0.19356975074E+03  0.12567334351E+04  0.13181045472E+04  0.00000000000E+00 0.  1.
         22    1    1    2    0    0  0.44740790351E+03  0.22902264161E+03 -0.14192181913E+04  0.15055914044E+04  0.00000000000E+00 0. -1.
<mgrwt>
<rscale>  0 0.30642884E+04</rscale>
<asrwt>0</asrwt>
<pdfrwt beam="1">  1        1 0.23160602E+00 0.30642884E+04</pdfrwt>
<pdfrwt beam="2">  1       -1 0.23989585E+00 0.30642884E+04</pdfrwt>
<totfact> 0.44572104E-01</totfact>
</mgrwt>
</event>
<event>
 6    1  0.9364335E-007  0.2130741E+04  0.7818608E-02  0.8547821E-01
         -2   -1    0    0    0  501 -0.00000000000E+00  0.00000000000E+00  0.42684174493E+03  0.42684174493E+03  0.00000000000E+00 0.  1.
          2   -1    0    0  501    0  0.00000000000E+00 -0.00000000000E+00 -0.26590997135E+04  0.26590997135E+04  0.00000000000E+00 0. -1.
         23    2    1    2    0    0  0.87438130856E+03  0.35017074882E+03 -0.40422649427E+03  0.10295219251E+04  0.96716645344E+02 0.  0.
         11    1    3    3    0    0  0.75214114403E+03  0.27208012925E+03 -0.31773762929E+03  0.86063993536E+03  0.00000000000E+00 0.  1.
        -11    1    3    3    0    0  0.12224016453E+03  0.78090619566E+02 -0.86488864984E+02  0.16888198973E+03  0.00000000000E+00 0. -1.
         22    1    1    2    0    0 -0.87438130856E+03 -0.35017074882E+03 -0.18280314743E+04  0.20564195333E+04  0.00000000000E+00 0. -1.
<mgrwt>
<rscale>  0 0.21307414E+04</rscale>
<asrwt>0</asrwt>
<pdfrwt beam="1">  1        2 0.40909227E+00 0.21307414E+04</pdfrwt>
<pdfrwt beam="2">  1       -2 0.65667960E-01 0.21307414E+04</pdfrwt>
<totfact> 0.55162563E+00</totfact>
</mgrwt>
</event>
<event>
 6    1  0.9364335E-007  0.2142722E+04  0.7818608E-02  0.8542654E-01
         -1   -1    0    0    0  501 -0.00000000000E+00  0.00000000000E+00  0.62911460200E+03  0.62911460200E+03  0.00000000000E+00 0.  1.
          1   -1    0    0  501    0  0.00000000000E+00 -0.00000000000E+00 -0.18244915157E+04  0.18244915157E+04  0.00000000000E+00 0. -1.
         23    2    1    2    0    0  0.12580955593E+03 -0.10617520319E+04 -0.61937738633E+03  0.12391429123E+04  0.93281234875E+02 0.  0.
         11    1    3    3    0    0  0.39844672335E+02 -0.56329867163E+03 -0.37068189561E+03  0.67549837831E+03  0.00000000000E+00 0.  1.
        -11    1    3    3    0    0  0.85964883594E+02 -0.49845336032E+03 -0.24869549072E+03  0.56364453402E+03  0.00000000000E+00 0. -1.
         22    1    1    2    0    0 -0.12580955593E+03  0.10617520319E+04 -0.57599952740E+03  0.12144632054E+04  0.00000000000E+00 0. -1.
<mgrwt>
<rscale>  0 0.21427219E+04</rscale>
<asrwt>0</asrwt>
<pdfrwt beam="1">  1        1 0.28069100E+00 0.21427219E+04</pdfrwt>
<pdfrwt beam="2">  1       -1 0.96786863E-01 0.21427219E+04</pdfrwt>
<totfact> 0.36878552E+00</totfact>
</mgrwt>
</event>
<event>
 6    1  0.9364335E-007  0.6106230E+03  0.7818608E-02  0.9883609E-01
          2   -1    0    0  501    0  0.00000000000E+00  0.00000000000E+00  0.15210831347E+04  0.15210831347E+04  0.00000000000E+00 0. -1.
         -2   -1    0    0    0  501 -0.00000000000E+00 -0.00000000000E+00 -0.61282060532E+02  0.61282060532E+02  0.00000000000E+00 0.  1.
         23    2    1    2    0    0 -0.16228238899E+03  0.94155036646E+02  0.13478251858E+04  0.13638718446E+04  0.91175283293E+02 0.  0.
         11    1    3    3    0    0 -0.79527531794E+02  0.20551548492E+02  0.84560085498E+03  0.84958095576E+03  0.00000000000E+00 0.  1.
        -11    1    3    3    0    0 -0.82754857200E+02  0.73603488154E+02  0.50222433084E+03  0.51429088884E+03  0.00000000000E+00 0. -1.
         22    1    1    2    0    0  0.16228238899E+03 -0.94155036646E+02  0.11197588839E+03  0.21849335066E+03  0.00000000000E+00 0.  1.
<mgrwt>
<rscale>  0 0.61062299E+03</rscale>
<asrwt>0</asrwt>
<pdfrwt beam="1">  1        2 0.23401276E+00 0.61062299E+03</pdfrwt>
<pdfrwt beam="2">  1       -2 0.94280104E-02 0.61062299E+03</pdfrwt>
<totfact> 0.95052397E+02</totfact>
</mgrwt>
</event>
<event>
 6    1  0.9364335E-007  0.1881267E+04  0.7818608E-02  0.8664238E-01
         -1   -1    0    0    0  501 -0.00000000000E+00  0.00000000000E+00  0.26321643393E+04  0.26321643393E+04  0.00000000000E+00 0.  1.
          1   -1    0    0  501    0  0.00000000000E+00 -0.00000000000E+00 -0.33614587130E+03  0.33614587130E+03  0.00000000000E+00 0. -1.
         23    2    1    2    0    0  0.30579079352E+03  0.88700876216E+03  0.11846088440E+04  0.15138261420E+04  0.89882819797E+02 0.  0.
         11    1    3    3    0    0  0.20364896845E+03  0.53129562750E+03  0.78016233864E+03  0.96560924849E+03  0.00000000000E+00 0. -1.
        -11    1    3    3    0    0  0.10214182507E+03  0.35571313466E+03  0.40444650539E+03  0.54821689350E+03  0.00000000000E+00 0.  1.
         22    1    1    2    0    0 -0.30579079352E+03 -0.88700876216E+03  0.11114096240E+04  0.14544840686E+04  0.00000000000E+00 0.  1.
<mgrwt>
<rscale>  0 0.18812668E+04</rscale>
<asrwt>0</asrwt>
<pdfrwt beam="1">  1        1 0.51714751E-01 0.18812668E+04</pdfrwt>
<pdfrwt beam="2">  1       -1 0.40494835E+00 0.18812668E+04</pdfrwt>
<totfact> 0.46951895E-01</totfact>
</mgrwt>
</event>
<event>
 6    1  0.9364335E-007  0.3127020E+04  0.7818608E-02  0.8208361E-01
          1   -1    0    0  501    0  0.00000000000E+00  0.00000000000E+00  0.42630813822E+04  0.42630813822E+04  0.00000000000E+00 0. -1.
         -1   -1    0    0    0  501 -0.00000000000E+00 -0.00000000000E+00 -0.57342640009E+03  0.57342640009E+03  0.00000000000E+00 0.  1.
         23    2    1    2    0    0  0.11049441889E+04 -0.10927771686E+04  0.20940739579E+04  0.26091904709E+04  0.87553248682E+02 0.  0.
         11    1    3    3    0    0  0.83381629070E+03 -0.84714179957E+03  0.15435961067E+04  0.19482268287E+04  0.00000000000E+00 0.  1.
        -11    1    3    3    0    0  0.27112789818E+03 -0.24563536908E+03  0.55047785112E+03  0.66096364218E+03  0.00000000000E+00 0. -1.
         22    1    1    2    0    0 -0.11049441889E+04  0.10927771686E+04  0.15955810242E+04  0.22273173114E+04  0.00000000000E+00 0.  1.
<mgrwt>
<rscale>  0 0.31270199E+04</rscale>
<asrwt>0</asrwt>
<pdfrwt beam="1">  1        1 0.65585865E+00 0.31270199E+04</pdfrwt>
<pdfrwt beam="2">  1       -1 0.88219449E-01 0.31270199E+04</pdfrwt>
<totfact> 0.58555893E-02</totfact>
</mgrwt>
</event>
<event>
 6    1  0.9364335E-007  0.2172949E+04  0.7818608E-02  0.8529772E-01
         -2   -1    0    0    0  501 -0.00000000000E+00  0.00000000000E+00  0.53429045451E+03  0.53429045451E+03  0.00000000000E+00 0.  1.
          2   -1    0    0  501    0  0.00000000000E+00 -0.00000000000E+00 -0.22093356706E+04  0.22093356706E+04  0.00000000000E+00 0. -1.
         23    2    1    2    0    0  0.80618644909E+03  0.54686179037E+02  0.74617645160E+02  0.81638786871E+03  0.89410236162E+02 0.  0.
         13    1    3    3    0    0  0.24601402915E+03 -0.24346428223E+02  0.19220379342E+02  0.24796183998E+03  0.00000000000E+00 0.  1.
        -13    1    3    3    0    0  0.56017241995E+03  0.79032607260E+02  0.55397265817E+02  0.56842602873E+03  0.00000000000E+00 0. -1.
         22    1    1    2    0    0 -0.80618644909E+03 -0.54686179037E+02 -0.17496628612E+04  0.19272382564E+04  0.00000000000E+00 0. -1.
<mgrwt>
<rscale>  0 0.21729491E+04</rscale>
<asrwt>0</asrwt>
<pdfrwt beam="1">  1        2 0.33989780E+00 0.21729491E+04</pdfrwt>
<pdfrwt beam="2">  1       -2 0.82198530E-01 0.21729491E+04</pdfrwt>
<totfact> 0.60759830E+00</totfact>
</mgrwt>
</event>
<event>
 6    1  0.9364335E-007  0.3909800E+04  0.7818608E-02  0.8022994E-01
         -2   -1    0    0    0  501 -0.00000000000E+00  0.00000000000E+00  0.12650209168E+04  0.12650209168E+04  0.00000000000E+00 0.  1.
          2   -1    0    0  501    0  0.00000000000E+00 -0.00000000000E+00 -0.30210043922E+04  0.30210043922E+04  0.00000000000E+00 0. -1.
         23    2    1    2    0    0  0.20642256230E+03 -0.11372960989E+04 -0.26052273813E+04  0.28517073867E+04  0.94723917071E+02 0.  0.
         11    1    3    3    0    0  0.10759143662E+03 -0.50228896445E+03 -0.12668841705E+04  0.13670646007E+04  0.00000000000E+00 0.  1.
        -11    1    3    3    0    0  0.98831125681E+02 -0.63500713441E+03 -0.13383432108E+04  0.14846427860E+04  0.00000000000E+00 0. -1.
         22    1    1    2    0    0 -0.20642256230E+03  0.11372960989E+04  0.84924390588E+03  0.14343179223E+04  0.00000000000E+00 0.  1.
<mgrwt>
<rscale>  0 0.39097999E+04</rscale>
<asrwt>0</asrwt>
<pdfrwt beam="1">  1        2 0.46476990E+00 0.39097999E+04</pdfrwt>
<pdfrwt beam="2">  1       -2 0.19461861E+00 0.39097999E+04</pdfrwt>
<totfact> 0.19362549E-01</totfact>
</mgrwt>
</event>
<event>
 6    1  0.9364335E-007  0.2155384E+04  0.7818608E-02  0.8537231E-01
         -2   -1    0    0    0  501 -0.00000000000E+00  0.00000000000E+00  0.99057872851E+03  0.99057872851E+03  0.00000000000E+00 0.  1.
          2   -1    0    0  501    0  0.00000000000E+00 -0.00000000000E+00 -0.11724662608E+04  0.11724662608E+04  0.00000000000E+00 0. -1.
         23    2    1    2    0    0 -0.65947086057E+03  0.12615124026E+03  0.75247510859E+03  0.10124584015E+04  0.89650847087E+02 0.  0.
         13    1    3    3    0    0 -0.36415346775E+03  0.24425380663E+02  0.39828294578E+03  0.54021630130E+03  0.00000000000E+00 0. -1.
        -13    1    3    3    0    0 -0.29531739282E+03  0.10172585960E+03  0.35419216281E+03  0.47224210021E+03  0.00000000000E+00 0.  1.
         22    1    1    2    0    0  0.65947086057E+03 -0.12615124026E+03 -0.93436264085E+03  0.11505865878E+04  0.00000000000E+00 0. -1.
<mgrwt>
<rscale>  0 0.21553841E+04</rscale>
<asrwt>0</asrwt>
<pdfrwt beam="1">  1        2 0.18037942E+00 0.21553841E+04</pdfrwt>
<pdfrwt beam="2">  1       -2 0.15239673E+00 0.21553841E+04</pdfrwt>
<totfact> 0.51853281E+00</totfact>
</mgrwt>
</event>
<event>
 6    1  0.9364335E-007  0.9270233E+03  0.7818608E-02  0.9392417E-01
          2   -1    0    0  501    0  0.00000000000E+00  0.00000000000E+00  0.19889229562E+03  0.19889229562E+03  0.00000000000E+00 0. -1.
         -2   -1    0    0    0  501 -0.00000000000E+00 -0.00000000000E+00 -0.10801979749E+04  0.10801979749E+04  0.00000000000E+00 0.  1.
         23    2    1    2    0    0  0.19749088980E+03 -0.86133361787E+02  0.11438517976E+03  0.26035483168E+03  0.90989348090E+02 0.  0.
         13    1    3    3    0    0  0.12664569923E+03 -0.79177959581E+02  0.11605693988E+03  0.18914940051E+03  0.00000000000E+00 0. -1.
        -13    1    3    3    0    0  0.70845190575E+02 -0.69554022059E+01 -0.16717601284E+01  0.71205431179E+02  0.00000000000E+00 0.  1.
         22    1    1    2    0    0 -0.19749088980E+03  0.86133361787E+02 -0.99569085900E+03  0.10187354388E+04  0.00000000000E+00 0.  1.
<mgrwt>
<rscale>  0 0.92702331E+03</rscale>
<asrwt>0</asrwt>
<pdfrwt beam="1">  1        2 0.30598815E-01 0.92702331E+03</pdfrwt>
<pdfrwt beam="2">  1       -2 0.16618430E+00 0.92702331E+03</pdfrwt>
<totfact> 0.39595799E+01</totfact>
</mgrwt>
</event>
<event>
 6    1  0.9364335E-007  0.1291557E+04  0.7818608E-02  0.9036287E-01
         -1   -1    0    0    0  501 -0.00000000000E+00  0.00000000000E+00  0.10251563629E+04  0.10251563629E+04  0.00000000000E+00 0.  1.
          1   -1    0    0  501    0  0.00000000000E+00 -0.00000000000E+00 -0.40679642617E+03  0.40679642617E+03  0.00000000000E+00 0. -1.
         23    2    1    2    0    0  0.36896238517E+03 -0.16403808089E+03 -0.24352814430E+03  0.48016878108E+03  0.90633148454E+02 0.  0.
         13    1    3    3    0    0  0.24941904810E+03 -0.78534524479E+02 -0.19205323974E+03  0.32444102698E+03  0.00000000000E+00 0. -1.
        -13    1    3    3    0    0  0.11954333707E+03 -0.85503556412E+02 -0.51474904559E+02  0.15572775410E+03  0.00000000000E+00 0.  1.
         22    1    1    2    0    0 -0.36896238517E+03  0.16403808089E+03  0.86188808098E+03  0.95178400795E+03  0.00000000000E+00 0.  1.
<mgrwt>
<rscale>  0 0.12915571E+04</rscale>
<asrwt>0</asrwt>
<pdfrwt beam="1">  1        1 0.62584066E-01 0.12915571E+04</pdfrwt>
<pdfrwt beam="2">  1       -1 0.15771636E+00 0.12915571E+04</pdfrwt>
<totfact> 0.17542400E+01</totfact>
</mgrwt>
</event>
<event>
 6    1  0.9364335E-007  0.8533152E+03  0.7818608E-02  0.9485898E-01
          1   -1    0    0  501    0  0.00000000000E+00  0.00000000000E+00  0.89332921613E+03  0.89332921613E+03  0.00000000000E+00 0. -1.
         -1   -1    0    0    0  501 -0.00000000000E+00 -0.00000000000E+00 -0.20377337300E+03  0.20377337300E+03  0.00000000000E+00 0.  1.
         23    2    1    2    0    0  0.55959607657E+02 -0.24917955870E+03  0.78029429678E+03  0.82607602745E+03  0.91216683669E+02 0.  0.
         11    1    3    3    0    0  0.80039002554E+02 -0.21357363052E+03  0.66546202783E+03  0.70346261313E+03  0.00000000000E+00 0. -1.
        -11    1    3    3    0    0 -0.24079394897E+02 -0.35605928179E+02  0.11483226895E+03  0.12261341432E+03  0.00000000000E+00 0.  1.
         22    1    1    2    0    0 -0.55959607657E+02  0.24917955870E+03 -0.90738453645E+02  0.27102656168E+03  0.00000000000E+00 0.  1.
<mgrwt>
<rscale>  0 0.85331520E+03</rscale>
<asrwt>0</asrwt>
<pdfrwt beam="1">  1        1 0.13743526E+00 0.85331520E+03</pdfrwt>
<pdfrwt beam="2">  1       -1 0.31349750E-01 0.85331520E+03</pdfrwt>
<totfact> 0.17539986E+02</totfact>
</mgrwt>
</event>
<event>
 6    1  0.9364335E-007  0.1615416E+04  0.7818608E-02  0.8811133E-01
         -2   -1    0    0    0  501 -0.00000000000E+00  0.00000000000E+00  0.20512023980E+04  0.20512023980E+04  0.00000000000E+00 0.  1.
          2   -1    0    0  501    0  0.00000000000E+00 -0.00000000000E+00 -0.31805349794E+03  0.31805349794E+03  0.00000000000E+00 0. -1.
         23    2    1    2    0    0  0.75291360040E+02  0.17133492618E+03  0.20178641412E+04  0.20285401575E+04  0.90415886939E+02 0.  0.
         13    1    3    3    0    0  0.53999945639E+02  0.16933472268E+03  0.15444729150E+04  0.15546661467E+04  0.00000000000E+00 0.  1.
        -13    1    3    3    0    0  0.21291414401E+02  0.20002035051E+01  0.47339122614E+03  0.47387401081E+03  0.00000000000E+00 0. -1.
         22    1    1    2    0    0 -0.75291360040E+02 -0.17133492618E+03 -0.28471524116E+03  0.34071573838E+03  0.00000000000E+00 0. -1.
<mgrwt>
<rscale>  0 0.16154159E+04</rscale>
<asrwt>0</asrwt>
<pdfrwt beam="1">  1        2 0.48931309E-01 0.16154159E+04</pdfrwt>
<pdfrwt beam="2">  1       -2 0.31556959E+00 0.16154159E+04</pdfrwt>
<totfact> 0.25214099E+00</totfact>
</mgrwt>
</event>
<event>
 6    1  0.9364335E-007  0.3434684E+04  0.7818608E-02  0.8129446E-01
         -1   -1    0    0    0  501 -0.00000000000E+00  0.00000000000E+00  0.12537499602E+04  0.12537499602E+04  0.00000000000E+00 0.  1.
          1   -1    0    0  501    0  0.00000000000E+00 -0.00000000000E+00 -0.23523539655E+04  0.23523539655E+04  0.00000000000E+00 0. -1.
         23    2    1    2    0    0 -0.45206086753E+03  0.15837096663E+04 -0.10560780427E+04  0.19585894971E+04  0.90976100525E+02 0.  0.
         13    1    3    3    0    0 -0.18188125909E+03  0.54272173630E+03 -0.40834846703E+03  0.70311887045E+03  0.00000000000E+00 0.  1.
        -13    1    3    3    0    0 -0.27017960844E+03  0.10409879300E+04 -0.64772957564E+03  0.12554706266E+04  0.00000000000E+00 0. -1.
         22    1    1    2    0    0  0.45206086753E+03 -0.15837096663E+04 -0.42525962666E+02  0.16475144286E+04  0.00000000000E+00 0.  1.
<mgrwt>
<rscale>  0 0.34346841E+04</rscale>
<asrwt>0</asrwt>
<pdfrwt beam="1">  1        1 0.36190061E+00 0.34346841E+04</pdfrwt>
<pdfrwt beam="2">  1       -1 0.19288461E+00 0.34346841E+04</pdfrwt>
<totfact> 0.23702996E-01</totfact>
</mgrwt>
</event>
<event>
 6    1  0.9364335E-007  0.1382259E+04  0.7818608E-02  0.8966762E-01
          1   -1    0    0  501    0  0.00000000000E+00  0.00000000000E+00  0.17742755166E+04  0.17742755166E+04  0.00000000000E+00 0. -1.
         -1   -1    0    0    0  501 -0.00000000000E+00 -0.00000000000E+00 -0.26921403570E+03  0.26921403570E+03  0.00000000000E+00 0.  1.
         23    2    1    2    0    0  0.56545319814E+03 -0.54751184850E+02  0.18153333770E+03  0.60319036207E+03  0.90273189094E+02 0.  0.
         11    1    3    3    0    0  0.24749778273E+03 -0.36360379465E+02  0.34928582802E+02  0.25258114646E+03  0.00000000000E+00 0.  1.
        -11    1    3    3    0    0  0.31795541541E+03 -0.18390805385E+02  0.14660475490E+03  0.35060921561E+03  0.00000000000E+00 0. -1.
         22    1    1    2    0    0 -0.56545319814E+03  0.54751184850E+02  0.13235281432E+04  0.14402991903E+04  0.00000000000E+00 0. -1.
<mgrwt>
<rscale>  0 0.13822588E+04</rscale>
<asrwt>0</asrwt>
<pdfrwt beam="1">  1        1 0.27296546E+00 0.13822588E+04</pdfrwt>
<pdfrwt beam="2">  1       -1 0.41417545E-01 0.13822588E+04</pdfrwt>
<totfact> 0.23667767E+01</totfact>
</mgrwt>
</event>
<event>
 6    1  0.9364335E-007  0.4160961E+04  0.7818608E-02  0.7972840E-01
         -2   -1    0    0    0  501 -0.00000000000E+00  0.00000000000E+00  0.29733421486E+04  0.29733421486E+04  0.00000000000E+00 0.  1.
          2   -1    0    0  501    0  0.00000000000E+00 -0.00000000000E+00 -0.14557352531E+04  0.14557352531E+04  0.00000000000E+00 0. -1.
         23    2    1    2    0    0  0.15875739637E+04  0.28313298151E+03 -0.63833373299E+03  0.17367484157E+04  0.90938050968E+02 0.  0.
         11    1    3    3    0    0  0.11245142888E+04  0.16669293855E+03 -0.42279383056E+03  0.12128782069E+04  0.00000000000E+00 0.  1.
        -11    1    3    3    0    0  0.46305967492E+03  0.11644004296E+03 -0.21553990243E+03  0.52387020881E+03  0.00000000000E+00 0. -1.
         22    1    1    2    0    0 -0.15875739637E+04 -0.28313298151E+03  0.21559406285E+04  0.26923289861E+04  0.00000000000E+00 0.  1.
<mgrwt>
<rscale>  0 0.41609609E+04</rscale>
<asrwt>0</asrwt>
<pdfrwt beam="1">  1        2 0.22395927E+00 0.41609609E+04</pdfrwt>
<pdfrwt beam="2">  1       -2 0.45743725E+00 0.41609609E+04</pdfrwt>
<totfact> 0.32482370E-02</totfact>
</mgrwt>
</event>
<event>
 6    1  0.9364335E-007  0.4011079E+04  0.7818608E-02  0.8002315E-01
          1   -1    0    0  501    0  0.00000000000E+00  0.00000000000E+00  0.37715714752E+04  0.37715714752E+04  0.00000000000E+00 0. -1.
         -1   -1    0    0    0  501 -0.00000000000E+00 -0.00000000000E+00 -0.10664489301E+04  0.10664489301E+04  0.00000000000E+00 0.  1.
         23    2    1    2    0    0  0.97205818795E+03 -0.64630680590E+03  0.33188587625E+04  0.35192020885E+04  0.85733574797E+02 0.  0.
         11    1    3    3    0    0  0.17378296940E+03 -0.13107490696E+03  0.53069338460E+03  0.57359970376E+03  0.00000000000E+00 0.  1.
        -11    1    3    3    0    0  0.79827521855E+03 -0.51523189894E+03  0.27881653779E+04  0.29456023847E+04  0.00000000000E+00 0. -1.
         22    1    1    2    0    0 -0.97205818795E+03  0.64630680590E+03 -0.61373621740E+03  0.13188183168E+04  0.00000000000E+00 0.  1.
<mgrwt>
<rscale>  0 0.40110788E+04</rscale>
<asrwt>0</asrwt>
<pdfrwt beam="1">  1        1 0.58024176E+00 0.40110788E+04</pdfrwt>
<pdfrwt beam="2">  1       -1 0.16406907E+00 0.40110788E+04</pdfrwt>
<totfact> 0.31978886E-02</totfact>
</mgrwt>
</event>
<event>
 6    1  0.9364335E-007  0.1345468E+04  0.7818608E-02  0.8994266E-01
         -1   -1    0    0    0  501 -0.00000000000E+00  0.00000000000E+00  0.48968031099E+03  0.48968031099E+03  0.00000000000E+00 0.  1.
          1   -1    0    0  501    0  0.00000000000E+00 -0.00000000000E+00 -0.92421763057E+03  0.92421763057E+03  0.00000000000E+00 0. -1.
         23    2    1    2    0    0  0.35803577780E+03 -0.49117952499E+03  0.76941973896E+02  0.61950634316E+03  0.91766540264E+02 0.  0.
         11    1    3    3    0    0  0.14079108388E+03 -0.13390116096E+03  0.49280121797E+02  0.20044994540E+03  0.00000000000E+00 0. -1.
        -11    1    3    3    0    0  0.21724469392E+03 -0.35727836403E+03  0.27661852098E+02  0.41905639776E+03  0.00000000000E+00 0.  1.
         22    1    1    2    0    0 -0.35803577780E+03  0.49117952499E+03 -0.51147929347E+03  0.79439159840E+03  0.00000000000E+00 0. -1.
<mgrwt>
<rscale>  0 0.13454682E+04</rscale>
<asrwt>0</asrwt>
<pdfrwt beam="1">  1        1 0.14218733E+00 0.13454682E+04</pdfrwt>
<pdfrwt beam="2">  1       -1 0.75335433E-01 0.13454682E+04</pdfrwt>
<totfact> 0.30163357E+01</totfact>
</mgrwt>
</event>
<event>
 6    1  0.9364335E-007  0.4580669E+04  0.7818608E-02  0.7896664E-01
         -1   -1    0    0    0  501 -0.00000000000E+00  0.00000000000E+00  0.17768545563E+04  0.17768545563E+04  0.00000000000E+00 0.  1.
          1   -1    0    0  501    0  0.00000000000E+00 -0.00000000000E+00 -0.29522014666E+04  0.29522014666E+04  0.00000000000E+00 0. -1.
         23    2    1    2    0    0  0.80039824392E+03 -0.31629810990E+03  0.16023883428E+04  0.18210506964E+04  0.88856031112E+02 0.  0.
         13    1    3    3    0    0  0.19190240836E+03 -0.50679406493E+02  0.31008609332E+03  0.36816887680E+03  0.00000000000E+00 0. -1.
        -13    1    3    3    0    0  0.60849583555E+03 -0.26561870341E+03  0.12923022495E+04  0.14528818195E+04  0.00000000000E+00 0.  1.
         22    1    1    2    0    0 -0.80039824392E+03  0.31629810990E+03 -0.27777352531E+04  0.29080053266E+04  0.00000000000E+00 0. -1.
<mgrwt>
<rscale>  0 0.45806692E+04</rscale>
<asrwt>0</asrwt>
<pdfrwt beam="1">  1        1 0.45418484E+00 0.45806692E+04</pdfrwt>
<pdfrwt beam="2">  1       -1 0.27336224E+00 0.45806692E+04</pdfrwt>
<totfact> 0.23753154E-02</totfact>
</mgrwt>
</event>
<event>
 6    1  0.9364335E-007  0.2192464E+04  0.7818608E-02  0.8521571E-01
         -2   -1    0    0    0  501 -0.00000000000E+00  0.00000000000E+00  0.12267896224E+04  0.12267896224E+04  0.00000000000E+00 0.  1.
          2   -1    0    0  501    0  0.00000000000E+00 -0.00000000000E+00 -0.97956882302E+03  0.97956882302E+03  0.00000000000E+00 0. -1.
         23    2    1    2    0    0  0.54020928120E+03 -0.32954030696E+03  0.10224061105E+04  0.12056910942E+04  0.89184518498E+02 0.  0.
         11    1    3    3    0    0  0.46026867405E+03 -0.26166944854E+03  0.90303344305E+03  0.10467987160E+04  0.00000000000E+00 0. -1.
        -11    1    3    3    0    0  0.79940607146E+02 -0.67870858420E+02  0.11937266746E+03  0.15889237814E+03  0.00000000000E+00 0.  1.
         22    1    1    2    0    0 -0.54020928120E+03  0.32954030696E+03 -0.77518531109E+03  0.10006673513E+04  0.00000000000E+00 0. -1.
<mgrwt>
<rscale>  0 0.21924642E+04</rscale>
<asrwt>0</asrwt>
<pdfrwt beam="1">  1        2 0.15070290E+00 0.21924642E+04</pdfrwt>
<pdfrwt beam="2">  1       -2 0.18873687E+00 0.21924642E+04</pdfrwt>
<totfact> 0.37529503E+00</totfact>
</mgrwt>
</event>
<event>
 6    1  0.9364335E-007  0.1988368E+04  0.7818608E-02  0.8612078E-01
          1   -1    0    0  501    0  0.00000000000E+00  0.00000000000E+00  0.77161228067E+03  0.77161228067E+03  0.00000000000E+00 0. -1.
         -1   -1    0    0    0  501 -0.00000000000E+00 -0.00000000000E+00 -0.12809569006E+04  0.12809569006E+04  0.00000000000E+00 0.  1.
         23    2    1    2    0    0  0.65605594320E+03 -0.64051562980E+03  0.13580732219E+03  0.93145781257E+03  0.92197370978E+02 0.  0.
         13    1    3    3    0    0  0.54081579727E+03 -0.50653457193E+03  0.75927005690E+02  0.74486502760E+03  0.00000000000E+00 0.  1.
        -13    1    3    3    0    0  0.11524014592E+03 -0.13398105787E+03  0.59880316502E+02  0.18659278498E+03  0.00000000000E+00 0. -1.
         22    1    1    2    0    0 -0.65605594320E+03  0.64051562980E+03 -0.64515194217E+03  0.11211113687E+04  0.00000000000E+00 0.  1.
<mgrwt>
<rscale>  0 0.19883683E+04</rscale>
<asrwt>0</asrwt>
<pdfrwt beam="1">  1        1 0.11870958E+00 0.19883683E+04</pdfrwt>
<pdfrwt beam="2">  1       -1 0.19707029E+00 0.19883683E+04</pdfrwt>
<totfact> 0.34294706E+00</totfact>
</mgrwt>
</event>
<event>
 6    1  0.9364335E-007  0.2640970E+04  0.7818608E-02  0.8354416E-01
          2   -1    0    0  501    0  0.00000000000E+00  0.00000000000E+00  0.15550822001E+04  0.15550822001E+04  0.00000000000E+00 0. -1.
         -2   -1    0    0    0  501 -0.00000000000E+00 -0.00000000000E+00 -0.11212790754E+04  0.11212790754E+04  0.00000000000E+00 0.  1.
         23    2    1    2    0    0  0.68131687119E+03 -0.95604715053E+03 -0.39255910925E+03  0.12407104215E+04  0.83909849559E+02 0.  0.
         13    1    3    3    0    0  0.47124732108E+03 -0.62527912861E+03 -0.22596418370E+03  0.81492811868E+03  0.00000000000E+00 0. -1.
        -13    1    3    3    0    0  0.21006955011E+03 -0.33076802192E+03 -0.16659492555E+03  0.42578230285E+03  0.00000000000E+00 0.  1.
         22    1    1    2    0    0 -0.68131687119E+03  0.95604715053E+03  0.82636223397E+03  0.14356508540E+04  0.00000000000E+00 0. -1.
<mgrwt>
<rscale>  0 0.26409704E+04</rscale>
<asrwt>0</asrwt>
<pdfrwt beam="1">  1        2 0.23924342E+00 0.26409704E+04</pdfrwt>
<pdfrwt beam="2">  1       -2 0.17250447E+00 0.26409704E+04</pdfrwt>
<totfact> 0.21319224E+00</totfact>
</mgrwt>
</event>
<event>
 6    1  0.9364335E-007  0.2512706E+04  0.7818608E-02  0.8398473E-01
         -1   -1    0    0    0  501 -0.00000000000E+00  0.00000000000E+00  0.89515097568E+03  0.89515097568E+03  0.00000000000E+00 0.  1.
          1   -1    0    0  501    0  0.00000000000E+00 -0.00000000000E+00 -0.17633031867E+04  0.17633031867E+04  0.00000000000E+00 0. -1.
         23    2    1    2    0    0 -0.71848136329E+03 -0.45407119610E+03 -0.14111914055E+04  0.16498473573E+04  0.90216400725E+02 0.  0.
         13    1    3    3    0    0 -0.66769153376E+03 -0.44091613801E+03 -0.12932254041E+04  0.15207402706E+04  0.00000000000E+00 0. -1.
        -13    1    3    3    0    0 -0.50789829532E+02 -0.13155058092E+02 -0.11796600140E+03  0.12910708665E+03  0.00000000000E+00 0.  1.
         22    1    1    2    0    0  0.71848136329E+03  0.45407119610E+03  0.54303919447E+03  0.10086068051E+04  0.00000000000E+00 0.  1.
<mgrwt>
<rscale>  0 0.25127058E+04</rscale>
<asrwt>0</asrwt>
<pdfrwt beam="1">  1        1 0.27127741E+00 0.25127058E+04</pdfrwt>
<pdfrwt beam="2">  1       -1 0.13771554E+00 0.25127058E+04</pdfrwt>
<totfact> 0.16754615E+00</totfact>
</mgrwt>
</event>
<event>
 6    1  0.9364335E-007  0.1779449E+04  0.7818608E-02  0.8717305E-01
          2   -1    0    0  501    0  0.00000000000E+00  0.00000000000E+00  0.14714175117E+04  0.14714175117E+04  0.00000000000E+00 0. -1.
         -2   -1    0    0    0  501 -0.00000000000E+00 -0.00000000000E+00 -0.53799130235E+03  0.53799130235E+03  0.00000000000E+00 0.  1.
         23    2    1    2    0    0  0.31379712664E+03 -0.82713769506E+03  0.54652647257E+03  0.10438432753E+04  0.91061489937E+02 0.  0.
         11    1    3    3    0    0  0.13695281836E+03 -0.46234591502E+03  0.26435217312E+03  0.54991080279E+03  0.00000000000E+00 0.  1.
        -11    1    3    3    0    0  0.17684430828E+03 -0.36479178004E+03  0.28217429945E+03  0.49393247254E+03  0.00000000000E+00 0. -1.
         22    1    1    2    0    0 -0.31379712664E+03  0.82713769506E+03  0.38689973680E+03  0.96556553874E+03  0.00000000000E+00 0.  1.
<mgrwt>
<rscale>  0 0.17794492E+04</rscale>
<asrwt>0</asrwt>
<pdfrwt beam="1">  1        2 0.22637192E+00 0.17794492E+04</pdfrwt>
<pdfrwt beam="2">  1       -2 0.82767893E-01 0.17794492E+04</pdfrwt>
<totfact> 0.15948511E+01</totfact>
</mgrwt>
</event>
<event>
 6    1  0.9364335E-007  0.2469992E+04  0.7818608E-02  0.8413755E-01
         -1   -1    0    0    0  501 -0.00000000000E+00  0.00000000000E+00  0.11364415377E+04  0.11364415377E+04  0.00000000000E+00 0.  1.
          1   -1    0    0  501    0  0.00000000000E+00 -0.00000000000E+00 -0.13420976676E+04  0.13420976676E+04  0.00000000000E+00 0. -1.
         23    2    1    2    0    0 -0.18909802967E+03 -0.99005060972E+03 -0.81627644684E+03  0.13000590629E+04  0.88814721448E+02 0.  0.
         13    1    3    3    0    0 -0.19544320111E+03 -0.98120933929E+03 -0.81130951545E+03  0.12880966354E+04  0.00000000000E+00 0.  1.
        -13    1    3    3    0    0  0.63451714416E+01 -0.88412704349E+01 -0.49669313863E+01  0.11962427468E+02  0.00000000000E+00 0. -1.
         22    1    1    2    0    0  0.18909802967E+03  0.99005060972E+03  0.61062031697E+03  0.11784801424E+04  0.00000000000E+00 0.  1.
<mgrwt>
<rscale>  0 0.24699923E+04</rscale>
<asrwt>0</asrwt>
<pdfrwt beam="1">  1        1 0.20647656E+00 0.24699923E+04</pdfrwt>
<pdfrwt beam="2">  1       -1 0.17483716E+00 0.24699923E+04</pdfrwt>
<totfact> 0.17055028E+00</totfact>
</mgrwt>
</event>
<event>
 6    1  0.9364335E-007  0.2070848E+04  0.7818608E-02  0.8574195E-01
         -1   -1    0    0    0  501 -0.00000000000E+00  0.00000000000E+00  0.84248786283E+03  0.84248786283E+03  0.00000000000E+00 0.  1.
          1   -1    0    0  501    0  0.00000000000E+00 -0.00000000000E+00 -0.12725444945E+04  0.12725444945E+04  0.00000000000E+00 0. -1.
         23    2    1    2    0    0 -0.81268182362E+03 -0.18372291607E+03 -0.83979520037E+03  0.11865435039E+04  0.91780454364E+02 0.  0.
         13    1    3    3    0    0 -0.26789103278E+03 -0.22450565733E+02 -0.30030457053E+03  0.40305392744E+03  0.00000000000E+00 0. -1.
        -13    1    3    3    0    0 -0.54479079084E+03 -0.16127235033E+03 -0.53949062984E+03  0.78348957648E+03  0.00000000000E+00 0.  1.
         22    1    1    2    0    0  0.81268182362E+03  0.18372291607E+03  0.40973856866E+03  0.92848885345E+03  0.00000000000E+00 0.  1.
<mgrwt>
<rscale>  0 0.20708484E+04</rscale>
<asrwt>0</asrwt>
<pdfrwt beam="1">  1        1 0.19577608E+00 0.20708484E+04</pdfrwt>
<pdfrwt beam="2">  1       -1 0.12961352E+00 0.20708484E+04</pdfrwt>
<totfact> 0.44597335E+00</totfact>
</mgrwt>
</event>
<event>
 6    1  0.9364335E-007  0.2342720E+04  0.7818608E-02  0.8461265E-01
         -2   -1    0    0    0  501 -0.00000000000E+00  0.00000000000E+00  0.56693067382E+03  0.56693067382E+03  0.00000000000E+00 0.  1.
          2   -1    0    0  501    0  0.00000000000E+00 -0.00000000000E+00 -0.24201981507E+04  0.24201981507E+04  0.00000000000E+00 0. -1.
         23    2    1    2    0    0 -0.81841750220E+03 -0.34048167239E+03  0.44920789786E+02  0.89216971445E+03  0.90630816456E+02 0.  0.
         13    1    3    3    0    0 -0.17737692800E+03 -0.57024968374E+02  0.43167230336E+02  0.19125331730E+03  0.00000000000E+00 0. -1.
        -13    1    3    3    0    0 -0.64104057420E+03 -0.28345670401E+03  0.17535594501E+01  0.70091639715E+03  0.00000000000E+00 0.  1.
         22    1    1    2    0    0  0.81841750220E+03  0.34048167239E+03 -0.18981882667E+04  0.20949591101E+04  0.00000000000E+00 0.  1.
<mgrwt>
<rscale>  0 0.23427203E+04</rscale>
<asrwt>0</asrwt>
<pdfrwt beam="1">  1        2 0.37233818E+00 0.23427203E+04</pdfrwt>
<pdfrwt beam="2">  1       -2 0.87220103E-01 0.23427203E+04</pdfrwt>
<totfact> 0.39720005E+00</totfact>
</mgrwt>
</event>
<event>
 6    1  0.9364335E-007  0.2298892E+04  0.7818608E-02  0.8478358E-01
         -2   -1    0    0    0  501 -0.00000000000E+00  0.00000000000E+00  0.55631969168E+03  0.55631969168E+03  0.00000000000E+00 0.  1.
          2   -1    0    0  501    0  0.00000000000E+00 -0.00000000000E+00 -0.23749402104E+04  0.23749402104E+04  0.00000000000E+00 0. -1.
         23    2    1    2    0    0 -0.76830045019E+03 -0.55922150042E+03 -0.17310089806E+04  0.19769590848E+04  0.94661839368E+02 0.  0.
         13    1    3    3    0    0 -0.10751702245E+03 -0.98923463223E+02 -0.33209573296E+03  0.36281308899E+03  0.00000000000E+00 0. -1.
        -13    1    3    3    0    0 -0.66078342774E+03 -0.46029803720E+03 -0.13989132476E+04  0.16141459958E+04  0.00000000000E+00 0.  1.
         22    1    1    2    0    0  0.76830045019E+03  0.55922150042E+03 -0.87611538167E+02  0.95430081731E+03  0.00000000000E+00 0.  1.
<mgrwt>
<rscale>  0 0.22988919E+04</rscale>
<asrwt>0</asrwt>
<pdfrwt beam="1">  1        2 0.36537541E+00 0.22988919E+04</pdfrwt>
<pdfrwt beam="2">  1       -2 0.85587646E-01 0.22988919E+04</pdfrwt>
<totfact> 0.44186363E+00</totfact>
</mgrwt>
</event>
<event>
 6    1  0.9364335E-007  0.1557076E+04  0.7818608E-02  0.8847360E-01
          2   -1    0    0  501    0  0.00000000000E+00  0.00000000000E+00  0.22782128894E+04  0.22782128894E+04  0.00000000000E+00 0. -1.
         -2   -1    0    0    0  501 -0.00000000000E+00 -0.00000000000E+00 -0.26605142960E+03  0.26605142960E+03  0.00000000000E+00 0.  1.
         23    2    1    2    0    0  0.37918158709E+03  0.53180600217E+03  0.32412204737E+03  0.73427167872E+03  0.86622725911E+02 0.  0.
         11    1    3    3    0    0  0.16189708054E+03  0.29824681884E+03  0.15269557235E+03  0.37212601018E+03  0.00000000000E+00 0.  1.
        -11    1    3    3    0    0  0.21728450655E+03  0.23355918333E+03  0.17142647502E+03  0.36214566854E+03  0.00000000000E+00 0. -1.
         22    1    1    2    0    0 -0.37918158709E+03 -0.53180600217E+03  0.16880394124E+04  0.18099926403E+04  0.00000000000E+00 0. -1.
<mgrwt>
<rscale>  0 0.15570765E+04</rscale>
<asrwt>0</asrwt>
<pdfrwt beam="1">  1        2 0.35049428E+00 0.15570765E+04</pdfrwt>
<pdfrwt beam="2">  1       -2 0.40930991E-01 0.15570765E+04</pdfrwt>
<totfact> 0.25398087E+01</totfact>
</mgrwt>
</event>
<event>
 6    1  0.9364335E-007  0.1316583E+04  0.7818608E-02  0.9016517E-01
         -1   -1    0    0    0  501 -0.00000000000E+00  0.00000000000E+00  0.62905612494E+03  0.62905612494E+03  0.00000000000E+00 0.  1.
          1   -1    0    0  501    0  0.00000000000E+00 -0.00000000000E+00 -0.68888550224E+03  0.68888550224E+03  0.00000000000E+00 0. -1.
         23    2    1    2    0    0  0.34662248301E+02  0.42609998884E+03 -0.52647820389E+03  0.68507213091E+03  0.96859968128E+02 0.  0.
         11    1    3    3    0    0  0.34102046238E+02  0.17882655594E+03 -0.15651518008E+03  0.24008100355E+03  0.00000000000E+00 0. -1.
        -11    1    3    3    0    0  0.56020206250E+00  0.24727343290E+03 -0.36996302381E+03  0.44499112736E+03  0.00000000000E+00 0.  1.
         22    1    1    2    0    0 -0.34662248301E+02 -0.42609998884E+03  0.46664882659E+03  0.63286949627E+03  0.00000000000E+00 0.  1.
<mgrwt>
<rscale>  0 0.13165829E+04</rscale>
<asrwt>0</asrwt>
<pdfrwt beam="1">  1        1 0.10598239E+00 0.13165829E+04</pdfrwt>
<pdfrwt beam="2">  1       -1 0.96777865E-01 0.13165829E+04</pdfrwt>
<totfact> 0.28143452E+01</totfact>
</mgrwt>
</event>
<event>
 6    1  0.9364335E-007  0.3307493E+04  0.7818608E-02  0.8160991E-01
         -2   -1    0    0    0  501 -0.00000000000E+00  0.00000000000E+00  0.11483262702E+04  0.11483262702E+04  0.00000000000E+00 0.  1.
          2   -1    0    0  501    0  0.00000000000E+00 -0.00000000000E+00 -0.23816205192E+04  0.23816205192E+04  0.00000000000E+00 0. -1.
         23    2    1    2    0    0 -0.13941856590E+04 -0.48947843672E+03  0.17252734814E+03  0.14904181294E+04  0.90761901782E+02 0.  0.
         13    1    3    3    0    0 -0.90345918260E+03 -0.31340638091E+03  0.68035563854E+02  0.95869228231E+03  0.00000000000E+00 0.  1.
        -13    1    3    3    0    0 -0.49072647644E+03 -0.17607205581E+03  0.10449178429E+03  0.53172584712E+03  0.00000000000E+00 0. -1.
         22    1    1    2    0    0  0.13941856590E+04  0.48947843672E+03 -0.14058215971E+04  0.20395286599E+04  0.00000000000E+00 0. -1.
<mgrwt>
<rscale>  0 0.33074930E+04</rscale>
<asrwt>0</asrwt>
<pdfrwt beam="1">  1        2 0.36640315E+00 0.33074930E+04</pdfrwt>
<pdfrwt beam="2">  1       -2 0.17666558E+00 0.33074930E+04</pdfrwt>
<totfact> 0.65021989E-01</totfact>
</mgrwt>
</event>
<event>
 6    1  0.9364335E-007  0.4395409E+04  0.7818608E-02  0.7929208E-01
          2   -1    0    0  501    0  0.00000000000E+00  0.00000000000E+00  0.38227544897E+04  0.38227544897E+04  0.00000000000E+00 0. -1.
         -2   -1    0    0    0  501 -0.00000000000E+00 -0.00000000000E+00 -0.12634618443E+04  0.12634618443E+04  0.00000000000E+00 0.  1.
         23    2    1    2    0    0 -0.54744432054E+03 -0.33157028182E+03  0.37119473547E+04  0.37677903730E+04  0.89760764592E+02 0.  0.
         11    1    3    3    0    0 -0.32250520129E+03 -0.15252761822E+03  0.22029147685E+04  0.22316155037E+04  0.00000000000E+00 0. -1.
        -11    1    3    3    0    0 -0.22493911925E+03 -0.17904266360E+03  0.15090325862E+04  0.15361748693E+04  0.00000000000E+00 0.  1.
         22    1    1    2    0    0  0.54744432054E+03  0.33157028182E+03 -0.11526547093E+04  0.13184259610E+04  0.00000000000E+00 0.  1.
<mgrwt>
<rscale>  0 0.43954087E+04</rscale>
<asrwt>0</asrwt>
<pdfrwt beam="1">  1        2 0.58811607E+00 0.43954087E+04</pdfrwt>
<pdfrwt beam="2">  1       -2 0.19437875E+00 0.43954087E+04</pdfrwt>
<totfact> 0.52075370E-02</totfact>
</mgrwt>
</event>
<event>
 6    1  0.9364335E-007  0.2009216E+04  0.7818608E-02  0.8602324E-01
          2   -1    0    0  501    0  0.00000000000E+00  0.00000000000E+00  0.12906644141E+04  0.12906644141E+04  0.00000000000E+00 0. -1.
         -2   -1    0    0    0  501 -0.00000000000E+00 -0.00000000000E+00 -0.78195177321E+03  0.78195177321E+03  0.00000000000E+00 0.  1.
         23    2    1    2    0    0 -0.28733736673E+03 -0.55945899737E+03 -0.55057648897E+03  0.84068656567E+03  0.89790308183E+02 0.  0.
         11    1    3    3    0    0 -0.28295149852E+03 -0.50138466532E+03 -0.48311793931E+03  0.75156574990E+03  0.00000000000E+00 0. -1.
        -11    1    3    3    0    0 -0.43858682061E+01 -0.58074332048E+02 -0.67458549655E+02  0.89120815775E+02  0.00000000000E+00 0.  1.
         22    1    1    2    0    0  0.28733736673E+03  0.55945899737E+03  0.10592891298E+04  0.12319296216E+04  0.00000000000E+00 0. -1.
<mgrwt>
<rscale>  0 0.20092161E+04</rscale>
<asrwt>0</asrwt>
<pdfrwt beam="1">  1        2 0.19856376E+00 0.20092161E+04</pdfrwt>
<pdfrwt beam="2">  1       -2 0.12030027E+00 0.20092161E+04</pdfrwt>
<totfact> 0.82027420E+00</totfact>
</mgrwt>
</event>
<event>
 6    1  0.9364335E-007  0.3771193E+04  0.7818608E-02  0.8052365E-01
          2   -1    0    0  501    0  0.00000000000E+00  0.00000000000E+00  0.39989230919E+04  0.39989230919E+04  0.00000000000E+00 0. -1.
         -2   -1    0    0    0  501 -0.00000000000E+00 -0.00000000000E+00 -0.88910778160E+03  0.88910778160E+03  0.00000000000E+00 0.  1.
         23    2    1    2    0    0 -0.15467058666E+04  0.74169015395E+02  0.16392801115E+03  0.15599605527E+04  0.93832043827E+02 0.  0.
         13    1    3    3    0    0 -0.12830938448E+04  0.90897521742E+02  0.15560582018E+03  0.12956872096E+04  0.00000000000E+00 0. -1.
        -13    1    3    3    0    0 -0.26361202188E+03 -0.16728506348E+02  0.83221909631E+01  0.26427334309E+03  0.00000000000E+00 0.  1.
         22    1    1    2    0    0  0.15467058666E+04 -0.74169015395E+02  0.29458872991E+04  0.33280703208E+04  0.00000000000E+00 0. -1.
<mgrwt>
<rscale>  0 0.37711927E+04</rscale>
<asrwt>0</asrwt>
<pdfrwt beam="1">  1        2 0.61521893E+00 0.37711927E+04</pdfrwt>
<pdfrwt beam="2">  1       -2 0.13678581E+00 0.37711927E+04</pdfrwt>
<totfact> 0.10475037E-01</totfact>
</mgrwt>
</event>
<event>
 6    1  0.9364335E-007  0.4004153E+04  0.7818608E-02  0.8003709E-01
         -2   -1    0    0    0  501 -0.00000000000E+00  0.00000000000E+00  0.19072998149E+04  0.19072998149E+04  0.00000000000E+00 0.  1.
          2   -1    0    0  501    0  0.00000000000E+00 -0.00000000000E+00 -0.21015623095E+04  0.21015623095E+04  0.00000000000E+00 0. -1.
         23    2    1    2    0    0  0.10677356342E+04  0.50733343118E+03  0.15191729254E+04  0.19272023218E+04  0.93679330430E+02 0.  0.
         13    1    3    3    0    0  0.86492807856E+03  0.44414448380E+03  0.12137141565E+04  0.15551421020E+04  0.00000000000E+00 0.  1.
        -13    1    3    3    0    0  0.20280755561E+03  0.63188947378E+02  0.30545876892E+03  0.37206021984E+03  0.00000000000E+00 0. -1.
         22    1    1    2    0    0 -0.10677356342E+04 -0.50733343118E+03 -0.17134354200E+04  0.20816598025E+04  0.00000000000E+00 0. -1.
<mgrwt>
<rscale>  0 0.40041525E+04</rscale>
<asrwt>0</asrwt>
<pdfrwt beam="1">  1        2 0.32331728E+00 0.40041525E+04</pdfrwt>
<pdfrwt beam="2">  1       -2 0.29343074E+00 0.40041525E+04</pdfrwt>
<totfact> 0.16124123E-01</totfact>
</mgrwt>
</event>
<event>
 6    1  0.9364335E-007  0.1696948E+04  0.7818608E-02  0.8763107E-01
         -3   -1    0    0    0  501 -0.00000000000E+00  0.00000000000E+00  0.82999112877E+03  0.82999112877E+03  0.00000000000E+00 0.  1.
          3   -1    0    0  501    0  0.00000000000E+00 -0.00000000000E+00 -0.86736889122E+03  0.86736889122E+03  0.00000000000E+00 0. -1.
         23    2    1    2    0    0  0.32299775731E+03 -0.76550144628E+02 -0.79699990529E+03  0.86837674165E+03  0.93176394765E+02 0.  0.
         11    1    3    3    0    0  0.26518031511E+03 -0.77279821231E+02 -0.72626492828E+03  0.77701577613E+03  0.00000000000E+00 0.  1.
        -11    1    3    3    0    0  0.57817442192E+02  0.72967660344E+00 -0.70734977002E+02  0.91360965522E+02  0.00000000000E+00 0. -1.
         22    1    1    2    0    0 -0.32299775731E+03  0.76550144628E+02  0.75962214284E+03  0.82898327833E+03  0.00000000000E+00 0.  1.
<mgrwt>
<rscale>  0 0.16969484E+04</rscale>
<asrwt>0</asrwt>
<pdfrwt beam="1">  1        3 0.13344137E+00 0.16969484E+04</pdfrwt>
<pdfrwt beam="2">  1       -3 0.12769094E+00 0.16969484E+04</pdfrwt>
<totfact> 0.52671693E-01</totfact>
</mgrwt>
</event>
<event>
 6    1  0.9364335E-007  0.2133944E+04  0.7818608E-02  0.8546437E-01
         -1   -1    0    0    0  501 -0.00000000000E+00  0.00000000000E+00  0.19305960039E+04  0.19305960039E+04  0.00000000000E+00 0.  1.
          1   -1    0    0  501    0  0.00000000000E+00 -0.00000000000E+00 -0.58967751177E+03  0.58967751177E+03  0.00000000000E+00 0. -1.
         23    2    1    2    0    0  0.30237642544E+03  0.58171305159E+03 -0.31957134660E+03  0.73504297549E+03  0.91327724124E+02 0.  0.
         11    1    3    3    0    0  0.28581544338E+03  0.47839199049E+03 -0.26653747802E+03  0.61773100248E+03  0.00000000000E+00 0. -1.
        -11    1    3    3    0    0  0.16560982062E+02  0.10332106111E+03 -0.53033868576E+02  0.11731197301E+03  0.00000000000E+00 0.  1.
         22    1    1    2    0    0 -0.30237642544E+03 -0.58171305159E+03  0.16604898387E+04  0.17852305401E+04  0.00000000000E+00 0.  1.
<mgrwt>
<rscale>  0 0.21339438E+04</rscale>
<asrwt>0</asrwt>
<pdfrwt beam="1">  1        1 0.90719618E-01 0.21339438E+04</pdfrwt>
<pdfrwt beam="2">  1       -1 0.29701477E+00 0.21339438E+04</pdfrwt>
<totfact> 0.11124212E+00</totfact>
</mgrwt>
</event>
<event>
 6    1  0.9364335E-007  0.7085816E+03  0.7818608E-02  0.9702668E-01
          1   -1    0    0  501    0  0.00000000000E+00  0.00000000000E+00  0.11383629814E+03  0.11383629814E+03  0.00000000000E+00 0. -1.
         -1   -1    0    0    0  501 -0.00000000000E+00 -0.00000000000E+00 -0.11026532914E+04  0.11026532914E+04  0.00000000000E+00 0.  1.
         23    2    1    2    0    0  0.32522634793E+03 -0.17258732871E+02 -0.29308461522E+03  0.44830108201E+03  0.94895875586E+02 0.  0.
         11    1    3    3    0    0  0.25395510606E+03 -0.47189296520E+02 -0.25153540861E+03  0.36054138096E+03  0.00000000000E+00 0. -1.
        -11    1    3    3    0    0  0.71271241875E+02  0.29930563648E+02 -0.41549206606E+02  0.87759701049E+02  0.00000000000E+00 0.  1.
         22    1    1    2    0    0 -0.32522634793E+03  0.17258732871E+02 -0.69573237805E+03  0.76818850754E+03  0.00000000000E+00 0.  1.
<mgrwt>
<rscale>  0 0.70858159E+03</rscale>
<asrwt>0</asrwt>
<pdfrwt beam="1">  1        1 0.17513277E-01 0.70858159E+03</pdfrwt>
<pdfrwt beam="2">  1       -1 0.16963897E+00 0.70858159E+03</pdfrwt>
<totfact> 0.79190425E+01</totfact>
</mgrwt>
</event>
<event>
 6    1  0.9364335E-007  0.1692160E+04  0.7818608E-02  0.8765849E-01
         -2   -1    0    0    0  501 -0.00000000000E+00  0.00000000000E+00  0.54488276537E+03  0.54488276537E+03  0.00000000000E+00 0.  1.
          2   -1    0    0  501    0  0.00000000000E+00 -0.00000000000E+00 -0.13137709822E+04  0.13137709822E+04  0.00000000000E+00 0. -1.
         23    2    1    2    0    0 -0.65678745871E+03  0.35126895981E+03 -0.82116255768E+03  0.11119997080E+04  0.86462456963E+02 0.  0.
         13    1    3    3    0    0 -0.36574743827E+03  0.21072262371E+03 -0.52481624996E+03  0.67350375572E+03  0.00000000000E+00 0. -1.
        -13    1    3    3    0    0 -0.29104002044E+03  0.14054633610E+03 -0.29634630772E+03  0.43849595231E+03  0.00000000000E+00 0.  1.
         22    1    1    2    0    0  0.65678745871E+03 -0.35126895981E+03  0.52274340850E+02  0.74665403954E+03  0.00000000000E+00 0.  1.
<mgrwt>
<rscale>  0 0.16921598E+04</rscale>
<asrwt>0</asrwt>
<pdfrwt beam="1">  1        2 0.20211861E+00 0.16921598E+04</pdfrwt>
<pdfrwt beam="2">  1       -2 0.83828118E-01 0.16921598E+04</pdfrwt>
<totfact> 0.19217359E+01</totfact>
</mgrwt>
</event>
<event>
 6    1  0.9364335E-007  0.3716831E+04  0.7818608E-02  0.8064242E-01
          3   -1    0    0  501    0  0.00000000000E+00  0.00000000000E+00  0.24770429610E+04  0.24770429610E+04  0.00000000000E+00 0. -1.
         -3   -1    0    0    0  501 -0.00000000000E+00 -0.00000000000E+00 -0.13942868197E+04  0.13942868197E+04  0.00000000000E+00 0.  1.
         23    2    1    2    0    0  0.13441818200E+04 -0.67909085093E+03  0.16738794994E+04  0.22534867804E+04  0.91328755977E+02 0.  0.
         13    1    3    3    0    0  0.38603473006E+03 -0.16124882716E+03  0.50642156277E+03  0.65687654571E+03  0.00000000000E+00 0. -1.
        -13    1    3    3    0    0  0.95814708995E+03 -0.51784202377E+03  0.11674579367E+04  0.15966102347E+04  0.00000000000E+00 0.  1.
         22    1    1    2    0    0 -0.13441818200E+04  0.67909085093E+03 -0.59112335819E+03  0.16178430003E+04  0.00000000000E+00 0.  1.
<mgrwt>
<rscale>  0 0.37168311E+04</rscale>
<asrwt>0</asrwt>
<pdfrwt beam="1">  1        3 0.38108353E+00 0.37168311E+04</pdfrwt>
<pdfrwt beam="2">  1       -3 0.21450567E+00 0.37168311E+04</pdfrwt>
<totfact> 0.34766082E-03</totfact>
</mgrwt>
</event>
<event>
 6    1  0.9364335E-007  0.1664401E+04  0.7818608E-02  0.8781933E-01
          2   -1    0    0  501    0  0.00000000000E+00  0.00000000000E+00  0.33469774306E+04  0.33469774306E+04  0.00000000000E+00 0. -1.
         -2   -1    0    0    0  501 -0.00000000000E+00 -0.00000000000E+00 -0.20692020863E+03  0.20692020863E+03  0.00000000000E+00 0.  1.
         23    2    1    2    0    0 -0.58308299310E+03  0.18922739214E+02  0.31407233103E+03  0.66832413457E+03  0.87589227879E+02 0.  0.
         11    1    3    3    0    0 -0.38663762004E+03 -0.40898576053E+01  0.24989756257E+03  0.46038480420E+03  0.00000000000E+00 0. -1.
        -11    1    3    3    0    0 -0.19644537306E+03  0.23012596819E+02  0.64174768458E+02  0.20793933037E+03  0.00000000000E+00 0.  1.
         22    1    1    2    0    0  0.58308299310E+03 -0.18922739214E+02  0.28259848910E+04  0.28855735047E+04  0.00000000000E+00 0. -1.
<mgrwt>
<rscale>  0 0.16644005E+04</rscale>
<asrwt>0</asrwt>
<pdfrwt beam="1">  1        2 0.51491957E+00 0.16644005E+04</pdfrwt>
<pdfrwt beam="2">  1       -2 0.31833881E-01 0.16644005E+04</pdfrwt>
<totfact> 0.91467382E+00</totfact>
</mgrwt>
</event>
<event>
 6    1  0.9364335E-007  0.2013536E+04  0.7818608E-02  0.8600318E-01
          1   -1    0    0  501    0  0.00000000000E+00  0.00000000000E+00  0.18001075661E+04  0.18001075661E+04  0.00000000000E+00 0. -1.
         -1   -1    0    0    0  501 -0.00000000000E+00 -0.00000000000E+00 -0.56306710231E+03  0.56306710231E+03  0.00000000000E+00 0.  1.
         23    2    1    2    0    0  0.49778060451E+02  0.85205702007E+03 -0.25697196365E+01  0.85814562297E+03  0.89040923277E+02 0.  0.
         11    1    3    3    0    0 -0.11321020523E+02  0.29336006696E+03 -0.32188679287E+02  0.29533778198E+03  0.00000000000E+00 0. -1.
        -11    1    3    3    0    0  0.61099080974E+02  0.55869695311E+03  0.29618959650E+02  0.56280784099E+03  0.00000000000E+00 0.  1.
         22    1    1    2    0    0 -0.49778060451E+02 -0.85205702007E+03  0.12396101834E+04  0.15050290454E+04  0.00000000000E+00 0. -1.
<mgrwt>
<rscale>  0 0.20135355E+04</rscale>
<asrwt>0</asrwt>
<pdfrwt beam="1">  1        1 0.27693962E+00 0.20135355E+04</pdfrwt>
<pdfrwt beam="2">  1       -1 0.86625709E-01 0.20135355E+04</pdfrwt>
<totfact> 0.49578224E+00</totfact>
</mgrwt>
</event>
<event>
 6    1  0.9364335E-007  0.1904069E+04  0.7818608E-02  0.8652833E-01
          1   -1    0    0  501    0  0.00000000000E+00  0.00000000000E+00  0.71086666404E+03  0.71086666404E+03  0.00000000000E+00 0. -1.
         -1   -1    0    0    0  501 -0.00000000000E+00 -0.00000000000E+00 -0.12750210253E+04  0.12750210253E+04  0.00000000000E+00 0.  1.
         23    2    1    2    0    0  0.31608376755E+03 -0.65413911248E+03 -0.92007414971E+03  0.11768847088E+04  0.10350966287E+03 0.  0.
         11    1    3    3    0    0  0.26102731837E+03 -0.50222394986E+03 -0.64746614004E+03  0.85998637155E+03  0.00000000000E+00 0. -1.
        -11    1    3    3    0    0  0.55056449179E+02 -0.15191516262E+03 -0.27260800968E+03  0.31689833728E+03  0.00000000000E+00 0.  1.
         22    1    1    2    0    0 -0.31608376755E+03  0.65413911248E+03  0.35591978849E+03  0.80900298048E+03  0.00000000000E+00 0. -1.
<mgrwt>
<rscale>  0 0.19040693E+04</rscale>
<asrwt>0</asrwt>
<pdfrwt beam="1">  1        1 0.10936410E+00 0.19040693E+04</pdfrwt>
<pdfrwt beam="2">  1       -1 0.19615708E+00 0.19040693E+04</pdfrwt>
<totfact> 0.39821481E+00</totfact>
</mgrwt>
</event>
<event>
 6    1  0.9364335E-007  0.6455285E+04  0.7818608E-02  0.7636380E-01
         -2   -1    0    0    0  501 -0.00000000000E+00  0.00000000000E+00  0.26992044945E+04  0.26992044945E+04  0.00000000000E+00 0.  1.
          2   -1    0    0  501    0  0.00000000000E+00 -0.00000000000E+00 -0.38595360276E+04  0.38595360276E+04  0.00000000000E+00 0. -1.
         23    2    1    2    0    0  0.31602231121E+04  0.15709493797E+03 -0.12242109675E+04  0.33939704642E+04  0.93027315547E+02 0.  0.
         11    1    3    3    0    0  0.23133024830E+04  0.82422700834E+02 -0.92242268959E+03  0.24917916241E+04  0.00000000000E+00 0. -1.
        -11    1    3    3    0    0  0.84692062900E+03  0.74672237137E+02 -0.30178827787E+03  0.90217884008E+03  0.00000000000E+00 0.  1.
         22    1    1    2    0    0 -0.31602231121E+04 -0.15709493797E+03  0.63879434342E+02  0.31647700579E+04  0.00000000000E+00 0.  1.
<mgrwt>
<rscale>  0 0.64552853E+04</rscale>
<asrwt>0</asrwt>
<pdfrwt beam="1">  1        2 0.59377477E+00 0.64552853E+04</pdfrwt>
<pdfrwt beam="2">  1       -2 0.41526223E+00 0.64552853E+04</pdfrwt>
<totfact> 0.16893857E-03</totfact>
</mgrwt>
</event>
<event>
 6    1  0.9364335E-007  0.2042816E+04  0.7818608E-02  0.8586860E-01
         -2   -1    0    0    0  501 -0.00000000000E+00  0.00000000000E+00  0.51532071806E+03  0.51532071806E+03  0.00000000000E+00 0.  1.
          2   -1    0    0  501    0  0.00000000000E+00 -0.00000000000E+00 -0.20245146395E+04  0.20245146395E+04  0.00000000000E+00 0. -1.
         23    2    1    2    0    0 -0.25127107476E+03 -0.39705957050E+03  0.36826186190E+03  0.60447139335E+03  0.94738645258E+02 0.  0.
         13    1    3    3    0    0 -0.16078444647E+03 -0.17371111936E+03  0.20761784218E+03  0.31485291742E+03  0.00000000000E+00 0.  1.
        -13    1    3    3    0    0 -0.90486628294E+02 -0.22334845114E+03  0.16064401972E+03  0.28961847593E+03  0.00000000000E+00 0. -1.
         22    1    1    2    0    0  0.25127107476E+03  0.39705957050E+03 -0.18774557834E+04  0.19353639642E+04  0.00000000000E+00 0. -1.
<mgrwt>
<rscale>  0 0.20428160E+04</rscale>
<asrwt>0</asrwt>
<pdfrwt beam="1">  1        2 0.31146379E+00 0.20428160E+04</pdfrwt>
<pdfrwt beam="2">  1       -2 0.79280110E-01 0.20428160E+04</pdfrwt>
<totfact> 0.84554092E+00</totfact>
</mgrwt>
</event>
<event>
 6    1  0.9364335E-007  0.1817098E+04  0.7818608E-02  0.8697259E-01
          2   -1    0    0  501    0  0.00000000000E+00  0.00000000000E+00  0.14666056722E+04  0.14666056722E+04  0.00000000000E+00 0. -1.
         -2   -1    0    0    0  501 -0.00000000000E+00 -0.00000000000E+00 -0.56283820045E+03  0.56283820045E+03  0.00000000000E+00 0.  1.
         23    2    1    2    0    0 -0.45186276415E+03  0.63019036959E+03  0.97697613381E+03  0.12505476230E+04  0.89817213602E+02 0.  0.
         11    1    3    3    0    0 -0.20130168473E+03  0.24739111590E+03  0.46582469728E+03  0.56455060100E+03  0.00000000000E+00 0. -1.
        -11    1    3    3    0    0 -0.25056107942E+03  0.38279925368E+03  0.51115143653E+03  0.68599702201E+03  0.00000000000E+00 0.  1.
         22    1    1    2    0    0  0.45186276415E+03 -0.63019036959E+03 -0.73208662029E+02  0.77889624966E+03  0.00000000000E+00 0.  1.
<mgrwt>
<rscale>  0 0.18170985E+04</rscale>
<asrwt>0</asrwt>
<pdfrwt beam="1">  1        2 0.22563164E+00 0.18170985E+04</pdfrwt>
<pdfrwt beam="2">  1       -2 0.86590493E-01 0.18170985E+04</pdfrwt>
<totfact> 0.14437712E+01</totfact>
</mgrwt>
</event>
<event>
 6    1  0.9364335E-007  0.1343035E+04  0.7818608E-02  0.8996118E-01
         -1   -1    0    0    0  501 -0.00000000000E+00  0.00000000000E+00  0.40096319506E+03  0.40096319506E+03  0.00000000000E+00 0.  1.
          1   -1    0    0  501    0  0.00000000000E+00 -0.00000000000E+00 -0.11246305844E+04  0.11246305844E+04  0.00000000000E+00 0. -1.
         23    2    1    2    0    0  0.44525801814E+03 -0.41816344294E+03 -0.67176975348E+03  0.91256137219E+03  0.91532991856E+02 0.  0.
         13    1    3    3    0    0  0.41830283251E+02 -0.83025710984E+02 -0.92767718954E+02  0.13133503326E+03  0.00000000000E+00 0. -1.
        -13    1    3    3    0    0  0.40342773489E+03 -0.33513773196E+03 -0.57900203452E+03  0.78122633893E+03  0.00000000000E+00 0.  1.
         22    1    1    2    0    0 -0.44525801814E+03  0.41816344294E+03 -0.51897635847E+02  0.61303240725E+03  0.00000000000E+00 0.  1.
<mgrwt>
<rscale>  0 0.13430346E+04</rscale>
<asrwt>0</asrwt>
<pdfrwt beam="1">  1        1 0.17302009E+00 0.13430346E+04</pdfrwt>
<pdfrwt beam="2">  1       -1 0.61686646E-01 0.13430346E+04</pdfrwt>
<totfact> 0.31716125E+01</totfact>
</mgrwt>
</event>
<event>
 6    1  0.9364335E-007  0.1064670E+04  0.7818608E-02  0.9240328E-01
          2   -1    0    0  501    0  0.00000000000E+00  0.00000000000E+00  0.16389417783E+03  0.16389417783E+03  0.00000000000E+00 0. -1.
         -2   -1    0    0    0  501 -0.00000000000E+00 -0.00000000000E+00 -0.17290461285E+04  0.17290461285E+04  0.00000000000E+00 0.  1.
         23    2    1    2    0    0  0.25799614573E+03  0.42672645515E+03 -0.10993286362E+04  0.12105556355E+04  0.90906641464E+02 0.  0.
         11    1    3    3    0    0  0.72166353565E+02  0.16321102785E+03 -0.30653304352E+03  0.35469469826E+03  0.00000000000E+00 0.  1.
        -11    1    3    3    0    0  0.18582979216E+03  0.26351542730E+03 -0.79279559272E+03  0.85586093725E+03  0.00000000000E+00 0. -1.
         22    1    1    2    0    0 -0.25799614573E+03 -0.42672645515E+03 -0.46582331447E+03  0.68238467087E+03  0.00000000000E+00 0. -1.
<mgrwt>
<rscale>  0 0.10646701E+04</rscale>
<asrwt>0</asrwt>
<pdfrwt beam="1">  1        2 0.25214487E-01 0.10646701E+04</pdfrwt>
<pdfrwt beam="2">  1       -2 0.26600711E+00 0.10646701E+04</pdfrwt>
<totfact> 0.11161237E+01</totfact>
</mgrwt>
</event>
<event>
 6    1  0.9364335E-007  0.4507881E+04  0.7818608E-02  0.7909258E-01
         -2   -1    0    0    0  501 -0.00000000000E+00  0.00000000000E+00  0.16024304428E+04  0.16024304428E+04  0.00000000000E+00 0.  1.
          2   -1    0    0  501    0  0.00000000000E+00 -0.00000000000E+00 -0.31703390860E+04  0.31703390860E+04  0.00000000000E+00 0. -1.
         23    2    1    2    0    0 -0.15866976656E+04  0.69436365034E+03  0.74141611552E+03  0.18861224769E+04  0.89497379121E+02 0.  0.
         11    1    3    3    0    0 -0.46816609845E+03  0.16326828701E+03  0.22669986694E+03  0.54518699448E+03  0.00000000000E+00 0.  1.
        -11    1    3    3    0    0 -0.11185315671E+04  0.53109536333E+03  0.51471624858E+03  0.13409354825E+04  0.00000000000E+00 0. -1.
         22    1    1    2    0    0  0.15866976656E+04 -0.69436365034E+03 -0.23093247587E+04  0.28866470518E+04  0.00000000000E+00 0. -1.
<mgrwt>
<rscale>  0 0.45078810E+04</rscale>
<asrwt>0</asrwt>
<pdfrwt beam="1">  1        2 0.48774447E+00 0.45078810E+04</pdfrwt>
<pdfrwt beam="2">  1       -2 0.24652776E+00 0.45078810E+04</pdfrwt>
<totfact> 0.69239356E-02</totfact>
</mgrwt>
</event>
<event>
 6    1  0.9364335E-007  0.2643904E+04  0.7818608E-02  0.8353439E-01
          1   -1    0    0  501    0  0.00000000000E+00  0.00000000000E+00  0.12122909795E+04  0.12122909795E+04  0.00000000000E+00 0. -1.
         -1   -1    0    0    0  501 -0.00000000000E+00 -0.00000000000E+00 -0.14415324956E+04  0.14415324956E+04  0.00000000000E+00 0.  1.
         23    2    1    2    0    0  0.45201376010E+03  0.12391959002E+04 -0.17311222413E+03  0.13335684181E+04  0.92271150185E+02 0.  0.
         13    1    3    3    0    0  0.26788290551E+03  0.82252380505E+03 -0.81244758449E+02  0.86885405663E+03  0.00000000000E+00 0.  1.
        -13    1    3    3    0    0  0.18413085458E+03  0.41667209513E+03 -0.91867465678E+02  0.46471436143E+03  0.00000000000E+00 0. -1.
         22    1    1    2    0    0 -0.45201376010E+03 -0.12391959002E+04 -0.56129292014E+02  0.13202550571E+04  0.00000000000E+00 0. -1.
<mgrwt>
<rscale>  0 0.26439038E+04</rscale>
<asrwt>0</asrwt>
<pdfrwt beam="1">  1        1 0.18650631E+00 0.26439038E+04</pdfrwt>
<pdfrwt beam="2">  1       -1 0.22177423E+00 0.26439038E+04</pdfrwt>
<totfact> 0.98337516E-01</totfact>
</mgrwt>
</event>
<event>
 6    1  0.9364335E-007  0.1458531E+04  0.7818608E-02  0.8912508E-01
          2   -1    0    0  501    0  0.00000000000E+00  0.00000000000E+00  0.37976944833E+03  0.37976944833E+03  0.00000000000E+00 0. -1.
         -2   -1    0    0    0  501 -0.00000000000E+00 -0.00000000000E+00 -0.14003967036E+04  0.14003967036E+04  0.00000000000E+00 0.  1.
         23    2    1    2    0    0  0.13295011244E+03  0.61571548605E+03 -0.95429527424E+03  0.11467774688E+04  0.87394509956E+02 0.  0.
         13    1    3    3    0    0 -0.10579093157E+02  0.21801225287E+02 -0.47705349527E+02  0.53507111766E+02  0.00000000000E+00 0. -1.
        -13    1    3    3    0    0  0.14352920560E+03  0.59391426076E+03 -0.90658992471E+03  0.10932703570E+04  0.00000000000E+00 0.  1.
         22    1    1    2    0    0 -0.13295011244E+03 -0.61571548605E+03 -0.66331981004E+02  0.63338868309E+03  0.00000000000E+00 0. -1.
<mgrwt>
<rscale>  0 0.14585306E+04</rscale>
<asrwt>0</asrwt>
<pdfrwt beam="1">  1        2 0.58426069E-01 0.14585306E+04</pdfrwt>
<pdfrwt beam="2">  1       -2 0.21544565E+00 0.14585306E+04</pdfrwt>
<totfact> 0.86277397E+00</totfact>
</mgrwt>
</event>
<event>
 6    1  0.9364335E-007  0.1429537E+04  0.7818608E-02  0.8932711E-01
         -1   -1    0    0    0  501 -0.00000000000E+00  0.00000000000E+00  0.44764347372E+03  0.44764347372E+03  0.00000000000E+00 0.  1.
          1   -1    0    0  501    0  0.00000000000E+00 -0.00000000000E+00 -0.11412972759E+04  0.11412972759E+04  0.00000000000E+00 0. -1.
         23    2    1    2    0    0 -0.29739456616E+03 -0.88364711317E+02  0.36387242976E+03  0.48684566232E+03  0.91453286379E+02 0.  0.
         11    1    3    3    0    0 -0.21465625313E+03 -0.97978726966E+02  0.23227464687E+03  0.33110217384E+03  0.00000000000E+00 0. -1.
        -11    1    3    3    0    0 -0.82738313033E+02  0.96140156490E+01  0.13159778290E+03  0.15574348848E+03  0.00000000000E+00 0.  1.
         22    1    1    2    0    0  0.29739456616E+03  0.88364711317E+02 -0.10575262320E+04  0.11020950873E+04  0.00000000000E+00 0. -1.
<mgrwt>
<rscale>  0 0.14295374E+04</rscale>
<asrwt>0</asrwt>
<pdfrwt beam="1">  1        1 0.17558420E+00 0.14295374E+04</pdfrwt>
<pdfrwt beam="2">  1       -1 0.68868226E-01 0.14295374E+04</pdfrwt>
<totfact> 0.24506277E+01</totfact>
</mgrwt>
</event>
<event>
 6    1  0.9364335E-007  0.2640654E+04  0.7818608E-02  0.8354522E-01
         -1   -1    0    0    0  501 -0.00000000000E+00  0.00000000000E+00  0.21081889803E+04  0.21081889803E+04  0.00000000000E+00 0.  1.
          1   -1    0    0  501    0  0.00000000000E+00 -0.00000000000E+00 -0.82690087136E+03  0.82690087136E+03  0.00000000000E+00 0. -1.
         23    2    1    2    0    0 -0.10058881238E+04  0.66169955984E+03  0.12393269611E+04  0.17303417605E+04  0.92163259576E+02 0.  0.
         13    1    3    3    0    0 -0.29535910520E+03  0.14555724611E+03  0.34503778172E+03  0.47694337581E+03  0.00000000000E+00 0. -1.
        -13    1    3    3    0    0 -0.71052901865E+03  0.51614231374E+03  0.89428917942E+03  0.12533983847E+04  0.00000000000E+00 0.  1.
         22    1    1    2    0    0  0.10058881238E+04 -0.66169955984E+03  0.41961147810E+02  0.12047480911E+04  0.00000000000E+00 0. -1.
<mgrwt>
<rscale>  0 0.26406539E+04</rscale>
<asrwt>0</asrwt>
<pdfrwt beam="1">  1        1 0.12721552E+00 0.26406539E+04</pdfrwt>
<pdfrwt beam="2">  1       -1 0.32433676E+00 0.26406539E+04</pdfrwt>
<totfact> 0.42171230E-01</totfact>
</mgrwt>
</event>
<event>
 6    1  0.9364335E-007  0.3137974E+04  0.7818608E-02  0.8205393E-01
         -1   -1    0    0    0  501 -0.00000000000E+00  0.00000000000E+00  0.13647723882E+04  0.13647723882E+04  0.00000000000E+00 0.  1.
          1   -1    0    0  501    0  0.00000000000E+00 -0.00000000000E+00 -0.18037591310E+04  0.18037591310E+04  0.00000000000E+00 0. -1.
         23    2    1    2    0    0  0.10015934617E+04  0.84260825947E+03 -0.10908657571E+04  0.17062988460E+04  0.91046748652E+02 0.  0.
         11    1    3    3    0    0  0.46062420140E+03  0.43607164035E+03 -0.49367972748E+03  0.80377409996E+03  0.00000000000E+00 0.  1.
        -11    1    3    3    0    0  0.54096926027E+03  0.40653661912E+03 -0.59718602957E+03  0.90252474601E+03  0.00000000000E+00 0. -1.
         22    1    1    2    0    0 -0.10015934617E+04 -0.84260825947E+03  0.65187901426E+03  0.14622326732E+04  0.00000000000E+00 0. -1.
<mgrwt>
<rscale>  0 0.31379743E+04</rscale>
<asrwt>0</asrwt>
<pdfrwt beam="1">  1        1 0.27750140E+00 0.31379743E+04</pdfrwt>
<pdfrwt beam="2">  1       -1 0.20996498E+00 0.31379743E+04</pdfrwt>
<totfact> 0.43821033E-01</totfact>
</mgrwt>
</event>
<event>
 6    1  0.1089146E-006  0.3133012E+04  0.7818608E-02  0.8206736E-01
         -2   -1    0    0    0  501 -0.00000000000E+00  0.00000000000E+00  0.10101408907E+04  0.10101408907E+04  0.00000000000E+00 0.  1.
          2   -1    0    0  501    0  0.00000000000E+00 -0.00000000000E+00 -0.24293052107E+04  0.24293052107E+04  0.00000000000E+00 0. -1.
         23    2    1    2    0    0  0.58573175591E+03  0.81331089649E+03 -0.20299079671E+04  0.22657493319E+04  0.92397921057E+02 0.  0.
         13    1    3    3    0    0  0.31365428757E+03  0.43400347219E+03 -0.98018311600E+03  0.11169140374E+04  0.00000000000E+00 0. -1.
        -13    1    3    3    0    0  0.27207746834E+03  0.37930742430E+03 -0.10497248511E+04  0.11488352945E+04  0.00000000000E+00 0.  1.
         22    1    1    2    0    0 -0.58573175591E+03 -0.81331089649E+03  0.61074364707E+03  0.11736967695E+04  0.00000000000E+00 0.  1.
<mgrwt>
<rscale>  0 0.31330117E+04</rscale>
<asrwt>0</asrwt>
<pdfrwt beam="1">  1        2 0.37373926E+00 0.31330117E+04</pdfrwt>
<pdfrwt beam="2">  1       -2 0.15540629E+00 0.31330117E+04</pdfrwt>
<totfact> 0.88257620E-01</totfact>
</mgrwt>
</event>
<event>
 6    1  0.9364335E-007  0.2776689E+04  0.7818608E-02  0.8310542E-01
         -1   -1    0    0    0  501 -0.00000000000E+00  0.00000000000E+00  0.11551225786E+04  0.11551225786E+04  0.00000000000E+00 0.  1.
          1   -1    0    0  501    0  0.00000000000E+00 -0.00000000000E+00 -0.16686548512E+04  0.16686548512E+04  0.00000000000E+00 0. -1.
         23    2    1    2    0    0  0.49550617337E+03 -0.36648205147E+03 -0.15205159358E+04  0.16431625223E+04  0.90437281336E+02 0.  0.
         11    1    3    3    0    0  0.18237592880E+03 -0.15681790685E+03 -0.70204729722E+03  0.74210729874E+03  0.00000000000E+00 0.  1.
        -11    1    3    3    0    0  0.31313024457E+03 -0.20966414463E+03 -0.81846863856E+03  0.90105522356E+03  0.00000000000E+00 0. -1.
         22    1    1    2    0    0 -0.49550617337E+03  0.36648205147E+03  0.10069836632E+04  0.11806149075E+04  0.00000000000E+00 0.  1.
<mgrwt>
<rscale>  0 0.27766893E+04</rscale>
<asrwt>0</asrwt>
<pdfrwt beam="1">  1        1 0.25671613E+00 0.27766893E+04</pdfrwt>
<pdfrwt beam="2">  1       -1 0.17771117E+00 0.27766893E+04</pdfrwt>
<totfact> 0.93893546E-01</totfact>
</mgrwt>
</event>
<event>
 6    1  0.9364335E-007  0.1332463E+04  0.7818608E-02  0.9004210E-01
          2   -1    0    0  501    0  0.00000000000E+00  0.00000000000E+00  0.12683037793E+04  0.12683037793E+04  0.00000000000E+00 0. -1.
         -2   -1    0    0    0  501 -0.00000000000E+00 -0.00000000000E+00 -0.34996713880E+03  0.34996713880E+03  0.00000000000E+00 0.  1.
         23    2    1    2    0    0  0.38825419658E+03 -0.50897297842E+03  0.67072769203E+03  0.93190002326E+03  0.93633341094E+02 0.  0.
         13    1    3    3    0    0  0.15205400424E+02 -0.47076068305E+02  0.82014185991E+02  0.95779366843E+02  0.00000000000E+00 0.  1.
        -13    1    3    3    0    0  0.37304879615E+03 -0.46189691011E+03  0.58871350604E+03  0.83612065641E+03  0.00000000000E+00 0. -1.
         22    1    1    2    0    0 -0.38825419658E+03  0.50897297842E+03  0.24760894845E+03  0.68637089483E+03  0.00000000000E+00 0.  1.
<mgrwt>
<rscale>  0 0.13324633E+04</rscale>
<asrwt>0</asrwt>
<pdfrwt beam="1">  1        2 0.19512366E+00 0.13324633E+04</pdfrwt>
<pdfrwt beam="2">  1       -2 0.53841099E-01 0.13324633E+04</pdfrwt>
<totfact> 0.54824042E+01</totfact>
</mgrwt>
</event>
<event>
 6    1  0.9364335E-007  0.2861414E+04  0.7818608E-02  0.8284451E-01
         -1   -1    0    0    0  501 -0.00000000000E+00  0.00000000000E+00  0.74142770072E+03  0.74142770072E+03  0.00000000000E+00 0.  1.
          1   -1    0    0  501    0  0.00000000000E+00 -0.00000000000E+00 -0.27607848992E+04  0.27607848992E+04  0.00000000000E+00 0. -1.
         23    2    1    2    0    0  0.52493428116E+03 -0.91969730183E+03  0.16532131251E+03  0.10744112648E+04  0.75028680981E+02 0.  0.
         11    1    3    3    0    0  0.31255572114E+03 -0.47931491521E+03  0.73056328830E+02  0.57686315010E+03  0.00000000000E+00 0. -1.
        -11    1    3    3    0    0  0.21237856002E+03 -0.44038238662E+03  0.92264983685E+02  0.49754811467E+03  0.00000000000E+00 0.  1.
         22    1    1    2    0    0 -0.52493428116E+03  0.91969730183E+03 -0.21846785110E+04  0.24278013352E+04  0.00000000000E+00 0. -1.
<mgrwt>
<rscale>  0 0.28614139E+04</rscale>
<asrwt>0</asrwt>
<pdfrwt beam="1">  1        1 0.42473614E+00 0.28614139E+04</pdfrwt>
<pdfrwt beam="2">  1       -1 0.11406580E+00 0.28614139E+04</pdfrwt>
<totfact> 0.53542962E-01</totfact>
</mgrwt>
</event>
<event>
 6    1  0.9364335E-007  0.3570254E+04  0.7818608E-02  0.8097339E-01
         -2   -1    0    0    0  501 -0.00000000000E+00  0.00000000000E+00  0.10597673296E+04  0.10597673296E+04  0.00000000000E+00 0.  1.
          2   -1    0    0  501    0  0.00000000000E+00 -0.00000000000E+00 -0.30069611026E+04  0.30069611026E+04  0.00000000000E+00 0. -1.
         23    2    1    2    0    0 -0.76934219558E+03  0.13231023177E+04  0.69802536316E+02  0.15347803148E+04  0.90504496267E+02 0.  0.
         11    1    3    3    0    0 -0.40521822628E+03  0.78570839040E+03  0.42731103531E+02  0.88507933704E+03  0.00000000000E+00 0. -1.
        -11    1    3    3    0    0 -0.36412396930E+03  0.53739392726E+03  0.27071432785E+02  0.64970097780E+03  0.00000000000E+00 0.  1.
         22    1    1    2    0    0  0.76934219558E+03 -0.13231023177E+04 -0.20169963094E+04  0.25319481173E+04  0.00000000000E+00 0. -1.
<mgrwt>
<rscale>  0 0.35702544E+04</rscale>
<asrwt>0</asrwt>
<pdfrwt beam="1">  1        2 0.46260940E+00 0.35702544E+04</pdfrwt>
<pdfrwt beam="2">  1       -2 0.16304113E+00 0.35702544E+04</pdfrwt>
<totfact> 0.33669530E-01</totfact>
</mgrwt>
</event>
<event>
 6    1  0.9364335E-007  0.1833884E+04  0.7818608E-02  0.8688485E-01
         -2   -1    0    0    0  501 -0.00000000000E+00  0.00000000000E+00  0.12147566584E+04  0.12147566584E+04  0.00000000000E+00 0.  1.
          2   -1    0    0  501    0  0.00000000000E+00 -0.00000000000E+00 -0.69214043674E+03  0.69214043674E+03  0.00000000000E+00 0. -1.
         23    2    1    2    0    0  0.30529205040E+03 -0.70064500953E+03  0.78449447650E+03  0.10990067030E+04  0.90980680204E+02 0.  0.
         11    1    3    3    0    0  0.29752040383E+03 -0.61450152765E+03  0.70761086757E+03  0.98328208470E+03  0.00000000000E+00 0. -1.
        -11    1    3    3    0    0  0.77716465777E+01 -0.86143481880E+02  0.76883608930E+02  0.11572461831E+03  0.00000000000E+00 0.  1.
         22    1    1    2    0    0 -0.30529205040E+03  0.70064500953E+03 -0.26187825481E+03  0.80789039217E+03  0.00000000000E+00 0. -1.
<mgrwt>
<rscale>  0 0.18338835E+04</rscale>
<asrwt>0</asrwt>
<pdfrwt beam="1">  1        2 0.10648314E+00 0.18338835E+04</pdfrwt>
<pdfrwt beam="2">  1       -2 0.18688564E+00 0.18338835E+04</pdfrwt>
<totfact> 0.63614804E+00</totfact>
</mgrwt>
</event>
<event>
 6    1  0.1237423E-006  0.3432626E+04  0.7818608E-02  0.8129945E-01
         -2   -1    0    0    0  501 -0.00000000000E+00  0.00000000000E+00  0.16055393082E+04  0.16055393082E+04  0.00000000000E+00 0.  1.
          2   -1    0    0  501    0  0.00000000000E+00 -0.00000000000E+00 -0.18347295413E+04  0.18347295413E+04  0.00000000000E+00 0. -1.
         23    2    1    2    0    0 -0.12388135058E+04  0.27630657879E+03  0.10399621637E+04  0.16453448862E+04  0.12097216676E+03 0.  0.
         11    1    3    3    0    0 -0.96455597212E+03  0.25162736552E+03  0.85851655384E+03  0.13155741057E+04  0.00000000000E+00 0. -1.
        -11    1    3    3    0    0 -0.27425753368E+03  0.24679213264E+02  0.18144560984E+03  0.32977078051E+03  0.00000000000E+00 0.  1.
         22    1    1    2    0    0  0.12388135058E+04 -0.27630657879E+03 -0.12691523968E+04  0.17949239633E+04  0.00000000000E+00 0. -1.
<mgrwt>
<rscale>  0 0.34326260E+04</rscale>
<asrwt>0</asrwt>
<pdfrwt beam="1">  1        2 0.28226608E+00 0.34326260E+04</pdfrwt>
<pdfrwt beam="2">  1       -2 0.24700605E+00 0.34326260E+04</pdfrwt>
<totfact> 0.45730008E-01</totfact>
</mgrwt>
</event>
<event>
 6    1  0.9364335E-007  0.1120574E+04  0.7818608E-02  0.9185368E-01
          2   -1    0    0  501    0  0.00000000000E+00  0.00000000000E+00  0.16427392226E+04  0.16427392226E+04  0.00000000000E+00 0. -1.
         -2   -1    0    0    0  501 -0.00000000000E+00 -0.00000000000E+00 -0.19109642249E+03  0.19109642249E+03  0.00000000000E+00 0.  1.
         23    2    1    2    0    0 -0.21217145894E+03  0.17855789694E+03 -0.58984175375E+02  0.29796666968E+03  0.91680710901E+02 0.  0.
         11    1    3    3    0    0 -0.94883005101E+02  0.23874376171E+02 -0.23582131648E+02  0.10064237392E+03  0.00000000000E+00 0. -1.
        -11    1    3    3    0    0 -0.11728845384E+03  0.15468352076E+03 -0.35402043727E+02  0.19732429577E+03  0.00000000000E+00 0.  1.
         22    1    1    2    0    0  0.21217145894E+03 -0.17855789694E+03  0.15106269755E+04  0.15358689754E+04  0.00000000000E+00 0. -1.
<mgrwt>
<rscale>  0 0.11205741E+04</rscale>
<asrwt>0</asrwt>
<pdfrwt beam="1">  1        2 0.25272910E+00 0.11205741E+04</pdfrwt>
<pdfrwt beam="2">  1       -2 0.29399451E-01 0.11205741E+04</pdfrwt>
<totfact> 0.11142155E+02</totfact>
</mgrwt>
</event>
<event>
 6    1  0.9364335E-007  0.3895355E+04  0.7818608E-02  0.8025996E-01
          2   -1    0    0  501    0  0.00000000000E+00  0.00000000000E+00  0.20016364867E+04  0.20016364867E+04  0.00000000000E+00 0. -1.
         -2   -1    0    0    0  501 -0.00000000000E+00 -0.00000000000E+00 -0.18951733541E+04  0.18951733541E+04  0.00000000000E+00 0.  1.
         23    2    1    2    0    0 -0.13645957852E+04  0.12275622498E+04  0.70169796101E+03  0.19672152629E+04  0.92331619609E+02 0.  0.
         11    1    3    3    0    0 -0.82779940174E+03  0.72563847016E+03  0.46662267153E+03  0.11956336213E+04  0.00000000000E+00 0.  1.
        -11    1    3    3    0    0 -0.53679638344E+03  0.50192377966E+03  0.23507528948E+03  0.77158164156E+03  0.00000000000E+00 0. -1.
         22    1    1    2    0    0  0.13645957852E+04 -0.12275622498E+04 -0.59523482834E+03  0.19295945779E+04  0.00000000000E+00 0.  1.
<mgrwt>
<rscale>  0 0.38953553E+04</rscale>
<asrwt>0</asrwt>
<pdfrwt beam="1">  1        2 0.30794407E+00 0.38953553E+04</pdfrwt>
<pdfrwt beam="2">  1       -2 0.29156513E+00 0.38953553E+04</pdfrwt>
<totfact> 0.18986249E-01</totfact>
</mgrwt>
</event>
<event>
 6    1  0.9364335E-007  0.3445162E+04  0.7818608E-02  0.8126910E-01
         -4   -1    0    0    0  501 -0.00000000000E+00  0.00000000000E+00  0.29813945319E+04  0.29813945319E+04  0.00000000000E+00 0.  1.
          4   -1    0    0  501    0  0.00000000000E+00 -0.00000000000E+00 -0.99526770427E+03  0.99526770427E+03  0.00000000000E+00 0. -1.
         23    2    1    2    0    0  0.20263179298E+03 -0.53025837172E+03 -0.88201201662E+03  0.10528883027E+04  0.91624211502E+02 0.  0.
         13    1    3    3    0    0  0.10970735398E+03 -0.22868234714E+03 -0.46813062174E+03  0.53242614363E+03  0.00000000000E+00 0.  1.
        -13    1    3    3    0    0  0.92924438994E+02 -0.30157602458E+03 -0.41388139488E+03  0.52046215904E+03  0.00000000000E+00 0. -1.
         22    1    1    2    0    0 -0.20263179298E+03  0.53025837172E+03  0.28681388442E+04  0.29237739335E+04  0.00000000000E+00 0.  1.
<mgrwt>
<rscale>  0 0.34451622E+04</rscale>
<asrwt>0</asrwt>
<pdfrwt beam="1">  1        4 0.15311811E+00 0.34451622E+04</pdfrwt>
<pdfrwt beam="2">  1       -4 0.45867608E+00 0.34451622E+04</pdfrwt>
<totfact> 0.11669469E-03</totfact>
</mgrwt>
</event>
<event>
 6    1  0.9364335E-007  0.2058798E+04  0.7818608E-02  0.8579614E-01
          1   -1    0    0  501    0  0.00000000000E+00  0.00000000000E+00  0.56930764736E+03  0.56930764736E+03  0.00000000000E+00 0. -1.
         -1   -1    0    0    0  501 -0.00000000000E+00 -0.00000000000E+00 -0.18613171812E+04  0.18613171812E+04  0.00000000000E+00 0.  1.
         23    2    1    2    0    0  0.10306838887E+03 -0.97689030323E+03 -0.29211190856E+03  0.10289354841E+04  0.91875491851E+02 0.  0.
         11    1    3    3    0    0  0.55372813382E+02 -0.20832137168E+03 -0.83179627945E+02  0.23104716589E+03  0.00000000000E+00 0.  1.
        -11    1    3    3    0    0  0.47695575489E+02 -0.76856893155E+03 -0.20893228062E+03  0.79788831822E+03  0.00000000000E+00 0. -1.
         22    1    1    2    0    0 -0.10306838887E+03  0.97689030323E+03 -0.99989762533E+03  0.14016893445E+04  0.00000000000E+00 0.  1.
<mgrwt>
<rscale>  0 0.20587978E+04</rscale>
<asrwt>0</asrwt>
<pdfrwt beam="1">  1        1 0.87585794E-01 0.20587978E+04</pdfrwt>
<pdfrwt beam="2">  1       -1 0.28635648E+00 0.20587978E+04</pdfrwt>
<totfact> 0.13805205E+00</totfact>
</mgrwt>
</event>
<event>
 6    1  0.9364335E-007  0.3329530E+04  0.7818608E-02  0.8155422E-01
          2   -1    0    0  501    0  0.00000000000E+00  0.00000000000E+00  0.28641489478E+04  0.28641489478E+04  0.00000000000E+00 0. -1.
         -2   -1    0    0    0  501 -0.00000000000E+00 -0.00000000000E+00 -0.96763204124E+03  0.96763204124E+03  0.00000000000E+00 0.  1.
         23    2    1    2    0    0 -0.27593067423E+03  0.15891961469E+04  0.14170773153E+04  0.21490616269E+04  0.93143053200E+02 0.  0.
         11    1    3    3    0    0 -0.13276615657E+03  0.77660574447E+03  0.63036680061E+03  0.10090122090E+04  0.00000000000E+00 0. -1.
        -11    1    3    3    0    0 -0.14316451766E+03  0.81259040241E+03  0.78671051468E+03  0.11400494178E+04  0.00000000000E+00 0.  1.
         22    1    1    2    0    0  0.27593067423E+03 -0.15891961469E+04  0.47943959133E+03  0.16827193622E+04  0.00000000000E+00 0.  1.
<mgrwt>
<rscale>  0 0.33295299E+04</rscale>
<asrwt>0</asrwt>
<pdfrwt beam="1">  1        2 0.44063829E+00 0.33295299E+04</pdfrwt>
<pdfrwt beam="2">  1       -2 0.14886647E+00 0.33295299E+04</pdfrwt>
<totfact> 0.53804912E-01</totfact>
</mgrwt>
</event>
<event>
 6    1  0.9364335E-007  0.1017621E+04  0.7818608E-02  0.9289427E-01
         -2   -1    0    0    0  501 -0.00000000000E+00  0.00000000000E+00  0.52135729963E+03  0.52135729963E+03  0.00000000000E+00 0.  1.
          2   -1    0    0  501    0  0.00000000000E+00 -0.00000000000E+00 -0.49656567777E+03  0.49656567777E+03  0.00000000000E+00 0. -1.
         23    2    1    2    0    0  0.12172064639E+03 -0.18052606135E+03 -0.44320435002E+03  0.50175846459E+03  0.89027447061E+02 0.  0.
         11    1    3    3    0    0  0.11080919070E+03 -0.11332042025E+03 -0.24142153529E+03  0.28879846276E+03  0.00000000000E+00 0.  1.
        -11    1    3    3    0    0  0.10911455684E+02 -0.67205641093E+02 -0.20178281473E+03  0.21296000183E+03  0.00000000000E+00 0. -1.
         22    1    1    2    0    0 -0.12172064639E+03  0.18052606135E+03  0.46799597188E+03  0.51616451280E+03  0.00000000000E+00 0.  1.
<mgrwt>
<rscale>  0 0.10176210E+04</rscale>
<asrwt>0</asrwt>
<pdfrwt beam="1">  1        2 0.76394720E-01 0.10176210E+04</pdfrwt>
<pdfrwt beam="2">  1       -2 0.80208815E-01 0.10176210E+04</pdfrwt>
<totfact> 0.85150304E+01</totfact>
</mgrwt>
</event>
<event>
 6    1  0.1068297E-006  0.3364532E+04  0.7818608E-02  0.8146667E-01
         -2   -1    0    0    0  501 -0.00000000000E+00  0.00000000000E+00  0.14988640054E+04  0.14988640054E+04  0.00000000000E+00 0.  1.
          2   -1    0    0  501    0  0.00000000000E+00 -0.00000000000E+00 -0.18881087850E+04  0.18881087850E+04  0.00000000000E+00 0. -1.
         23    2    1    2    0    0 -0.12418528991E+04  0.39126417082E+03  0.87564001118E+03  0.15716987592E+04  0.90583034174E+02 0.  0.
         11    1    3    3    0    0 -0.58429376073E+03  0.23028566831E+03  0.40894147622E+03  0.74944233856E+03  0.00000000000E+00 0. -1.
        -11    1    3    3    0    0 -0.65755913839E+03  0.16097850251E+03  0.46669853496E+03  0.82225642064E+03  0.00000000000E+00 0.  1.
         22    1    1    2    0    0  0.12418528991E+04 -0.39126417082E+03 -0.12648847907E+04  0.18152740312E+04  0.00000000000E+00 0. -1.
<mgrwt>
<rscale>  0 0.33645316E+04</rscale>
<asrwt>0</asrwt>
<pdfrwt beam="1">  1        2 0.29047828E+00 0.33645316E+04</pdfrwt>
<pdfrwt beam="2">  1       -2 0.23059446E+00 0.33645316E+04</pdfrwt>
<totfact> 0.54303056E-01</totfact>
</mgrwt>
</event>
<event>
 6    1  0.9364335E-007  0.1827866E+04  0.7818608E-02  0.8691620E-01
          2   -1    0    0  501    0  0.00000000000E+00  0.00000000000E+00  0.91907729892E+03  0.91907729892E+03  0.00000000000E+00 0. -1.
         -2   -1    0    0    0  501 -0.00000000000E+00 -0.00000000000E+00 -0.90881705452E+03  0.90881705452E+03  0.00000000000E+00 0.  1.
         23    2    1    2    0    0  0.30009958599E+03 -0.83990249957E+03  0.19422938418E+03  0.91721295214E+03  0.89769569440E+02 0.  0.
         13    1    3    3    0    0  0.16896416001E+03 -0.52356599364E+03  0.16064856956E+03  0.57313017715E+03  0.00000000000E+00 0. -1.
        -13    1    3    3    0    0  0.13113542598E+03 -0.31633650593E+03  0.33580814627E+02  0.34408277499E+03  0.00000000000E+00 0.  1.
         22    1    1    2    0    0 -0.30009958599E+03  0.83990249957E+03 -0.18396913978E+03  0.91068140131E+03  0.00000000000E+00 0. -1.
<mgrwt>
<rscale>  0 0.18278656E+04</rscale>
<asrwt>0</asrwt>
<pdfrwt beam="1">  1        2 0.14139651E+00 0.18278656E+04</pdfrwt>
<pdfrwt beam="2">  1       -2 0.13981801E+00 0.18278656E+04</pdfrwt>
<totfact> 0.96618676E+00</totfact>
</mgrwt>
</event>
<event>
 6    1  0.9364335E-007  0.1055202E+04  0.7818608E-02  0.9249990E-01
          1   -1    0    0  501    0  0.00000000000E+00  0.00000000000E+00  0.93916768502E+03  0.93916768502E+03  0.00000000000E+00 0. -1.
         -1   -1    0    0    0  501 -0.00000000000E+00 -0.00000000000E+00 -0.29639294662E+03  0.29639294662E+03  0.00000000000E+00 0.  1.
         23    2    1    2    0    0 -0.21774193385E+03 -0.14329252840E+03 -0.20732193920E+03  0.34639885799E+03  0.95212834690E+02 0.  0.
         13    1    3    3    0    0 -0.87258436968E+02 -0.47602455475E+02 -0.13869981377E+03  0.17063899592E+03  0.00000000000E+00 0.  1.
        -13    1    3    3    0    0 -0.13048349688E+03 -0.95690072927E+02 -0.68622125431E+02  0.17575986207E+03  0.00000000000E+00 0. -1.
         22    1    1    2    0    0  0.21774193385E+03  0.14329252840E+03  0.85009667761E+03  0.88916177366E+03  0.00000000000E+00 0. -1.
<mgrwt>
<rscale>  0 0.10552017E+04</rscale>
<asrwt>0</asrwt>
<pdfrwt beam="1">  1        1 0.14448733E+00 0.10552017E+04</pdfrwt>
<pdfrwt beam="2">  1       -1 0.45598915E-01 0.10552017E+04</pdfrwt>
<totfact> 0.80687928E+01</totfact>
</mgrwt>
</event>
<event>
 6    1  0.9364335E-007  0.3342535E+04  0.7818608E-02  0.8152156E-01
          2   -1    0    0  501    0  0.00000000000E+00  0.00000000000E+00  0.21997096260E+04  0.21997096260E+04  0.00000000000E+00 0. -1.
         -2   -1    0    0    0  501 -0.00000000000E+00 -0.00000000000E+00 -0.12697745713E+04  0.12697745713E+04  0.00000000000E+00 0.  1.
         23    2    1    2    0    0 -0.12170921384E+04 -0.66109499298E+03  0.14337844660E+04  0.19956374982E+04  0.92039483501E+02 0.  0.
         13    1    3    3    0    0 -0.40977795394E+03 -0.17791443976E+03  0.43656619307E+03  0.62462913824E+03  0.00000000000E+00 0.  1.
        -13    1    3    3    0    0 -0.80731418442E+03 -0.48318055322E+03  0.99721827289E+03  0.13710083600E+04  0.00000000000E+00 0. -1.
         22    1    1    2    0    0  0.12170921384E+04  0.66109499298E+03 -0.50384941122E+03  0.14738466990E+04  0.00000000000E+00 0.  1.
<mgrwt>
<rscale>  0 0.33425352E+04</rscale>
<asrwt>0</asrwt>
<pdfrwt beam="1">  1        2 0.33841687E+00 0.33425352E+04</pdfrwt>
<pdfrwt beam="2">  1       -2 0.19534993E+00 0.33425352E+04</pdfrwt>
<totfact> 0.61378091E-01</totfact>
</mgrwt>
</event>
<event>
 6    1  0.9364335E-007  0.1791125E+04  0.7818608E-02  0.8711033E-01
          2   -1    0    0  501    0  0.00000000000E+00  0.00000000000E+00  0.27391514485E+04  0.27391514485E+04  0.00000000000E+00 0. -1.
         -2   -1    0    0    0  501 -0.00000000000E+00 -0.00000000000E+00 -0.29280319820E+03  0.29280319820E+03  0.00000000000E+00 0.  1.
         23    2    1    2    0    0  0.37943354289E+03  0.44390326418E+03  0.82754829230E+02  0.59728962220E+03  0.94268815669E+02 0.  0.
         11    1    3    3    0    0  0.28965526215E+03  0.39335325475E+03  0.69076801993E+02  0.49335439441E+03  0.00000000000E+00 0. -1.
        -11    1    3    3    0    0  0.89778280742E+02  0.50550009433E+02  0.13678027238E+02  0.10393522779E+03  0.00000000000E+00 0.  1.
         22    1    1    2    0    0 -0.37943354289E+03 -0.44390326418E+03  0.23635934211E+04  0.24346650245E+04  0.00000000000E+00 0. -1.
<mgrwt>
<rscale>  0 0.17911251E+04</rscale>
<asrwt>0</asrwt>
<pdfrwt beam="1">  1        2 0.42140790E+00 0.17911251E+04</pdfrwt>
<pdfrwt beam="2">  1       -2 0.45046648E-01 0.17911251E+04</pdfrwt>
<totfact> 0.11135170E+01</totfact>
</mgrwt>
</event>
<event>
 6    1  0.9364335E-007  0.2219855E+04  0.7818608E-02  0.8510209E-01
         -1   -1    0    0    0  501 -0.00000000000E+00  0.00000000000E+00  0.45958731785E+03  0.45958731785E+03  0.00000000000E+00 0.  1.
          1   -1    0    0  501    0  0.00000000000E+00 -0.00000000000E+00 -0.26805330635E+04  0.26805330635E+04  0.00000000000E+00 0. -1.
         23    2    1    2    0    0  0.54963886813E+03 -0.84990617954E+03 -0.47441399460E+03  0.11215028949E+04  0.90866415787E+02 0.  0.
         11    1    3    3    0    0  0.27064808928E+03 -0.43635921966E+03 -0.19162747601E+03  0.54807011082E+03  0.00000000000E+00 0.  1.
        -11    1    3    3    0    0  0.27899077885E+03 -0.41354695988E+03 -0.28278651859E+03  0.57343278403E+03  0.00000000000E+00 0. -1.
         22    1    1    2    0    0 -0.54963886813E+03  0.84990617954E+03 -0.17465317511E+04  0.20186174865E+04  0.00000000000E+00 0. -1.
<mgrwt>
<rscale>  0 0.22198550E+04</rscale>
<asrwt>0</asrwt>
<pdfrwt beam="1">  1        1 0.41238970E+00 0.22198550E+04</pdfrwt>
<pdfrwt beam="2">  1       -1 0.70705741E-01 0.22198550E+04</pdfrwt>
<totfact> 0.18635878E+00</totfact>
</mgrwt>
</event>
<event>
 6    1  0.9364335E-007  0.2063558E+04  0.7818608E-02  0.8577468E-01
          1   -1    0    0  501    0  0.00000000000E+00  0.00000000000E+00  0.22282778094E+04  0.22282778094E+04  0.00000000000E+00 0. -1.
         -1   -1    0    0    0  501 -0.00000000000E+00 -0.00000000000E+00 -0.47775367786E+03  0.47775367786E+03  0.00000000000E+00 0.  1.
         23    2    1    2    0    0 -0.86134300115E+03  0.43438085103E+02  0.13946815368E+03  0.87865632142E+03  0.93738638865E+02 0.  0.
         11    1    3    3    0    0 -0.52355140600E+03  0.35908726697E+02  0.13002154679E+03  0.54064878989E+03  0.00000000000E+00 0.  1.
        -11    1    3    3    0    0 -0.33779159515E+03  0.75293584065E+01  0.94466068906E+01  0.33800753153E+03  0.00000000000E+00 0. -1.
         22    1    1    2    0    0  0.86134300115E+03 -0.43438085103E+02  0.16110559778E+04  0.18273751658E+04  0.00000000000E+00 0. -1.
<mgrwt>
<rscale>  0 0.20635580E+04</rscale>
<asrwt>0</asrwt>
<pdfrwt beam="1">  1        1 0.34281197E+00 0.20635580E+04</pdfrwt>
<pdfrwt beam="2">  1       -1 0.73500567E-01 0.20635580E+04</pdfrwt>
<totfact> 0.35853979E+00</totfact>
</mgrwt>
</event>
<event>
 6    1  0.9364335E-007  0.3009127E+04  0.7818608E-02  0.8241130E-01
         -2   -1    0    0    0  501 -0.00000000000E+00  0.00000000000E+00  0.58859740763E+03  0.58859740763E+03  0.00000000000E+00 0.  1.
          2   -1    0    0  501    0  0.00000000000E+00 -0.00000000000E+00 -0.38459408318E+04  0.38459408318E+04  0.00000000000E+00 0. -1.
         23    2    1    2    0    0  0.75640178942E+03 -0.66901101208E+03 -0.32710975700E+04  0.34246330074E+04  0.91173027852E+02 0.  0.
         13    1    3    3    0    0  0.17784748092E+03 -0.20953605688E+03 -0.92252450358E+03  0.96259365534E+03  0.00000000000E+00 0. -1.
        -13    1    3    3    0    0  0.57855430850E+03 -0.45947495520E+03 -0.23485730665E+04  0.24620393520E+04  0.00000000000E+00 0.  1.
         22    1    1    2    0    0 -0.75640178942E+03  0.66901101208E+03  0.13754145822E+02  0.10099052321E+04  0.00000000000E+00 0.  1.
<mgrwt>
<rscale>  0 0.30091267E+04</rscale>
<asrwt>0</asrwt>
<pdfrwt beam="1">  1        2 0.59168321E+00 0.30091267E+04</pdfrwt>
<pdfrwt beam="2">  1       -2 0.90553447E-01 0.30091267E+04</pdfrwt>
<totfact> 0.40333289E-01</totfact>
</mgrwt>
</event>
<event>
 6    1  0.9364335E-007  0.3991816E+04  0.7818608E-02  0.8006199E-01
          2   -1    0    0  501    0  0.00000000000E+00  0.00000000000E+00  0.46242975075E+04  0.46242975075E+04  0.00000000000E+00 0. -1.
         -2   -1    0    0    0  501 -0.00000000000E+00 -0.00000000000E+00 -0.86146049301E+03  0.86146049301E+03  0.00000000000E+00 0.  1.
         23    2    1    2    0    0  0.49374217707E+03 -0.18642807682E+04  0.25832744391E+04  0.32250740356E+04  0.92041223203E+02 0.  0.
         11    1    3    3    0    0  0.25794595237E+03 -0.11301119859E+04  0.15163913401E+04  0.19086990102E+04  0.00000000000E+00 0.  1.
        -11    1    3    3    0    0  0.23579622470E+03 -0.73416878237E+03  0.10668830990E+04  0.13163750254E+04  0.00000000000E+00 0. -1.
         22    1    1    2    0    0 -0.49374217707E+03  0.18642807682E+04  0.11795625754E+04  0.22606839650E+04  0.00000000000E+00 0. -1.
<mgrwt>
<rscale>  0 0.39918164E+04</rscale>
<asrwt>0</asrwt>
<pdfrwt beam="1">  1        2 0.71143037E+00 0.39918164E+04</pdfrwt>
<pdfrwt beam="2">  1       -2 0.13253239E+00 0.39918164E+04</pdfrwt>
<totfact> 0.29867824E-02</totfact>
</mgrwt>
</event>
<event>
 6    1  0.9364335E-007  0.3067782E+04  0.7818608E-02  0.8224636E-01
         -2   -1    0    0    0  501 -0.00000000000E+00  0.00000000000E+00  0.58117926072E+03  0.58117926072E+03  0.00000000000E+00 0.  1.
          2   -1    0    0  501    0  0.00000000000E+00 -0.00000000000E+00 -0.40483578669E+04  0.40483578669E+04  0.00000000000E+00 0. -1.
         23    2    1    2    0    0 -0.95904444570E+03 -0.11768958284E+04 -0.20509812377E+04  0.25533711838E+04  0.91270614932E+02 0.  0.
         11    1    3    3    0    0 -0.12021566593E+03 -0.12325499436E+03 -0.27579789318E+03  0.32512778695E+03  0.00000000000E+00 0. -1.
        -11    1    3    3    0    0 -0.83882877977E+03 -0.10536408340E+04 -0.17751833445E+04  0.22282433968E+04  0.00000000000E+00 0.  1.
         22    1    1    2    0    0  0.95904444570E+03  0.11768958284E+04 -0.14161973685E+04  0.20761659438E+04  0.00000000000E+00 0.  1.
<mgrwt>
<rscale>  0 0.30677820E+04</rscale>
<asrwt>0</asrwt>
<pdfrwt beam="1">  1        2 0.62282427E+00 0.30677820E+04</pdfrwt>
<pdfrwt beam="2">  1       -2 0.89412196E-01 0.30677820E+04</pdfrwt>
<totfact> 0.28502202E-01</totfact>
</mgrwt>
</event>
<event>
 6    1  0.9364335E-007  0.1912018E+04  0.7818608E-02  0.8648897E-01
         -1   -1    0    0    0  501 -0.00000000000E+00  0.00000000000E+00  0.16446276521E+04  0.16446276521E+04  0.00000000000E+00 0.  1.
          1   -1    0    0  501    0  0.00000000000E+00 -0.00000000000E+00 -0.55572049945E+03  0.55572049945E+03  0.00000000000E+00 0. -1.
         23    2    1    2    0    0 -0.63894817013E+03 -0.47762416842E+03 -0.55880051197E+02  0.80502834862E+03  0.92565931073E+02 0.  0.
         13    1    3    3    0    0 -0.30807596317E+03 -0.25235146584E+03 -0.70750237307E+02  0.40447207255E+03  0.00000000000E+00 0.  1.
        -13    1    3    3    0    0 -0.33087220696E+03 -0.22527270257E+03  0.14870186110E+02  0.40055627607E+03  0.00000000000E+00 0. -1.
         22    1    1    2    0    0  0.63894817013E+03  0.47762416842E+03  0.11447872038E+04  0.13953198029E+04  0.00000000000E+00 0.  1.
<mgrwt>
<rscale>  0 0.19120181E+04</rscale>
<asrwt>0</asrwt>
<pdfrwt beam="1">  1        1 0.85495463E-01 0.19120181E+04</pdfrwt>
<pdfrwt beam="2">  1       -1 0.25301964E+00 0.19120181E+04</pdfrwt>
<totfact> 0.23805334E+00</totfact>
</mgrwt>
</event>
<event>
 6    1  0.9364335E-007  0.3439559E+04  0.7818608E-02  0.8128265E-01
          2   -1    0    0  501    0  0.00000000000E+00  0.00000000000E+00  0.40927811386E+04  0.40927811386E+04  0.00000000000E+00 0. -1.
         -2   -1    0    0    0  501 -0.00000000000E+00 -0.00000000000E+00 -0.72264827859E+03  0.72264827859E+03  0.00000000000E+00 0.  1.
         23    2    1    2    0    0  0.16988256234E+04  0.99805245053E+02  0.20220272724E+04  0.26444024111E+04  0.91105632847E+02 0.  0.
         11    1    3    3    0    0  0.64630282370E+03 -0.32298323007E+01  0.79222270729E+03  0.10224160551E+04  0.00000000000E+00 0. -1.
        -11    1    3    3    0    0  0.10525227997E+04  0.10303507735E+03  0.12298045651E+04  0.16219863561E+04  0.00000000000E+00 0.  1.
         22    1    1    2    0    0 -0.16988256234E+04 -0.99805245053E+02  0.13481055876E+04  0.21710270060E+04  0.00000000000E+00 0.  1.
<mgrwt>
<rscale>  0 0.34395588E+04</rscale>
<asrwt>0</asrwt>
<pdfrwt beam="1">  1        2 0.62965862E+00 0.34395588E+04</pdfrwt>
<pdfrwt beam="2">  1       -2 0.11117666E+00 0.34395588E+04</pdfrwt>
<totfact> 0.15130181E-01</totfact>
</mgrwt>
</event>
<event>
 6    1  0.9364335E-007  0.1745872E+04  0.7818608E-02  0.8735626E-01
         -2   -1    0    0    0  501 -0.00000000000E+00  0.00000000000E+00  0.86051636792E+03  0.86051636792E+03  0.00000000000E+00 0.  1.
          2   -1    0    0  501    0  0.00000000000E+00 -0.00000000000E+00 -0.88553496330E+03  0.88553496330E+03  0.00000000000E+00 0. -1.
         23    2    1    2    0    0  0.82677903493E+03  0.24838251055E+03  0.99931961287E+02  0.87377265685E+03  0.90745880496E+02 0.  0.
         13    1    3    3    0    0  0.35174404437E+03  0.11548636334E+03  0.87129653245E+02  0.38033215660E+03  0.00000000000E+00 0.  1.
        -13    1    3    3    0    0  0.47503499056E+03  0.13289614720E+03  0.12802308042E+02  0.49344050025E+03  0.00000000000E+00 0. -1.
         22    1    1    2    0    0 -0.82677903493E+03 -0.24838251055E+03 -0.12495055667E+03  0.87227867437E+03  0.00000000000E+00 0. -1.
<mgrwt>
<rscale>  0 0.17458721E+04</rscale>
<asrwt>0</asrwt>
<pdfrwt beam="1">  1        2 0.13623615E+00 0.17458721E+04</pdfrwt>
<pdfrwt beam="2">  1       -2 0.13238713E+00 0.17458721E+04</pdfrwt>
<totfact> 0.11791401E+01</totfact>
</mgrwt>
</event>
<event>
 6    1  0.9364335E-007  0.3086962E+04  0.7818608E-02  0.8219325E-01
         -2   -1    0    0    0  501 -0.00000000000E+00  0.00000000000E+00  0.10039185023E+04  0.10039185023E+04  0.00000000000E+00 0.  1.
          2   -1    0    0  501    0  0.00000000000E+00 -0.00000000000E+00 -0.23730354142E+04  0.23730354142E+04  0.00000000000E+00 0. -1.
         23    2    1    2    0    0 -0.49788357880E+02  0.65319100857E+03 -0.22124646895E+04  0.23090715034E+04  0.87600407350E+02 0.  0.
         11    1    3    3    0    0 -0.57402923988E+01  0.32953309847E+03 -0.12484515694E+04  0.12912228061E+04  0.00000000000E+00 0.  1.
        -11    1    3    3    0    0 -0.44048065481E+02  0.32365791010E+03 -0.96401312013E+03  0.10178486973E+04  0.00000000000E+00 0. -1.
         22    1    1    2    0    0  0.49788357880E+02 -0.65319100857E+03  0.84334777760E+03  0.10678824131E+04  0.00000000000E+00 0.  1.
<mgrwt>
<rscale>  0 0.30869624E+04</rscale>
<asrwt>0</asrwt>
<pdfrwt beam="1">  1        2 0.36508237E+00 0.30869624E+04</pdfrwt>
<pdfrwt beam="2">  1       -2 0.15444900E+00 0.30869624E+04</pdfrwt>
<totfact> 0.97026719E-01</totfact>
</mgrwt>
</event>
<event>
 6    1  0.1416485E-006  0.3403041E+04  0.7818608E-02  0.8137160E-01
          2   -1    0    0  501    0  0.00000000000E+00  0.00000000000E+00  0.14936188390E+04  0.14936188390E+04  0.00000000000E+00 0. -1.
         -2   -1    0    0    0  501 -0.00000000000E+00 -0.00000000000E+00 -0.19383610192E+04  0.19383610192E+04  0.00000000000E+00 0.  1.
         23    2    1    2    0    0 -0.96881853519E+03 -0.13431905091E+04 -0.61104107060E+03  0.17675203607E+04  0.89369669063E+02 0.  0.
         13    1    3    3    0    0 -0.60342117823E+03 -0.84537337150E+03 -0.42871734742E+03  0.11236422115E+04  0.00000000000E+00 0. -1.
        -13    1    3    3    0    0 -0.36539735696E+03 -0.49781713757E+03 -0.18232372318E+03  0.64387814916E+03  0.00000000000E+00 0.  1.
         22    1    1    2    0    0  0.96881853519E+03  0.13431905091E+04  0.16629889039E+03  0.16644594975E+04  0.00000000000E+00 0.  1.
<mgrwt>
<rscale>  0 0.34030413E+04</rscale>
<asrwt>0</asrwt>
<pdfrwt beam="1">  1        2 0.22978751E+00 0.34030413E+04</pdfrwt>
<pdfrwt beam="2">  1       -2 0.29820939E+00 0.34030413E+04</pdfrwt>
<totfact> 0.34552004E-01</totfact>
</mgrwt>
</event>
<event>
 6    1  0.9364335E-007  0.2241375E+04  0.7818608E-02  0.8501402E-01
         -1   -1    0    0    0  501 -0.00000000000E+00  0.00000000000E+00  0.68519144346E+03  0.68519144346E+03  0.00000000000E+00 0.  1.
          1   -1    0    0  501    0  0.00000000000E+00 -0.00000000000E+00 -0.18329773807E+04  0.18329773807E+04  0.00000000000E+00 0. -1.
         23    2    1    2    0    0  0.24007595721E+03 -0.70107852566E+03 -0.15166421381E+04  0.16903992540E+04  0.89992769329E+02 0.  0.
         13    1    3    3    0    0  0.11282293533E+03 -0.45788856927E+03 -0.93064072178E+03  0.10433039392E+04  0.00000000000E+00 0. -1.
        -13    1    3    3    0    0  0.12725302188E+03 -0.24318995639E+03 -0.58600141633E+03  0.64709531478E+03  0.00000000000E+00 0.  1.
         22    1    1    2    0    0 -0.24007595721E+03  0.70107852566E+03  0.36885620085E+03  0.82776957016E+03  0.00000000000E+00 0.  1.
<mgrwt>
<rscale>  0 0.22413750E+04</rscale>
<asrwt>0</asrwt>
<pdfrwt beam="1">  1        1 0.28199652E+00 0.22413750E+04</pdfrwt>
<pdfrwt beam="2">  1       -1 0.10541407E+00 0.22413750E+04</pdfrwt>
<totfact> 0.29646492E+00</totfact>
</mgrwt>
</event>
<event>
 6    1  0.9364335E-007  0.1767060E+04  0.7818608E-02  0.8724015E-01
          1   -1    0    0  501    0  0.00000000000E+00  0.00000000000E+00  0.53386806746E+03  0.53386806746E+03  0.00000000000E+00 0. -1.
         -1   -1    0    0    0  501 -0.00000000000E+00 -0.00000000000E+00 -0.14622069498E+04  0.14622069498E+04  0.00000000000E+00 0.  1.
         23    2    1    2    0    0 -0.44890628625E+03 -0.64041826642E+03 -0.65909334634E+01  0.78724430495E+03  0.89764945681E+02 0.  0.
         13    1    3    3    0    0 -0.37056682384E+03 -0.56792229308E+03  0.15240766296E+02  0.67829770961E+03  0.00000000000E+00 0.  1.
        -13    1    3    3    0    0 -0.78339462407E+02 -0.72495973336E+02 -0.21831699759E+02  0.10894659533E+03  0.00000000000E+00 0. -1.
         22    1    1    2    0    0  0.44890628625E+03  0.64041826642E+03 -0.92174794888E+03  0.12088307123E+04  0.00000000000E+00 0.  1.
<mgrwt>
<rscale>  0 0.17670604E+04</rscale>
<asrwt>0</asrwt>
<pdfrwt beam="1">  1        1 0.82133549E-01 0.17670604E+04</pdfrwt>
<pdfrwt beam="2">  1       -1 0.22495492E+00 0.17670604E+04</pdfrwt>
<totfact> 0.39028892E+00</totfact>
</mgrwt>
</event>
<event>
 6    1  0.9364335E-007  0.1213180E+04  0.7818608E-02  0.9101397E-01
          2   -1    0    0  501    0  0.00000000000E+00  0.00000000000E+00  0.19779798830E+04  0.19779798830E+04  0.00000000000E+00 0. -1.
         -2   -1    0    0    0  501 -0.00000000000E+00 -0.00000000000E+00 -0.18602396266E+03  0.18602396266E+03  0.00000000000E+00 0.  1.
         23    2    1    2    0    0  0.57552261856E+03  0.52806558065E+02  0.59091805907E+03  0.83114722874E+03  0.87216662711E+02 0.  0.
         11    1    3    3    0    0  0.33242943919E+03  0.57301435575E+01  0.28770627189E+03  0.43967836593E+03  0.00000000000E+00 0. -1.
        -11    1    3    3    0    0  0.24309317937E+03  0.47076414507E+02  0.30321178719E+03  0.39146886281E+03  0.00000000000E+00 0.  1.
         22    1    1    2    0    0 -0.57552261856E+03 -0.52806558065E+02  0.12010378612E+04  0.13328566169E+04  0.00000000000E+00 0. -1.
<mgrwt>
<rscale>  0 0.12131804E+04</rscale>
<asrwt>0</asrwt>
<pdfrwt beam="1">  1        2 0.30430458E+00 0.12131804E+04</pdfrwt>
<pdfrwt beam="2">  1       -2 0.28619073E-01 0.12131804E+04</pdfrwt>
<totfact> 0.75934904E+01</totfact>
</mgrwt>
</event>
<event>
 6    1  0.9364335E-007  0.1804612E+04  0.7818608E-02  0.8703851E-01
          1   -1    0    0  501    0  0.00000000000E+00  0.00000000000E+00  0.96780571350E+03  0.96780571350E+03  0.00000000000E+00 0. -1.
         -1   -1    0    0    0  501 -0.00000000000E+00 -0.00000000000E+00 -0.84123928626E+03  0.84123928626E+03  0.00000000000E+00 0.  1.
         23    2    1    2    0    0 -0.16153009994E+03 -0.50486612919E+03  0.79241268541E+03  0.95796743507E+03  0.93818767110E+02 0.  0.
         13    1    3    3    0    0 -0.72098916495E+02 -0.98684835577E+02  0.16949084146E+03  0.20895955558E+03  0.00000000000E+00 0. -1.
        -13    1    3    3    0    0 -0.89431183450E+02 -0.40618129361E+03  0.62292184396E+03  0.74900787949E+03  0.00000000000E+00 0.  1.
         22    1    1    2    0    0  0.16153009994E+03  0.50486612919E+03 -0.66584625818E+03  0.85107756469E+03  0.00000000000E+00 0.  1.
<mgrwt>
<rscale>  0 0.18046121E+04</rscale>
<asrwt>0</asrwt>
<pdfrwt beam="1">  1        1 0.14889319E+00 0.18046121E+04</pdfrwt>
<pdfrwt beam="2">  1       -1 0.12942143E+00 0.18046121E+04</pdfrwt>
<totfact> 0.77618803E+00</totfact>
</mgrwt>
</event>
<event>
 6    1  0.9364335E-007  0.2748919E+04  0.7818608E-02  0.8319305E-01
         -2   -1    0    0    0  501 -0.00000000000E+00  0.00000000000E+00  0.99423693010E+03  0.99423693010E+03  0.00000000000E+00 0.  1.
          2   -1    0    0  501    0  0.00000000000E+00 -0.00000000000E+00 -0.19000895953E+04  0.19000895953E+04  0.00000000000E+00 0. -1.
         23    2    1    2    0    0 -0.10317002227E+04 -0.76958249753E+03 -0.95638181133E+03  0.16062210310E+04  0.92829206385E+02 0.  0.
         11    1    3    3    0    0 -0.73448663441E+03 -0.57123779528E+03 -0.64393019861E+03  0.11315605753E+04  0.00000000000E+00 0. -1.
        -11    1    3    3    0    0 -0.29721358825E+03 -0.19834470225E+03 -0.31245161273E+03  0.47466045574E+03  0.00000000000E+00 0.  1.
         22    1    1    2    0    0  0.10317002227E+04  0.76958249753E+03  0.50529146148E+02  0.12881054943E+04  0.00000000000E+00 0.  1.
<mgrwt>
<rscale>  0 0.27489192E+04</rscale>
<asrwt>0</asrwt>
<pdfrwt beam="1">  1        2 0.29232147E+00 0.27489192E+04</pdfrwt>
<pdfrwt beam="2">  1       -2 0.15295953E+00 0.27489192E+04</pdfrwt>
<totfact> 0.18872550E+00</totfact>
</mgrwt>
</event>
<event>
 6    1  0.9364335E-007  0.3689251E+04  0.7818608E-02  0.8070348E-01
         -2   -1    0    0    0  501 -0.00000000000E+00  0.00000000000E+00  0.18714969350E+04  0.18714969350E+04  0.00000000000E+00 0.  1.
          2   -1    0    0  501    0  0.00000000000E+00 -0.00000000000E+00 -0.18181402072E+04  0.18181402072E+04  0.00000000000E+00 0. -1.
         23    2    1    2    0    0  0.11318967105E+04  0.93377963689E+03 -0.10894193566E+04  0.18297791497E+04  0.90125627179E+02 0.  0.
         11    1    3    3    0    0  0.69108654352E+03  0.57701437983E+03 -0.72216737159E+03  0.11541542002E+04  0.00000000000E+00 0. -1.
        -11    1    3    3    0    0  0.44081016695E+03  0.35676525706E+03 -0.36725198498E+03  0.67562494951E+03  0.00000000000E+00 0.  1.
         22    1    1    2    0    0 -0.11318967105E+04 -0.93377963689E+03  0.11427760843E+04  0.18598579925E+04  0.00000000000E+00 0.  1.
<mgrwt>
<rscale>  0 0.36892513E+04</rscale>
<asrwt>0</asrwt>
<pdfrwt beam="1">  1        2 0.27971388E+00 0.36892513E+04</pdfrwt>
<pdfrwt beam="2">  1       -2 0.28792261E+00 0.36892513E+04</pdfrwt>
<totfact> 0.25700313E-01</totfact>
</mgrwt>
</event>
<event>
 6    1  0.9364335E-007  0.7431036E+03  0.7818608E-02  0.9646232E-01
          1   -1    0    0  501    0  0.00000000000E+00  0.00000000000E+00  0.13500629782E+04  0.13500629782E+04  0.00000000000E+00 0. -1.
         -1   -1    0    0    0  501 -0.00000000000E+00 -0.00000000000E+00 -0.10225503912E+03  0.10225503912E+03  0.00000000000E+00 0.  1.
         23    2    1    2    0    0  0.22550139474E+03  0.91073828092E+02  0.99356124037E+02  0.27839855983E+03  0.92134670673E+02 0.  0.
         11    1    3    3    0    0  0.53989903971E+02  0.63076566641E+02  0.11980041187E+02  0.83887331444E+02  0.00000000000E+00 0. -1.
        -11    1    3    3    0    0  0.17151149077E+03  0.27997261451E+02  0.87376082850E+02  0.19451122839E+03  0.00000000000E+00 0.  1.
         22    1    1    2    0    0 -0.22550139474E+03 -0.91073828092E+02  0.11484518151E+04  0.11739194575E+04  0.00000000000E+00 0. -1.
<mgrwt>
<rscale>  0 0.74310361E+03</rscale>
<asrwt>0</asrwt>
<pdfrwt beam="1">  1        1 0.20770198E+00 0.74310361E+03</pdfrwt>
<pdfrwt beam="2">  1       -1 0.15731545E-01 0.74310361E+03</pdfrwt>
<totfact> 0.25765505E+02</totfact>
</mgrwt>
</event>
<event>
 6    1  0.9364335E-007  0.2585916E+04  0.7818608E-02  0.8373001E-01
          1   -1    0    0  501    0  0.00000000000E+00  0.00000000000E+00  0.25172542975E+04  0.25172542975E+04  0.00000000000E+00 0. -1.
         -1   -1    0    0    0  501 -0.00000000000E+00 -0.00000000000E+00 -0.66411258150E+03  0.66411258150E+03  0.00000000000E+00 0.  1.
         23    2    1    2    0    0  0.12867009631E+04  0.29239108868E+02  0.79777747046E+03  0.15169606832E+04  0.90920449259E+02 0.  0.
         13    1    3    3    0    0  0.10673758776E+04  0.45103969361E+01  0.69316319282E+03  0.12727084583E+04  0.00000000000E+00 0. -1.
        -13    1    3    3    0    0  0.21932508543E+03  0.24728711932E+02  0.10461427764E+03  0.24425222492E+03  0.00000000000E+00 0.  1.
         22    1    1    2    0    0 -0.12867009631E+04 -0.29239108868E+02  0.10553642455E+04  0.16644061958E+04  0.00000000000E+00 0.  1.
<mgrwt>
<rscale>  0 0.25859159E+04</rscale>
<asrwt>0</asrwt>
<pdfrwt beam="1">  1        1 0.38726989E+00 0.25859159E+04</pdfrwt>
<pdfrwt beam="2">  1       -1 0.10217117E+00 0.25859159E+04</pdfrwt>
<totfact> 0.10537562E+00</totfact>
</mgrwt>
</event>
<event>
 6    1  0.9364335E-007  0.1913453E+04  0.7818608E-02  0.8648189E-01
          2   -1    0    0  501    0  0.00000000000E+00  0.00000000000E+00  0.13100087649E+04  0.13100087649E+04  0.00000000000E+00 0. -1.
         -2   -1    0    0    0  501 -0.00000000000E+00 -0.00000000000E+00 -0.69871685323E+03  0.69871685323E+03  0.00000000000E+00 0.  1.
         23    2    1    2    0    0 -0.18648861852E+03 -0.96511681863E+02  0.12837578826E+04  0.13042378669E+04  0.94390692542E+02 0.  0.
         13    1    3    3    0    0 -0.71981413662E+02 -0.38464665892E+02  0.26122642527E+03  0.27367882581E+03  0.00000000000E+00 0.  1.
        -13    1    3    3    0    0 -0.11450720486E+03 -0.58047015971E+02  0.10225314573E+04  0.10305590411E+04  0.00000000000E+00 0. -1.
         22    1    1    2    0    0  0.18648861852E+03  0.96511681863E+02 -0.67246597091E+03  0.70448775121E+03  0.00000000000E+00 0.  1.
<mgrwt>
<rscale>  0 0.19134526E+04</rscale>
<asrwt>0</asrwt>
<pdfrwt beam="1">  1        2 0.20153981E+00 0.19134526E+04</pdfrwt>
<pdfrwt beam="2">  1       -2 0.10749490E+00 0.19134526E+04</pdfrwt>
<totfact> 0.10602137E+01</totfact>
</mgrwt>
</event>
<event>
 6    1  0.9364335E-007  0.4031119E+04  0.7818608E-02  0.7998298E-01
         -1   -1    0    0    0  501 -0.00000000000E+00  0.00000000000E+00  0.26767649512E+04  0.26767649512E+04  0.00000000000E+00 0.  1.
          1   -1    0    0  501    0  0.00000000000E+00 -0.00000000000E+00 -0.15176824580E+04  0.15176824580E+04  0.00000000000E+00 0. -1.
         23    2    1    2    0    0 -0.10772204008E+04  0.71852427336E+03 -0.10259642442E+04  0.16545438346E+04  0.90728974579E+02 0.  0.
         13    1    3    3    0    0 -0.68804386658E+03  0.48681387033E+03 -0.71336449526E+03  0.11042105822E+04  0.00000000000E+00 0. -1.
        -13    1    3    3    0    0 -0.38917653420E+03  0.23171040303E+03 -0.31259974898E+03  0.55033325240E+03  0.00000000000E+00 0.  1.
         22    1    1    2    0    0  0.10772204008E+04 -0.71852427336E+03  0.21850467374E+04  0.25399035745E+04  0.00000000000E+00 0.  1.
<mgrwt>
<rscale>  0 0.40311186E+04</rscale>
<asrwt>0</asrwt>
<pdfrwt beam="1">  1        1 0.23348961E+00 0.40311186E+04</pdfrwt>
<pdfrwt beam="2">  1       -1 0.41180999E+00 0.40311186E+04</pdfrwt>
<totfact> 0.29456566E-02</totfact>
</mgrwt>
</event>
<event>
 6    1  0.9364335E-007  0.3722014E+04  0.7818608E-02  0.8063101E-01
          2   -1    0    0  501    0  0.00000000000E+00  0.00000000000E+00  0.17796490905E+04  0.17796490905E+04  0.00000000000E+00 0. -1.
         -2   -1    0    0    0  501 -0.00000000000E+00 -0.00000000000E+00 -0.19460840431E+04  0.19460840431E+04  0.00000000000E+00 0.  1.
         23    2    1    2    0    0  0.16433168645E+04  0.59253567067E+03 -0.72226145868E+03  0.18925577619E+04  0.92327836061E+02 0.  0.
         11    1    3    3    0    0  0.10766240260E+04  0.40806189980E+03 -0.51848556695E+03  0.12627197198E+04  0.00000000000E+00 0. -1.
        -11    1    3    3    0    0  0.56669283847E+03  0.18447377087E+03 -0.20377589173E+03  0.62983804217E+03  0.00000000000E+00 0.  1.
         22    1    1    2    0    0 -0.16433168645E+04 -0.59253567067E+03  0.55582650606E+03  0.18331753716E+04  0.00000000000E+00 0. -1.
<mgrwt>
<rscale>  0 0.37220138E+04</rscale>
<asrwt>0</asrwt>
<pdfrwt beam="1">  1        2 0.27379217E+00 0.37220138E+04</pdfrwt>
<pdfrwt beam="2">  1       -2 0.29939754E+00 0.37220138E+04</pdfrwt>
<totfact> 0.22907106E-01</totfact>
</mgrwt>
</event>
<event>
 6    1  0.9364335E-007  0.1987133E+04  0.7818608E-02  0.8612660E-01
         -2   -1    0    0    0  501 -0.00000000000E+00  0.00000000000E+00  0.15629427424E+04  0.15629427424E+04  0.00000000000E+00 0.  1.
          2   -1    0    0  501    0  0.00000000000E+00 -0.00000000000E+00 -0.63161252567E+03  0.63161252567E+03  0.00000000000E+00 0. -1.
         23    2    1    2    0    0 -0.94440405207E+03  0.12420678412E+03  0.77072592060E+03  0.12285738611E+04  0.89715933007E+02 0.  0.
         11    1    3    3    0    0 -0.84489930260E+03  0.13113508110E+03  0.66462141251E+03  0.10829463805E+04  0.00000000000E+00 0. -1.
        -11    1    3    3    0    0 -0.99504749463E+02 -0.69282969756E+01  0.10610450809E+03  0.14562748059E+03  0.00000000000E+00 0.  1.
         22    1    1    2    0    0  0.94440405207E+03 -0.12420678412E+03  0.16060429615E+03  0.96598140703E+03  0.00000000000E+00 0. -1.
<mgrwt>
<rscale>  0 0.19871328E+04</rscale>
<asrwt>0</asrwt>
<pdfrwt beam="1">  1        2 0.97171158E-01 0.19871328E+04</pdfrwt>
<pdfrwt beam="2">  1       -2 0.24045273E+00 0.19871328E+04</pdfrwt>
<totfact> 0.31875029E+00</totfact>
</mgrwt>
</event>
<event>
 6    1  0.9364335E-007  0.3219501E+04  0.7818608E-02  0.8183686E-01
         -2   -1    0    0    0  501 -0.00000000000E+00  0.00000000000E+00  0.13242595846E+04  0.13242595846E+04  0.00000000000E+00 0.  1.
          2   -1    0    0  501    0  0.00000000000E+00 -0.00000000000E+00 -0.19567890410E+04  0.19567890410E+04  0.00000000000E+00 0. -1.
         23    2    1    2    0    0  0.11358913173E+04 -0.40402556352E+03 -0.14017699251E+04  0.18509379168E+04  0.86755451053E+02 0.  0.
         11    1    3    3    0    0  0.47361455181E+03 -0.21380148641E+03 -0.60941484730E+03  0.80087968846E+03  0.00000000000E+00 0. -1.
        -11    1    3    3    0    0  0.66227676546E+03 -0.19022407712E+03 -0.79235507783E+03  0.10500582284E+04  0.00000000000E+00 0.  1.
         22    1    1    2    0    0 -0.11358913173E+04  0.40402556352E+03  0.76924046880E+03  0.14301107088E+04  0.00000000000E+00 0.  1.
<mgrwt>
<rscale>  0 0.32195010E+04</rscale>
<asrwt>0</asrwt>
<pdfrwt beam="1">  1        2 0.30104447E+00 0.32195010E+04</pdfrwt>
<pdfrwt beam="2">  1       -2 0.20373224E+00 0.32195010E+04</pdfrwt>
<totfact> 0.74644580E-01</totfact>
</mgrwt>
</event>
<event>
 6    1  0.9364335E-007  0.1392998E+04  0.7818608E-02  0.8958902E-01
          2   -1    0    0  501    0  0.00000000000E+00  0.00000000000E+00  0.28705752366E+04  0.28705752366E+04  0.00000000000E+00 0. -1.
         -2   -1    0    0    0  501 -0.00000000000E+00 -0.00000000000E+00 -0.16899433583E+03  0.16899433583E+03  0.00000000000E+00 0.  1.
         23    2    1    2    0    0 -0.33229430492E+03 -0.55453953982E+03  0.19035848107E+04  0.20125684205E+04  0.94143025765E+02 0.  0.
         11    1    3    3    0    0 -0.35278944807E+02 -0.17737955842E+02  0.10097734836E+03  0.10842353944E+03  0.00000000000E+00 0. -1.
        -11    1    3    3    0    0 -0.29701536012E+03 -0.53680158398E+03  0.18026074624E+04  0.19041448811E+04  0.00000000000E+00 0.  1.
         22    1    1    2    0    0  0.33229430492E+03  0.55453953982E+03  0.79799609000E+03  0.10270011519E+04  0.00000000000E+00 0. -1.
<mgrwt>
<rscale>  0 0.13929981E+04</rscale>
<asrwt>0</asrwt>
<pdfrwt beam="1">  1        2 0.44162692E+00 0.13929981E+04</pdfrwt>
<pdfrwt beam="2">  1       -2 0.25999131E-01 0.13929981E+04</pdfrwt>
<totfact> 0.27453162E+01</totfact>
</mgrwt>
</event>
<event>
 6    1  0.9364335E-007  0.4735913E+04  0.7818608E-02  0.7870589E-01
         -2   -1    0    0    0  501 -0.00000000000E+00  0.00000000000E+00  0.22820741730E+04  0.22820741730E+04  0.00000000000E+00 0.  1.
          2   -1    0    0  501    0  0.00000000000E+00 -0.00000000000E+00 -0.24570705590E+04  0.24570705590E+04  0.00000000000E+00 0. -1.
         23    2    1    2    0    0 -0.30033918128E+02  0.12010681667E+04 -0.21285384714E+04  0.24457207728E+04  0.86065655437E+02 0.  0.
         13    1    3    3    0    0 -0.51142414034E+02  0.10330465524E+04 -0.18602794172E+04  0.21284830833E+04  0.00000000000E+00 0. -1.
        -13    1    3    3    0    0  0.21108495907E+02  0.16802161434E+03 -0.26825905420E+03  0.31723768951E+03  0.00000000000E+00 0.  1.
         22    1    1    2    0    0  0.30033918128E+02 -0.12010681667E+04  0.19535420854E+04  0.22934239592E+04  0.00000000000E+00 0.  1.
<mgrwt>
<rscale>  0 0.47359127E+04</rscale>
<asrwt>0</asrwt>
<pdfrwt beam="1">  1        2 0.37801085E+00 0.47359127E+04</pdfrwt>
<pdfrwt beam="2">  1       -2 0.35108834E+00 0.47359127E+04</pdfrwt>
<totfact> 0.41967985E-02</totfact>
</mgrwt>
</event>
<event>
 6    1  0.9364335E-007  0.1528002E+04  0.7818608E-02  0.8866042E-01
          1   -1    0    0  501    0  0.00000000000E+00  0.00000000000E+00  0.19192199709E+04  0.19192199709E+04  0.00000000000E+00 0. -1.
         -1   -1    0    0    0  501 -0.00000000000E+00 -0.00000000000E+00 -0.30413283440E+03  0.30413283440E+03  0.00000000000E+00 0.  1.
         23    2    1    2    0    0  0.45684843540E+03  0.49834218987E+03  0.13198420354E+04  0.14856366669E+04  0.89877008228E+02 0.  0.
         13    1    3    3    0    0  0.24887074588E+03  0.27455710916E+03  0.81966306486E+03  0.89953643297E+03  0.00000000000E+00 0.  1.
        -13    1    3    3    0    0  0.20797768952E+03  0.22378508070E+03  0.50017897054E+03  0.58610023396E+03  0.00000000000E+00 0. -1.
         22    1    1    2    0    0 -0.45684843540E+03 -0.49834218987E+03  0.29524510116E+03  0.73771613842E+03  0.00000000000E+00 0.  1.
<mgrwt>
<rscale>  0 0.15280024E+04</rscale>
<asrwt>0</asrwt>
<pdfrwt beam="1">  1        1 0.29526460E+00 0.15280024E+04</pdfrwt>
<pdfrwt beam="2">  1       -1 0.46789668E-01 0.15280024E+04</pdfrwt>
<totfact> 0.14858862E+01</totfact>
</mgrwt>
</event>
<event>
 6    1  0.9364335E-007  0.2464512E+04  0.7818608E-02  0.8415738E-01
         -1   -1    0    0    0  501 -0.00000000000E+00  0.00000000000E+00  0.71477291912E+03  0.71477291912E+03  0.00000000000E+00 0.  1.
          1   -1    0    0  501    0  0.00000000000E+00 -0.00000000000E+00 -0.21243881050E+04  0.21243881050E+04  0.00000000000E+00 0. -1.
         23    2    1    2    0    0  0.96594320834E+03 -0.10508977557E+03 -0.15756711304E+04  0.18534304730E+04  0.91514285903E+02 0.  0.
         13    1    3    3    0    0  0.43270228104E+03 -0.29079216435E+01 -0.67650316094E+03  0.80305432368E+03  0.00000000000E+00 0.  1.
        -13    1    3    3    0    0  0.53324092730E+03 -0.10218185393E+03 -0.89916796944E+03  0.10503761493E+04  0.00000000000E+00 0. -1.
         22    1    1    2    0    0 -0.96594320834E+03  0.10508977557E+03  0.16605594450E+03  0.98573055110E+03  0.00000000000E+00 0.  1.
<mgrwt>
<rscale>  0 0.24645122E+04</rscale>
<asrwt>0</asrwt>
<pdfrwt beam="1">  1        1 0.32682894E+00 0.24645122E+04</pdfrwt>
<pdfrwt beam="2">  1       -1 0.10996507E+00 0.24645122E+04</pdfrwt>
<totfact> 0.16690891E+00</totfact>
</mgrwt>
</event>
<event>
 6    1  0.9364335E-007  0.1468726E+04  0.7818608E-02  0.8905520E-01
         -1   -1    0    0    0  501 -0.00000000000E+00  0.00000000000E+00  0.15256169973E+04  0.15256169973E+04  0.00000000000E+00 0.  1.
          1   -1    0    0  501    0  0.00000000000E+00 -0.00000000000E+00 -0.35348934370E+03  0.35348934370E+03  0.00000000000E+00 0. -1.
         23    2    1    2    0    0 -0.10717628075E+03 -0.67831915263E+02  0.15100628890E+04  0.15181518464E+04  0.91690652904E+02 0.  0.
         13    1    3    3    0    0 -0.71695250022E+02 -0.47752824486E+00  0.98407268823E+03  0.98668104909E+03  0.00000000000E+00 0. -1.
        -13    1    3    3    0    0 -0.35481030730E+02 -0.67354387018E+02  0.52599020081E+03  0.53147079726E+03  0.00000000000E+00 0.  1.
         22    1    1    2    0    0  0.10717628075E+03  0.67831915263E+02 -0.33793523542E+03  0.36095449467E+03  0.00000000000E+00 0. -1.
<mgrwt>
<rscale>  0 0.14687265E+04</rscale>
<asrwt>0</asrwt>
<pdfrwt beam="1">  1        1 0.54382977E-01 0.14687265E+04</pdfrwt>
<pdfrwt beam="2">  1       -1 0.23471030E+00 0.14687265E+04</pdfrwt>
<totfact> 0.60243871E+00</totfact>
</mgrwt>
</event>
<event>
 6    1  0.9364335E-007  0.1921100E+04  0.7818608E-02  0.8644424E-01
          2   -1    0    0  501    0  0.00000000000E+00  0.00000000000E+00  0.14171215903E+04  0.14171215903E+04  0.00000000000E+00 0. -1.
         -2   -1    0    0    0  501 -0.00000000000E+00 -0.00000000000E+00 -0.65107745265E+03  0.65107745265E+03  0.00000000000E+00 0.  1.
         23    2    1    2    0    0  0.52922630493E+03 -0.75975921996E+03  0.11783322795E+03  0.93793715398E+03  0.92341112618E+02 0.  0.
         11    1    3    3    0    0  0.33056782311E+03 -0.43644642503E+03  0.10967557038E+03  0.55838096165E+03  0.00000000000E+00 0.  1.
        -11    1    3    3    0    0  0.19865848182E+03 -0.32331279492E+03  0.81576575677E+01  0.37955619233E+03  0.00000000000E+00 0. -1.
         22    1    1    2    0    0 -0.52922630493E+03  0.75975921996E+03  0.64821090967E+03  0.11302618889E+04  0.00000000000E+00 0. -1.
<mgrwt>
<rscale>  0 0.19210996E+04</rscale>
<asrwt>0</asrwt>
<pdfrwt beam="1">  1        2 0.21801871E+00 0.19210996E+04</pdfrwt>
<pdfrwt beam="2">  1       -2 0.10016576E+00 0.19210996E+04</pdfrwt>
<totfact> 0.10885004E+01</totfact>
</mgrwt>
</event>
<event>
 6    1  0.9364335E-007  0.9634997E+03  0.7818608E-02  0.9349509E-01
         -2   -1    0    0    0  501 -0.00000000000E+00  0.00000000000E+00  0.14336131022E+03  0.14336131022E+03  0.00000000000E+00 0.  1.
          2   -1    0    0  501    0  0.00000000000E+00 -0.00000000000E+00 -0.16188671069E+04  0.16188671069E+04  0.00000000000E+00 0. -1.
         23    2    1    2    0    0 -0.45884142769E+02  0.99917072358E+02 -0.15941412011E+04  0.16004781927E+04  0.90307809772E+02 0.  0.
         11    1    3    3    0    0 -0.31691518231E+02  0.77273901665E+02 -0.57976088607E+03  0.58574592890E+03  0.00000000000E+00 0.  1.
        -11    1    3    3    0    0 -0.14192624538E+02  0.22643170693E+02 -0.10143803150E+04  0.10147322639E+04  0.00000000000E+00 0. -1.
         22    1    1    2    0    0  0.45884142769E+02 -0.99917072358E+02  0.11863540442E+03  0.16175022438E+03  0.00000000000E+00 0.  1.
<mgrwt>
<rscale>  0 0.96349968E+03</rscale>
<asrwt>0</asrwt>
<pdfrwt beam="1">  1        2 0.24905644E+00 0.96349968E+03</pdfrwt>
<pdfrwt beam="2">  1       -2 0.22055589E-01 0.96349968E+03</pdfrwt>
<totfact> 0.19568775E+02</totfact>
</mgrwt>
</event>
<event>
 6    1  0.9364335E-007  0.2781541E+04  0.7818608E-02  0.8309022E-01
          1   -1    0    0  501    0  0.00000000000E+00  0.00000000000E+00  0.17105228503E+04  0.17105228503E+04  0.00000000000E+00 0. -1.
         -1   -1    0    0    0  501 -0.00000000000E+00 -0.00000000000E+00 -0.11307901798E+04  0.11307901798E+04  0.00000000000E+00 0.  1.
         23    2    1    2    0    0  0.41233627214E+03 -0.13244706465E+04  0.21266482716E+03  0.14063975287E+04  0.92108551336E+02 0.  0.
         11    1    3    3    0    0  0.19698795547E+03 -0.78474547935E+03  0.12855263001E+03  0.81924080749E+03  0.00000000000E+00 0. -1.
        -11    1    3    3    0    0  0.21534831668E+03 -0.53972516711E+03  0.84112197143E+02  0.58715672117E+03  0.00000000000E+00 0.  1.
         22    1    1    2    0    0 -0.41233627214E+03  0.13244706465E+04  0.36706784330E+03  0.14349155014E+04  0.00000000000E+00 0. -1.
<mgrwt>
<rscale>  0 0.27815409E+04</rscale>
<asrwt>0</asrwt>
<pdfrwt beam="1">  1        1 0.26315736E+00 0.27815409E+04</pdfrwt>
<pdfrwt beam="2">  1       -1 0.17396772E+00 0.27815409E+04</pdfrwt>
<totfact> 0.93550278E-01</totfact>
</mgrwt>
</event>
<event>
 6    1  0.9364335E-007  0.1688298E+04  0.7818608E-02  0.8768067E-01
          2   -1    0    0  501    0  0.00000000000E+00  0.00000000000E+00  0.64046579970E+03  0.64046579970E+03  0.00000000000E+00 0. -1.
         -2   -1    0    0    0  501 -0.00000000000E+00 -0.00000000000E+00 -0.11126077747E+04  0.11126077747E+04  0.00000000000E+00 0.  1.
         23    2    1    2    0    0 -0.25249970047E+03  0.76492932713E+03  0.14903570971E+02  0.81175198319E+03  0.99227977580E+02 0.  0.
         13    1    3    3    0    0 -0.98179339290E+02  0.43331270402E+03  0.33154491310E+02  0.44553148309E+03  0.00000000000E+00 0. -1.
        -13    1    3    3    0    0 -0.15432036118E+03  0.33161662311E+03 -0.18250920339E+02  0.36622050010E+03  0.00000000000E+00 0.  1.
         22    1    1    2    0    0  0.25249970047E+03 -0.76492932713E+03 -0.48704554598E+03  0.94132159123E+03  0.00000000000E+00 0.  1.
<mgrwt>
<rscale>  0 0.16882976E+04</rscale>
<asrwt>0</asrwt>
<pdfrwt beam="1">  1        2 0.98533201E-01 0.16882976E+04</pdfrwt>
<pdfrwt beam="2">  1       -2 0.17117043E+00 0.16882976E+04</pdfrwt>
<totfact> 0.91115684E+00</totfact>
</mgrwt>
</event>
<event>
 6    1  0.9364335E-007  0.3330702E+04  0.7818608E-02  0.8155127E-01
          2   -1    0    0  501    0  0.00000000000E+00  0.00000000000E+00  0.31723639801E+04  0.31723639801E+04  0.00000000000E+00 0. -1.
         -2   -1    0    0    0  501 -0.00000000000E+00 -0.00000000000E+00 -0.87423553733E+03  0.87423553733E+03  0.00000000000E+00 0.  1.
         23    2    1    2    0    0 -0.14771718805E+04 -0.27013611869E+03  0.20211517600E+04  0.25196003786E+04  0.91221399218E+02 0.  0.
         13    1    3    3    0    0 -0.29725515877E+03 -0.91146660993E+02  0.40568024064E+03  0.51112112153E+03  0.00000000000E+00 0. -1.
        -13    1    3    3    0    0 -0.11799167217E+04 -0.17898945770E+03  0.16154715194E+04  0.20084792571E+04  0.00000000000E+00 0.  1.
         22    1    1    2    0    0  0.14771718805E+04  0.27013611869E+03  0.27697668276E+03  0.15269991388E+04  0.00000000000E+00 0. -1.
<mgrwt>
<rscale>  0 0.33307016E+04</rscale>
<asrwt>0</asrwt>
<pdfrwt beam="1">  1        2 0.48805599E+00 0.33307016E+04</pdfrwt>
<pdfrwt beam="2">  1       -2 0.13449778E+00 0.33307016E+04</pdfrwt>
<totfact> 0.44807214E-01</totfact>
</mgrwt>
</event>
<event>
 6    1  0.9364335E-007  0.4308319E+04  0.7818608E-02  0.7945082E-01
          2   -1    0    0  501    0  0.00000000000E+00  0.00000000000E+00  0.12463441120E+04  0.12463441120E+04  0.00000000000E+00 0. -1.
         -2   -1    0    0    0  501 -0.00000000000E+00 -0.00000000000E+00 -0.37232119298E+04  0.37232119298E+04  0.00000000000E+00 0.  1.
         23    2    1    2    0    0 -0.13138977515E+04  0.86277999314E+03  0.45834912374E+03  0.16399592026E+04  0.93089467379E+02 0.  0.
         11    1    3    3    0    0 -0.51851745277E+03  0.28672198654E+03  0.16864860373E+03  0.61604561351E+03  0.00000000000E+00 0.  1.
        -11    1    3    3    0    0 -0.79538029872E+03  0.57605800660E+03  0.28970052002E+03  0.10239135891E+04  0.00000000000E+00 0. -1.
         22    1    1    2    0    0  0.13138977515E+04 -0.86277999314E+03 -0.29352169415E+04  0.33295968392E+04  0.00000000000E+00 0.  1.
<mgrwt>
<rscale>  0 0.43083191E+04</rscale>
<asrwt>0</asrwt>
<pdfrwt beam="1">  1        2 0.19174525E+00 0.43083191E+04</pdfrwt>
<pdfrwt beam="2">  1       -2 0.57280183E+00 0.43083191E+04</pdfrwt>
<totfact> 0.90817028E-03</totfact>
</mgrwt>
</event>
<event>
 6    1  0.9364335E-007  0.1635755E+04  0.7818608E-02  0.8798879E-01
          2   -1    0    0  501    0  0.00000000000E+00  0.00000000000E+00  0.17051949575E+04  0.17051949575E+04  0.00000000000E+00 0. -1.
         -2   -1    0    0    0  501 -0.00000000000E+00 -0.00000000000E+00 -0.39228564204E+03  0.39228564204E+03  0.00000000000E+00 0.  1.
         23    2    1    2    0    0 -0.43734127169E+03 -0.14290057861E+03 -0.20451143981E+03  0.51184075650E+03  0.92022104452E+02 0.  0.
         13    1    3    3    0    0 -0.27699298859E+03 -0.56300258622E+02 -0.90125828684E+02  0.29667743400E+03  0.00000000000E+00 0. -1.
        -13    1    3    3    0    0 -0.16034828310E+03 -0.86600319991E+02 -0.11438561113E+03  0.21516332250E+03  0.00000000000E+00 0.  1.
         22    1    1    2    0    0  0.43734127169E+03  0.14290057861E+03  0.15174207552E+04  0.15856398430E+04  0.00000000000E+00 0. -1.
<mgrwt>
<rscale>  0 0.16357549E+04</rscale>
<asrwt>0</asrwt>
<pdfrwt beam="1">  1        2 0.26233768E+00 0.16357549E+04</pdfrwt>
<pdfrwt beam="2">  1       -2 0.60351638E-01 0.16357549E+04</pdfrwt>
<totfact> 0.23828797E+01</totfact>
</mgrwt>
</event>
<event>
 6    1  0.9364335E-007  0.1135468E+04  0.7818608E-02  0.9171296E-01
         -1   -1    0    0    0  501 -0.00000000000E+00  0.00000000000E+00  0.32279316866E+03  0.32279316866E+03  0.00000000000E+00 0.  1.
          1   -1    0    0  501    0  0.00000000000E+00 -0.00000000000E+00 -0.99853962628E+03  0.99853962628E+03  0.00000000000E+00 0. -1.
         23    2    1    2    0    0  0.40439473034E+03 -0.11030981365E+03 -0.77924509972E+03  0.88957438815E+03  0.91740469287E+02 0.  0.
         11    1    3    3    0    0  0.33488044412E+03 -0.56186697312E+02 -0.58778553492E+03  0.67881786354E+03  0.00000000000E+00 0.  1.
        -11    1    3    3    0    0  0.69514286223E+02 -0.54123116335E+02 -0.19145956481E+03  0.21075652461E+03  0.00000000000E+00 0. -1.
         22    1    1    2    0    0 -0.40439473034E+03  0.11030981365E+03  0.10349864210E+03  0.43175840679E+03  0.00000000000E+00 0.  1.
<mgrwt>
<rscale>  0 0.11354678E+04</rscale>
<asrwt>0</asrwt>
<pdfrwt beam="1">  1        1 0.15362148E+00 0.11354678E+04</pdfrwt>
<pdfrwt beam="2">  1       -1 0.49660488E-01 0.11354678E+04</pdfrwt>
<totfact> 0.61307874E+01</totfact>
</mgrwt>
</event>
<event>
 6    1  0.9364335E-007  0.4251953E+04  0.7818608E-02  0.7955563E-01
         -1   -1    0    0    0  501 -0.00000000000E+00  0.00000000000E+00  0.13951935357E+04  0.13951935357E+04  0.00000000000E+00 0.  1.
          1   -1    0    0  501    0  0.00000000000E+00 -0.00000000000E+00 -0.32395334634E+04  0.32395334634E+04  0.00000000000E+00 0. -1.
         23    2    1    2    0    0 -0.13520427070E+04 -0.11984612675E+04  0.29683947639E+03  0.18331242201E+04  0.88892294657E+02 0.  0.
         13    1    3    3    0    0 -0.72395937778E+03 -0.63989093468E+03  0.20363009647E+03  0.98744255790E+03  0.00000000000E+00 0. -1.
        -13    1    3    3    0    0 -0.62808332925E+03 -0.55857033286E+03  0.93209379921E+02  0.84568166217E+03  0.00000000000E+00 0.  1.
         22    1    1    2    0    0  0.13520427070E+04  0.11984612675E+04 -0.21411794040E+04  0.28016027791E+04  0.00000000000E+00 0. -1.
<mgrwt>
<rscale>  0 0.42519530E+04</rscale>
<asrwt>0</asrwt>
<pdfrwt beam="1">  1        1 0.49838976E+00 0.42519530E+04</pdfrwt>
<pdfrwt beam="2">  1       -1 0.21464516E+00 0.42519530E+04</pdfrwt>
<totfact> 0.36359617E-02</totfact>
</mgrwt>
</event>
<event>
 6    1  0.9364335E-007  0.2283817E+04  0.7818608E-02  0.8484329E-01
         -2   -1    0    0    0  501 -0.00000000000E+00  0.00000000000E+00  0.55518893944E+03  0.55518893944E+03  0.00000000000E+00 0.  1.
          2   -1    0    0  501    0  0.00000000000E+00 -0.00000000000E+00 -0.23486683050E+04  0.23486683050E+04  0.00000000000E+00 0. -1.
         23    2    1    2    0    0 -0.98967548821E+03 -0.21408584782E+03 -0.23132789730E+03  0.10422430170E+04  0.86415207669E+02 0.  0.
         13    1    3    3    0    0 -0.49363126933E+03 -0.12902747016E+03 -0.78158407560E+02  0.51616727404E+03  0.00000000000E+00 0.  1.
        -13    1    3    3    0    0 -0.49604421888E+03 -0.85058377651E+02 -0.15316948974E+03  0.52607574291E+03  0.00000000000E+00 0. -1.
         22    1    1    2    0    0  0.98967548821E+03  0.21408584782E+03 -0.15621514683E+04  0.18616142275E+04  0.00000000000E+00 0.  1.
<mgrwt>
<rscale>  0 0.22838167E+04</rscale>
<asrwt>0</asrwt>
<pdfrwt beam="1">  1        2 0.36133359E+00 0.22838167E+04</pdfrwt>
<pdfrwt beam="2">  1       -2 0.85413682E-01 0.22838167E+04</pdfrwt>
<totfact> 0.46009034E+00</totfact>
</mgrwt>
</event>
<event>
 6    1  0.9364335E-007  0.2722225E+04  0.7818608E-02  0.8327830E-01
         -1   -1    0    0    0  501 -0.00000000000E+00  0.00000000000E+00  0.10325729940E+04  0.10325729940E+04  0.00000000000E+00 0.  1.
          1   -1    0    0  501    0  0.00000000000E+00 -0.00000000000E+00 -0.17941855111E+04  0.17941855111E+04  0.00000000000E+00 0. -1.
         23    2    1    2    0    0 -0.35580429189E+01  0.44355572345E+03  0.95326665790E+03  0.10554412201E+04  0.92111391827E+02 0.  0.
         11    1    3    3    0    0  0.43234883631E+02  0.22596937151E+03  0.46225520531E+03  0.51634415545E+03  0.00000000000E+00 0.  1.
        -11    1    3    3    0    0 -0.46792926550E+02  0.21758635194E+03  0.49101145259E+03  0.53909706464E+03  0.00000000000E+00 0. -1.
         22    1    1    2    0    0  0.35580429189E+01 -0.44355572345E+03 -0.17148791750E+04  0.17713172851E+04  0.00000000000E+00 0. -1.
<mgrwt>
<rscale>  0 0.27222252E+04</rscale>
<asrwt>0</asrwt>
<pdfrwt beam="1">  1        1 0.27602854E+00 0.27222252E+04</pdfrwt>
<pdfrwt beam="2">  1       -1 0.15885739E+00 0.27222252E+04</pdfrwt>
<totfact> 0.10682208E+00</totfact>
</mgrwt>
</event>
<event>
 6    1  0.9364335E-007  0.4098241E+04  0.7818608E-02  0.7985016E-01
         -1   -1    0    0    0  501 -0.00000000000E+00  0.00000000000E+00  0.12106864119E+04  0.12106864119E+04  0.00000000000E+00 0.  1.
          1   -1    0    0  501    0  0.00000000000E+00 -0.00000000000E+00 -0.34681936072E+04  0.34681936072E+04  0.00000000000E+00 0. -1.
         23    2    1    2    0    0  0.14921533360E+04  0.13469398716E+04 -0.15773031060E+04  0.25567475541E+04  0.91128323343E+02 0.  0.
         11    1    3    3    0    0  0.12151171432E+04  0.11292155741E+04 -0.12686913636E+04  0.20883522837E+04  0.00000000000E+00 0.  1.
        -11    1    3    3    0    0  0.27703619280E+03  0.21772429752E+03 -0.30861174234E+03  0.46839527043E+03  0.00000000000E+00 0. -1.
         22    1    1    2    0    0 -0.14921533360E+04 -0.13469398716E+04 -0.68020408933E+03  0.21221324650E+04  0.00000000000E+00 0.  1.
<mgrwt>
<rscale>  0 0.40982410E+04</rscale>
<asrwt>0</asrwt>
<pdfrwt beam="1">  1        1 0.53356825E+00 0.40982410E+04</pdfrwt>
<pdfrwt beam="2">  1       -1 0.18625945E+00 0.40982410E+04</pdfrwt>
<totfact> 0.38534986E-02</totfact>
</mgrwt>
</event>
<event>
 6    1  0.9364335E-007  0.2090643E+04  0.7818608E-02  0.8565376E-01
         -1   -1    0    0    0  501 -0.00000000000E+00  0.00000000000E+00  0.14467038670E+04  0.14467038670E+04  0.00000000000E+00 0.  1.
          1   -1    0    0  501    0  0.00000000000E+00 -0.00000000000E+00 -0.75530123956E+03  0.75530123956E+03  0.00000000000E+00 0. -1.
         23    2    1    2    0    0 -0.55968869789E+03 -0.59453596148E+03 -0.33780585735E+03  0.88823398753E+03  0.90124199378E+02 0.  0.
         13    1    3    3    0    0 -0.15754464099E+03 -0.21050140109E+03 -0.14117833743E+03  0.29843337066E+03  0.00000000000E+00 0.  1.
        -13    1    3    3    0    0 -0.40214405689E+03 -0.38403456039E+03 -0.19662751992E+03  0.58980061687E+03  0.00000000000E+00 0. -1.
         22    1    1    2    0    0  0.55968869789E+03  0.59453596148E+03  0.10292084848E+04  0.13137711190E+04  0.00000000000E+00 0.  1.
<mgrwt>
<rscale>  0 0.20906432E+04</rscale>
<asrwt>0</asrwt>
<pdfrwt beam="1">  1        1 0.11620019E+00 0.20906432E+04</pdfrwt>
<pdfrwt beam="2">  1       -1 0.22256983E+00 0.20906432E+04</pdfrwt>
<totfact> 0.23581462E+00</totfact>
</mgrwt>
</event>
<event>
 6    1  0.9364335E-007  0.2029765E+04  0.7818608E-02  0.8592830E-01
          1   -1    0    0  501    0  0.00000000000E+00  0.00000000000E+00  0.66446146173E+03  0.66446146173E+03  0.00000000000E+00 0. -1.
         -1   -1    0    0    0  501 -0.00000000000E+00 -0.00000000000E+00 -0.15501076396E+04  0.15501076396E+04  0.00000000000E+00 0.  1.
         23    2    1    2    0    0 -0.78101930989E+02 -0.85960010198E+02 -0.15415643898E+04  0.15484476892E+04  0.88206820455E+02 0.  0.
         13    1    3    3    0    0 -0.40373758978E+02 -0.78947148305E+02 -0.64549419436E+03  0.65155617379E+03  0.00000000000E+00 0. -1.
        -13    1    3    3    0    0 -0.37728172011E+02 -0.70128618925E+01 -0.89607019547E+03  0.89689151541E+03  0.00000000000E+00 0.  1.
         22    1    1    2    0    0  0.78101930989E+02  0.85960010198E+02  0.65591821194E+03  0.66612141216E+03  0.00000000000E+00 0. -1.
<mgrwt>
<rscale>  0 0.20297653E+04</rscale>
<asrwt>0</asrwt>
<pdfrwt beam="1">  1        1 0.10222484E+00 0.20297653E+04</pdfrwt>
<pdfrwt beam="2">  1       -1 0.23847810E+00 0.20297653E+04</pdfrwt>
<totfact> 0.22623719E+00</totfact>
</mgrwt>
</event>
<event>
 6    1  0.9364335E-007  0.1994148E+04  0.7818608E-02  0.8609362E-01
          2   -1    0    0  501    0  0.00000000000E+00  0.00000000000E+00  0.25102667687E+04  0.25102667687E+04  0.00000000000E+00 0. -1.
         -2   -1    0    0    0  501 -0.00000000000E+00 -0.00000000000E+00 -0.39603617787E+03  0.39603617787E+03  0.00000000000E+00 0.  1.
         23    2    1    2    0    0 -0.88287384112E+03 -0.21827525153E+03  0.47117450325E+03  0.10283403240E+04  0.91477345329E+02 0.  0.
         13    1    3    3    0    0 -0.50165673117E+03 -0.10468892545E+03  0.31150070573E+03  0.59970987712E+03  0.00000000000E+00 0.  1.
        -13    1    3    3    0    0 -0.38121710995E+03 -0.11358632608E+03  0.15967379752E+03  0.42863044689E+03  0.00000000000E+00 0. -1.
         22    1    1    2    0    0  0.88287384112E+03  0.21827525153E+03  0.16430560876E+04  0.18779626225E+04  0.00000000000E+00 0. -1.
<mgrwt>
<rscale>  0 0.19941479E+04</rscale>
<asrwt>0</asrwt>
<pdfrwt beam="1">  1        2 0.38619488E+00 0.19941479E+04</pdfrwt>
<pdfrwt beam="2">  1       -2 0.60928644E-01 0.19941479E+04</pdfrwt>
<totfact> 0.80059317E+00</totfact>
</mgrwt>
</event>
<event>
 6    1  0.9364335E-007  0.1760539E+04  0.7818608E-02  0.8727571E-01
          2   -1    0    0  501    0  0.00000000000E+00  0.00000000000E+00  0.76152459775E+03  0.76152459775E+03  0.00000000000E+00 0. -1.
         -2   -1    0    0    0  501 -0.00000000000E+00 -0.00000000000E+00 -0.10175302338E+04  0.10175302338E+04  0.00000000000E+00 0.  1.
         23    2    1    2    0    0 -0.34178495377E+03 -0.39800699600E+03  0.58258901577E+03  0.78987966326E+03  0.96298482072E+02 0.  0.
         13    1    3    3    0    0 -0.30492164585E+03 -0.39099278879E+03  0.53960443273E+03  0.73282024728E+03  0.00000000000E+00 0. -1.
        -13    1    3    3    0    0 -0.36863307919E+02 -0.70142072086E+01  0.42984583032E+02  0.57059415980E+02  0.00000000000E+00 0.  1.
         22    1    1    2    0    0  0.34178495377E+03  0.39800699600E+03 -0.83859465181E+03  0.98917516828E+03  0.00000000000E+00 0.  1.
<mgrwt>
<rscale>  0 0.17605389E+04</rscale>
<asrwt>0</asrwt>
<pdfrwt beam="1">  1        2 0.11715763E+00 0.17605389E+04</pdfrwt>
<pdfrwt beam="2">  1       -2 0.15654311E+00 0.17605389E+04</pdfrwt>
<totfact> 0.93006494E+00</totfact>
</mgrwt>
</event>
<event>
 6    1  0.9364335E-007  0.5568838E+03  0.7818608E-02  0.9999130E-01
          2   -1    0    0  501    0  0.00000000000E+00  0.00000000000E+00  0.78080353685E+03  0.78080353685E+03  0.00000000000E+00 0. -1.
         -2   -1    0    0    0  501 -0.00000000000E+00 -0.00000000000E+00 -0.99295021832E+02  0.99295021832E+02  0.00000000000E+00 0.  1.
         23    2    1    2    0    0  0.20953231442E+03 -0.78131472667E+02  0.59164090327E+03  0.63909128608E+03  0.91599103235E+02 0.  0.
         13    1    3    3    0    0  0.90395419179E+02 -0.73407716370E+01  0.14122593475E+03  0.16783915926E+03  0.00000000000E+00 0. -1.
        -13    1    3    3    0    0  0.11913689524E+03 -0.70790701030E+02  0.45041496852E+03  0.47125212682E+03  0.00000000000E+00 0.  1.
         22    1    1    2    0    0 -0.20953231442E+03  0.78131472667E+02  0.89867611748E+02  0.24100727260E+03  0.00000000000E+00 0.  1.
<mgrwt>
<rscale>  0 0.55688385E+03</rscale>
<asrwt>0</asrwt>
<pdfrwt beam="1">  1        2 0.12012362E+00 0.55688385E+03</pdfrwt>
<pdfrwt beam="2">  1       -2 0.15276158E-01 0.55688385E+03</pdfrwt>
<totfact> 0.12135863E+03</totfact>
</mgrwt>
</event>
<event>
 6    1  0.9364335E-007  0.1562732E+04  0.7818608E-02  0.8843776E-01
          1   -1    0    0  501    0  0.00000000000E+00  0.00000000000E+00  0.16135220385E+04  0.16135220385E+04  0.00000000000E+00 0. -1.
         -1   -1    0    0    0  501 -0.00000000000E+00 -0.00000000000E+00 -0.37838525525E+03  0.37838525525E+03  0.00000000000E+00 0.  1.
         23    2    1    2    0    0 -0.59030385461E+03  0.11849056039E+03 -0.99559695653E+01  0.60888357133E+03  0.90229864475E+02 0.  0.
         13    1    3    3    0    0 -0.30884194520E+03  0.71407221987E+02  0.38870564280E+02  0.31936383520E+03  0.00000000000E+00 0.  1.
        -13    1    3    3    0    0 -0.28146190941E+03  0.47083338401E+02 -0.48826533846E+02  0.28951973613E+03  0.00000000000E+00 0. -1.
         22    1    1    2    0    0  0.59030385461E+03 -0.11849056039E+03  0.12450927528E+04  0.13830237224E+04  0.00000000000E+00 0. -1.
<mgrwt>
<rscale>  0 0.15627322E+04</rscale>
<asrwt>0</asrwt>
<pdfrwt beam="1">  1        1 0.24823416E+00 0.15627322E+04</pdfrwt>
<pdfrwt beam="2">  1       -1 0.58213117E-01 0.15627322E+04</pdfrwt>
<totfact> 0.15717441E+01</totfact>
</mgrwt>
</event>
<event>
 6    1  0.1219974E-006  0.3488807E+04  0.7818608E-02  0.8116448E-01
          1   -1    0    0  501    0  0.00000000000E+00  0.00000000000E+00  0.24330177343E+04  0.24330177343E+04  0.00000000000E+00 0. -1.
         -1   -1    0    0    0  501 -0.00000000000E+00 -0.00000000000E+00 -0.12506868174E+04  0.12506868174E+04  0.00000000000E+00 0.  1.
         23    2    1    2    0    0 -0.52638350145E+03  0.55206859000E+03  0.22466127222E+04  0.23742943487E+04  0.90253043193E+02 0.  0.
         11    1    3    3    0    0 -0.34508593647E+03  0.39676836822E+03  0.14354149938E+04  0.15287006398E+04  0.00000000000E+00 0. -1.
        -11    1    3    3    0    0 -0.18129756498E+03  0.15530022178E+03  0.81119772844E+03  0.84559370892E+03  0.00000000000E+00 0.  1.
         22    1    1    2    0    0  0.52638350145E+03 -0.55206859000E+03 -0.10642818053E+04  0.13094102030E+04  0.00000000000E+00 0.  1.
<mgrwt>
<rscale>  0 0.34888068E+04</rscale>
<asrwt>0</asrwt>
<pdfrwt beam="1">  1        1 0.37431042E+00 0.34888068E+04</pdfrwt>
<pdfrwt beam="2">  1       -1 0.19241336E+00 0.34888068E+04</pdfrwt>
<totfact> 0.20918336E-01</totfact>
</mgrwt>
</event>
<event>
 6    1  0.9364335E-007  0.8208444E+03  0.7818608E-02  0.9530326E-01
         -2   -1    0    0    0  501 -0.00000000000E+00  0.00000000000E+00  0.10071367390E+03  0.10071367390E+03  0.00000000000E+00 0.  1.
          2   -1    0    0  501    0  0.00000000000E+00 -0.00000000000E+00 -0.16725272362E+04  0.16725272362E+04  0.00000000000E+00 0. -1.
         23    2    1    2    0    0  0.88013138554E+02  0.30389142509E+03 -0.13431356913E+04  0.13828694466E+04  0.90653794304E+02 0.  0.
         11    1    3    3    0    0  0.28493121809E+02  0.12542142380E+03 -0.73930570656E+03  0.75041010074E+03  0.00000000000E+00 0.  1.
        -11    1    3    3    0    0  0.59520016745E+02  0.17847000129E+03 -0.60382998471E+03  0.63245934588E+03  0.00000000000E+00 0. -1.
         22    1    1    2    0    0 -0.88013138554E+02 -0.30389142509E+03 -0.22867787101E+03  0.39037146347E+03  0.00000000000E+00 0.  1.
<mgrwt>
<rscale>  0 0.82084435E+03</rscale>
<asrwt>0</asrwt>
<pdfrwt beam="1">  1        2 0.25731189E+00 0.82084435E+03</pdfrwt>
<pdfrwt beam="2">  1       -2 0.15494411E-01 0.82084435E+03</pdfrwt>
<totfact> 0.34070175E+02</totfact>
</mgrwt>
</event>
<event>
 6    1  0.9364335E-007  0.1411250E+04  0.7818608E-02  0.8945715E-01
         -2   -1    0    0    0  501 -0.00000000000E+00  0.00000000000E+00  0.38861170089E+03  0.38861170089E+03  0.00000000000E+00 0.  1.
          2   -1    0    0  501    0  0.00000000000E+00 -0.00000000000E+00 -0.12812443889E+04  0.12812443889E+04  0.00000000000E+00 0. -1.
         23    2    1    2    0    0  0.27094510080E+03 -0.43838912853E+03 -0.10133543532E+04  0.11405452207E+04  0.91433471006E+02 0.  0.
         11    1    3    3    0    0  0.30785840351E+02 -0.61162965470E+02 -0.78017753186E+02  0.10380484634E+03  0.00000000000E+00 0.  1.
        -11    1    3    3    0    0  0.24015926045E+03 -0.37722616306E+03 -0.93533660003E+03  0.10367403744E+04  0.00000000000E+00 0. -1.
         22    1    1    2    0    0 -0.27094510080E+03  0.43838912853E+03  0.12072166523E+03  0.52931086907E+03  0.00000000000E+00 0.  1.
<mgrwt>
<rscale>  0 0.14112499E+04</rscale>
<asrwt>0</asrwt>
<pdfrwt beam="1">  1        2 0.19711452E+00 0.14112499E+04</pdfrwt>
<pdfrwt beam="2">  1       -2 0.59786416E-01 0.14112499E+04</pdfrwt>
<totfact> 0.43025353E+01</totfact>
</mgrwt>
</event>
<event>
 6    1  0.9364335E-007  0.3161729E+04  0.7818608E-02  0.8198998E-01
         -2   -1    0    0    0  501 -0.00000000000E+00  0.00000000000E+00  0.89330590905E+03  0.89330590905E+03  0.00000000000E+00 0.  1.
          2   -1    0    0  501    0  0.00000000000E+00 -0.00000000000E+00 -0.27976223268E+04  0.27976223268E+04  0.00000000000E+00 0. -1.
         23    2    1    2    0    0  0.10334946697E+04  0.77162140485E+03 -0.20174422794E+04  0.23962049893E+04  0.90632087897E+02 0.  0.
         13    1    3    3    0    0  0.43297492483E+03  0.31571087586E+03 -0.75694561538E+03  0.92741970397E+03  0.00000000000E+00 0. -1.
        -13    1    3    3    0    0  0.60051974485E+03  0.45591052899E+03 -0.12604966640E+04  0.14687852853E+04  0.00000000000E+00 0.  1.
         22    1    1    2    0    0 -0.10334946697E+04 -0.77162140485E+03  0.11312586160E+03  0.12947232466E+04  0.00000000000E+00 0.  1.
<mgrwt>
<rscale>  0 0.31617290E+04</rscale>
<asrwt>0</asrwt>
<pdfrwt beam="1">  1        2 0.43040344E+00 0.31617290E+04</pdfrwt>
<pdfrwt beam="2">  1       -2 0.13743168E+00 0.31617290E+04</pdfrwt>
<totfact> 0.73817387E-01</totfact>
</mgrwt>
</event>
<event>
 6    1  0.9364335E-007  0.1901353E+04  0.7818608E-02  0.8654183E-01
          2   -1    0    0  501    0  0.00000000000E+00  0.00000000000E+00  0.35309333852E+04  0.35309333852E+04  0.00000000000E+00 0. -1.
         -2   -1    0    0    0  501 -0.00000000000E+00 -0.00000000000E+00 -0.25596234030E+03  0.25596234030E+03  0.00000000000E+00 0.  1.
         23    2    1    2    0    0  0.64066545959E+03 -0.55850061505E+03  0.24799416781E+04  0.26230886701E+04  0.90045967285E+02 0.  0.
         13    1    3    3    0    0  0.28331274465E+03 -0.29919178401E+03  0.11303326761E+04  0.12030934268E+04  0.00000000000E+00 0.  1.
        -13    1    3    3    0    0  0.35735271493E+03 -0.25930883105E+03  0.13496090020E+04  0.14199952433E+04  0.00000000000E+00 0. -1.
         22    1    1    2    0    0 -0.64066545959E+03  0.55850061505E+03  0.79502936678E+03  0.11638070554E+04  0.00000000000E+00 0.  1.
<mgrwt>
<rscale>  0 0.19013532E+04</rscale>
<asrwt>0</asrwt>
<pdfrwt beam="1">  1        2 0.54322049E+00 0.19013532E+04</pdfrwt>
<pdfrwt beam="2">  1       -2 0.39378824E-01 0.19013532E+04</pdfrwt>
<totfact> 0.44474321E+00</totfact>
</mgrwt>
</event>
<event>
 6    1  0.9364335E-007  0.3087608E+04  0.7818608E-02  0.8219147E-01
          2   -1    0    0  501    0  0.00000000000E+00  0.00000000000E+00  0.23774765188E+04  0.23774765188E+04  0.00000000000E+00 0. -1.
         -2   -1    0    0    0  501 -0.00000000000E+00 -0.00000000000E+00 -0.10024621389E+04  0.10024621389E+04  0.00000000000E+00 0.  1.
         23    2    1    2    0    0 -0.64348322060E+03 -0.11883718718E+04 -0.12581618305E+03  0.13603370288E+04  0.91590169822E+02 0.  0.
         11    1    3    3    0    0 -0.56163021206E+03 -0.10820829698E+04 -0.96117718981E+02  0.12229352658E+04  0.00000000000E+00 0.  1.
        -11    1    3    3    0    0 -0.81853008538E+02 -0.10628890206E+03 -0.29698464070E+02  0.13740176300E+03  0.00000000000E+00 0. -1.
         22    1    1    2    0    0  0.64348322060E+03  0.11883718718E+04  0.15008305629E+04  0.20196016289E+04  0.00000000000E+00 0. -1.
<mgrwt>
<rscale>  0 0.30876076E+04</rscale>
<asrwt>0</asrwt>
<pdfrwt beam="1">  1        2 0.36576562E+00 0.30876076E+04</pdfrwt>
<pdfrwt beam="2">  1       -2 0.15422495E+00 0.30876076E+04</pdfrwt>
<totfact> 0.96831187E-01</totfact>
</mgrwt>
</event>
<event>
 6    1  0.9364335E-007  0.1101963E+04  0.7818608E-02  0.9203281E-01
         -2   -1    0    0    0  501 -0.00000000000E+00  0.00000000000E+00  0.46287978964E+03  0.46287978964E+03  0.00000000000E+00 0.  1.
          2   -1    0    0  501    0  0.00000000000E+00 -0.00000000000E+00 -0.65585171932E+03  0.65585171932E+03  0.00000000000E+00 0. -1.
         23    2    1    2    0    0  0.21812567263E+03  0.45028928227E+03 -0.32404683456E+03  0.60150827140E+03  0.80415189950E+02 0.  0.
         13    1    3    3    0    0  0.72791154020E+01  0.74155630191E+02 -0.61956077283E+02  0.96905100600E+02  0.00000000000E+00 0.  1.
        -13    1    3    3    0    0  0.21084655723E+03  0.37613365208E+03 -0.26209075728E+03  0.50460317079E+03  0.00000000000E+00 0. -1.
         22    1    1    2    0    0 -0.21812567263E+03 -0.45028928227E+03  0.13107490488E+03  0.51722323757E+03  0.00000000000E+00 0. -1.
<mgrwt>
<rscale>  0 0.11019628E+04</rscale>
<asrwt>0</asrwt>
<pdfrwt beam="1">  1        2 0.10090026E+00 0.11019628E+04</pdfrwt>
<pdfrwt beam="2">  1       -2 0.71212276E-01 0.11019628E+04</pdfrwt>
<totfact> 0.79078046E+01</totfact>
</mgrwt>
</event>
<event>
 6    1  0.9364335E-007  0.4067478E+04  0.7818608E-02  0.7991071E-01
          2   -1    0    0  501    0  0.00000000000E+00  0.00000000000E+00  0.23510282655E+04  0.23510282655E+04  0.00000000000E+00 0. -1.
         -2   -1    0    0    0  501 -0.00000000000E+00 -0.00000000000E+00 -0.17592700140E+04  0.17592700140E+04  0.00000000000E+00 0.  1.
         23    2    1    2    0    0 -0.17509817516E+03  0.19755176682E+04 -0.15423913605E+03  0.19913736629E+04  0.91923476826E+02 0.  0.
         13    1    3    3    0    0 -0.26353491412E+02  0.26566105338E+03  0.10499719278E+02  0.26717137926E+03  0.00000000000E+00 0.  1.
        -13    1    3    3    0    0 -0.14874468374E+03  0.17098566149E+04 -0.16473885532E+03  0.17242022836E+04  0.00000000000E+00 0. -1.
         22    1    1    2    0    0  0.17509817516E+03 -0.19755176682E+04  0.74599738754E+03  0.21189246166E+04  0.00000000000E+00 0.  1.
<mgrwt>
<rscale>  0 0.40674776E+04</rscale>
<asrwt>0</asrwt>
<pdfrwt beam="1">  1        2 0.36169666E+00 0.40674776E+04</pdfrwt>
<pdfrwt beam="2">  1       -2 0.27065693E+00 0.40674776E+04</pdfrwt>
<totfact> 0.15977524E-01</totfact>
</mgrwt>
</event>
<event>
 6    1  0.9364335E-007  0.3130842E+04  0.7818608E-02  0.8207324E-01
         -2   -1    0    0    0  501 -0.00000000000E+00  0.00000000000E+00  0.10489096747E+04  0.10489096747E+04  0.00000000000E+00 0.  1.
          2   -1    0    0  501    0  0.00000000000E+00 -0.00000000000E+00 -0.23362762682E+04  0.23362762682E+04  0.00000000000E+00 0. -1.
         23    2    1    2    0    0  0.11207495092E+04  0.10617946230E+04 -0.91571252929E+03  0.17972268669E+04  0.89485702266E+02 0.  0.
         11    1    3    3    0    0  0.99462824488E+03  0.90980470302E+03 -0.77699454120E+03  0.15558761070E+04  0.00000000000E+00 0. -1.
        -11    1    3    3    0    0  0.12612126429E+03  0.15198992003E+03 -0.13871798809E+03  0.24135075992E+03  0.00000000000E+00 0.  1.
         22    1    1    2    0    0 -0.11207495092E+04 -0.10617946230E+04 -0.37165406416E+03  0.15879590761E+04  0.00000000000E+00 0.  1.
<mgrwt>
<rscale>  0 0.31308419E+04</rscale>
<asrwt>0</asrwt>
<pdfrwt beam="1">  1        2 0.35942712E+00 0.31308419E+04</pdfrwt>
<pdfrwt beam="2">  1       -2 0.16137072E+00 0.31308419E+04</pdfrwt>
<totfact> 0.90093149E-01</totfact>
</mgrwt>
</event>
<event>
 6    1  0.9364335E-007  0.2529340E+04  0.7818608E-02  0.8392607E-01
         -2   -1    0    0    0  501 -0.00000000000E+00  0.00000000000E+00  0.80842363170E+03  0.80842363170E+03  0.00000000000E+00 0.  1.
          2   -1    0    0  501    0  0.00000000000E+00 -0.00000000000E+00 -0.19784064469E+04  0.19784064469E+04  0.00000000000E+00 0. -1.
         23    2    1    2    0    0  0.18393199777E+02  0.22818441311E+03 -0.19543127795E+04  0.19697744324E+04  0.90919955544E+02 0.  0.
         13    1    3    3    0    0  0.29830147621E+01  0.10003482372E+03 -0.51142775359E+03  0.52112782642E+03  0.00000000000E+00 0.  1.
        -13    1    3    3    0    0  0.15410185015E+02  0.12814958939E+03 -0.14428850259E+04  0.14486466060E+04  0.00000000000E+00 0. -1.
         22    1    1    2    0    0 -0.18393199777E+02 -0.22818441311E+03  0.78432996426E+03  0.81705564622E+03  0.00000000000E+00 0.  1.
<mgrwt>
<rscale>  0 0.25293402E+04</rscale>
<asrwt>0</asrwt>
<pdfrwt beam="1">  1        2 0.30437022E+00 0.25293402E+04</pdfrwt>
<pdfrwt beam="2">  1       -2 0.12437287E+00 0.25293402E+04</pdfrwt>
<totfact> 0.29675218E+00</totfact>
</mgrwt>
</event>
<event>
 6    1  0.9364335E-007  0.1145302E+04  0.7818608E-02  0.9162128E-01
         -1   -1    0    0    0  501 -0.00000000000E+00  0.00000000000E+00  0.19964335346E+03  0.19964335346E+03  0.00000000000E+00 0.  1.
          1   -1    0    0  501    0  0.00000000000E+00 -0.00000000000E+00 -0.16425760033E+04  0.16425760033E+04  0.00000000000E+00 0. -1.
         23    2    1    2    0    0 -0.44327314309E+03  0.34845925992E+03 -0.85052367535E+03  0.10243787071E+04  0.89701047869E+02 0.  0.
         11    1    3    3    0    0 -0.12524938556E+03  0.12413343599E+03 -0.20296934662E+03  0.26887371419E+03  0.00000000000E+00 0. -1.
        -11    1    3    3    0    0 -0.31802375753E+03  0.22432582393E+03 -0.64755432872E+03  0.75550499289E+03  0.00000000000E+00 0.  1.
         22    1    1    2    0    0  0.44327314309E+03 -0.34845925992E+03 -0.59240897447E+03  0.81784064967E+03  0.00000000000E+00 0. -1.
<mgrwt>
<rscale>  0 0.11453024E+04</rscale>
<asrwt>0</asrwt>
<pdfrwt beam="1">  1        1 0.25270399E+00 0.11453024E+04</pdfrwt>
<pdfrwt beam="2">  1       -1 0.30714364E-01 0.11453024E+04</pdfrwt>
<totfact> 0.50752848E+01</totfact>
</mgrwt>
</event>
<event>
 6    1  0.9364335E-007  0.3621376E+04  0.7818608E-02  0.8085613E-01
         -2   -1    0    0    0  501 -0.00000000000E+00  0.00000000000E+00  0.11268031476E+04  0.11268031476E+04  0.00000000000E+00 0.  1.
          2   -1    0    0  501    0  0.00000000000E+00 -0.00000000000E+00 -0.29096387864E+04  0.29096387864E+04  0.00000000000E+00 0. -1.
         23    2    1    2    0    0 -0.13508692117E+04 -0.18562410197E+03  0.43387259842E+03  0.14339240487E+04  0.92675841406E+02 0.  0.
         11    1    3    3    0    0 -0.44715649743E+03 -0.56005297859E+02  0.18912056806E+03  0.48872498999E+03  0.00000000000E+00 0.  1.
        -11    1    3    3    0    0 -0.90371271424E+03 -0.12961880411E+03  0.24475203036E+03  0.94519905873E+03  0.00000000000E+00 0. -1.
         22    1    1    2    0    0  0.13508692117E+04  0.18562410197E+03 -0.22167082372E+04  0.26025178852E+04  0.00000000000E+00 0. -1.
<mgrwt>
<rscale>  0 0.36213755E+04</rscale>
<asrwt>0</asrwt>
<pdfrwt beam="1">  1        2 0.44763673E+00 0.36213755E+04</pdfrwt>
<pdfrwt beam="2">  1       -2 0.17335433E+00 0.36213755E+04</pdfrwt>
<totfact> 0.32519104E-01</totfact>
</mgrwt>
</event>
<event>
 6    1  0.9364335E-007  0.1887148E+04  0.7818608E-02  0.8661280E-01
          2   -1    0    0  501    0  0.00000000000E+00  0.00000000000E+00  0.20459142359E+04  0.20459142359E+04  0.00000000000E+00 0. -1.
         -2   -1    0    0    0  501 -0.00000000000E+00 -0.00000000000E+00 -0.43517558209E+03  0.43517558209E+03  0.00000000000E+00 0.  1.
         23    2    1    2    0    0 -0.44513729887E+02 -0.48326032021E+03 -0.25319114755E+03  0.55501704843E+03  0.91739618550E+02 0.  0.
         13    1    3    3    0    0 -0.55783087628E+01 -0.16842074407E+02 -0.33658986483E+02  0.38048657927E+02  0.00000000000E+00 0. -1.
        -13    1    3    3    0    0 -0.38935421125E+02 -0.46641824580E+03 -0.21953216107E+03  0.51696839050E+03  0.00000000000E+00 0.  1.
         22    1    1    2    0    0  0.44513729887E+02  0.48326032021E+03  0.18639298014E+04  0.19260727696E+04  0.00000000000E+00 0. -1.
<mgrwt>
<rscale>  0 0.18871480E+04</rscale>
<asrwt>0</asrwt>
<pdfrwt beam="1">  1        2 0.31475603E+00 0.18871480E+04</pdfrwt>
<pdfrwt beam="2">  1       -2 0.66950091E-01 0.18871480E+04</pdfrwt>
<totfact> 0.12095160E+01</totfact>
</mgrwt>
</event>
<event>
 6    1  0.9364335E-007  0.4750615E+04  0.7818608E-02  0.7868173E-01
          1   -1    0    0  501    0  0.00000000000E+00  0.00000000000E+00  0.25806849215E+04  0.25806849215E+04  0.00000000000E+00 0. -1.
         -1   -1    0    0    0  501 -0.00000000000E+00 -0.00000000000E+00 -0.21862742792E+04  0.21862742792E+04  0.00000000000E+00 0.  1.
         23    2    1    2    0    0  0.84295904361E+03  0.21604951911E+04  0.70832294221E+03  0.24266899102E+04  0.93718245830E+02 0.  0.
         11    1    3    3    0    0  0.72258677960E+02  0.21259033009E+03  0.96051631925E+02  0.24421687285E+03  0.00000000000E+00 0. -1.
        -11    1    3    3    0    0  0.77070036565E+03  0.19479048611E+04  0.61227131029E+03  0.21824730373E+04  0.00000000000E+00 0.  1.
         22    1    1    2    0    0 -0.84295904361E+03 -0.21604951911E+04 -0.31391229987E+03  0.23402692905E+04  0.00000000000E+00 0.  1.
<mgrwt>
<rscale>  0 0.47506147E+04</rscale>
<asrwt>0</asrwt>
<pdfrwt beam="1">  1        1 0.39702845E+00 0.47506147E+04</pdfrwt>
<pdfrwt beam="2">  1       -1 0.33634989E+00 0.47506147E+04</pdfrwt>
<totfact> 0.16763067E-02</totfact>
</mgrwt>
</event>
<event>
 6    1  0.9364335E-007  0.1795944E+04  0.7818608E-02  0.8708459E-01
         -2   -1    0    0    0  501 -0.00000000000E+00  0.00000000000E+00  0.34675755868E+03  0.34675755868E+03  0.00000000000E+00 0.  1.
          2   -1    0    0  501    0  0.00000000000E+00 -0.00000000000E+00 -0.23254113768E+04  0.23254113768E+04  0.00000000000E+00 0. -1.
         23    2    1    2    0    0 -0.38885805503E+03  0.44349932577E+03 -0.19946055443E+04  0.20821208896E+04  0.94201286966E+02 0.  0.
         11    1    3    3    0    0 -0.10840051278E+03  0.15730704663E+03 -0.78325788964E+03  0.80621901477E+03  0.00000000000E+00 0.  1.
        -11    1    3    3    0    0 -0.28045754226E+03  0.28619227914E+03 -0.12113476547E+04  0.12759018748E+04  0.00000000000E+00 0. -1.
         22    1    1    2    0    0  0.38885805503E+03 -0.44349932577E+03  0.15951726181E+02  0.59004804592E+03  0.00000000000E+00 0.  1.
<mgrwt>
<rscale>  0 0.17959443E+04</rscale>
<asrwt>0</asrwt>
<pdfrwt beam="1">  1        2 0.35775559E+00 0.17959443E+04</pdfrwt>
<pdfrwt beam="2">  1       -2 0.53347317E-01 0.17959443E+04</pdfrwt>
<totfact> 0.13725388E+01</totfact>
</mgrwt>
</event>
<event>
 6    1  0.9364335E-007  0.7341204E+03  0.7818608E-02  0.9660598E-01
          2   -1    0    0  501    0  0.00000000000E+00  0.00000000000E+00  0.17308561667E+04  0.17308561667E+04  0.00000000000E+00 0. -1.
         -2   -1    0    0    0  501 -0.00000000000E+00 -0.00000000000E+00 -0.77841923956E+02  0.77841923956E+02  0.00000000000E+00 0.  1.
         23    2    1    2    0    0  0.28624217284E+03 -0.19422273281E+03  0.58362237932E+03  0.68475146869E+03  0.92803236941E+02 0.  0.
         13    1    3    3    0    0  0.16289400473E+03 -0.94432519041E+02  0.23053196550E+03  0.29765238878E+03  0.00000000000E+00 0. -1.
        -13    1    3    3    0    0  0.12334816811E+03 -0.99790213769E+02  0.35309041382E+03  0.38709907991E+03  0.00000000000E+00 0.  1.
         22    1    1    2    0    0 -0.28624217284E+03  0.19422273281E+03  0.10693918634E+04  0.11239466219E+04  0.00000000000E+00 0. -1.
<mgrwt>
<rscale>  0 0.73412036E+03</rscale>
<asrwt>0</asrwt>
<pdfrwt beam="1">  1        2 0.26628553E+00 0.73412036E+03</pdfrwt>
<pdfrwt beam="2">  1       -2 0.11975682E-01 0.73412036E+03</pdfrwt>
<totfact> 0.49009663E+02</totfact>
</mgrwt>
</event>
<event>
 6    1  0.9364335E-007  0.5672367E+04  0.7818608E-02  0.7732407E-01
          2   -1    0    0  501    0  0.00000000000E+00  0.00000000000E+00  0.29133371142E+04  0.29133371142E+04  0.00000000000E+00 0. -1.
         -2   -1    0    0    0  501 -0.00000000000E+00 -0.00000000000E+00 -0.27610727529E+04  0.27610727529E+04  0.00000000000E+00 0.  1.
         23    2    1    2    0    0 -0.16580259407E+04 -0.22750206111E+04 -0.26153707868E+03  0.28290627122E+04  0.10210477626E+03 0.  0.
         11    1    3    3    0    0 -0.76603314075E+03 -0.10738376419E+04 -0.73182115113E+02  0.13210941208E+04  0.00000000000E+00 0.  1.
        -11    1    3    3    0    0 -0.89199279990E+03 -0.12011829691E+04 -0.18835496357E+03  0.15079685914E+04  0.00000000000E+00 0. -1.
         22    1    1    2    0    0  0.16580259407E+04  0.22750206111E+04  0.41380143995E+03  0.28453471550E+04  0.00000000000E+00 0. -1.
<mgrwt>
<rscale>  0 0.56723666E+04</rscale>
<asrwt>0</asrwt>
<pdfrwt beam="1">  1        2 0.44820571E+00 0.56723666E+04</pdfrwt>
<pdfrwt beam="2">  1       -2 0.42478042E+00 0.56723666E+04</pdfrwt>
<totfact> 0.69525764E-03</totfact>
</mgrwt>
</event>
<event>
 6    1  0.9364335E-007  0.4233036E+04  0.7818608E-02  0.7959118E-01
         -2   -1    0    0    0  501 -0.00000000000E+00  0.00000000000E+00  0.17407098117E+04  0.17407098117E+04  0.00000000000E+00 0.  1.
          2   -1    0    0  501    0  0.00000000000E+00 -0.00000000000E+00 -0.25734607006E+04  0.25734607006E+04  0.00000000000E+00 0. -1.
         23    2    1    2    0    0  0.64749092363E+03 -0.34934874700E+03 -0.24380666630E+04  0.25482917572E+04  0.91284082176E+02 0.  0.
         13    1    3    3    0    0  0.56109830046E+03 -0.27162096956E+03 -0.21151251138E+04  0.22050767562E+04  0.00000000000E+00 0. -1.
        -13    1    3    3    0    0  0.86392623165E+02 -0.77727777436E+02 -0.32294154924E+03  0.34321500105E+03  0.00000000000E+00 0.  1.
         22    1    1    2    0    0 -0.64749092363E+03  0.34934874700E+03  0.16053157740E+04  0.17658787551E+04  0.00000000000E+00 0.  1.
<mgrwt>
<rscale>  0 0.42330359E+04</rscale>
<asrwt>0</asrwt>
<pdfrwt beam="1">  1        2 0.39591703E+00 0.42330359E+04</pdfrwt>
<pdfrwt beam="2">  1       -2 0.26780151E+00 0.42330359E+04</pdfrwt>
<totfact> 0.12207441E-01</totfact>
</mgrwt>
</event>
<event>
 6    1  0.9364335E-007  0.2315727E+04  0.7818608E-02  0.8471746E-01
          1   -1    0    0  501    0  0.00000000000E+00  0.00000000000E+00  0.18414353221E+04  0.18414353221E+04  0.00000000000E+00 0. -1.
         -1   -1    0    0    0  501 -0.00000000000E+00 -0.00000000000E+00 -0.72804520857E+03  0.72804520857E+03  0.00000000000E+00 0.  1.
         23    2    1    2    0    0  0.37667247517E+03 -0.10921681257E+04  0.51027392469E+03  0.12662297852E+04  0.90802106056E+02 0.  0.
         13    1    3    3    0    0  0.27999582826E+03 -0.78383746588E+03  0.32349096775E+03  0.89299789640E+03  0.00000000000E+00 0. -1.
        -13    1    3    3    0    0  0.96676646912E+02 -0.30833065980E+03  0.18678295694E+03  0.37323188882E+03  0.00000000000E+00 0.  1.
         22    1    1    2    0    0 -0.37667247517E+03  0.10921681257E+04  0.60311618886E+03  0.13032507455E+04  0.00000000000E+00 0. -1.
<mgrwt>
<rscale>  0 0.23157272E+04</rscale>
<asrwt>0</asrwt>
<pdfrwt beam="1">  1        1 0.28329774E+00 0.23157272E+04</pdfrwt>
<pdfrwt beam="2">  1       -1 0.11200696E+00 0.23157272E+04</pdfrwt>
<totfact> 0.25194400E+00</totfact>
</mgrwt>
</event>
<event>
 6    1  0.9364335E-007  0.1284334E+04  0.7818608E-02  0.9042082E-01
         -1   -1    0    0    0  501 -0.00000000000E+00  0.00000000000E+00  0.39435366214E+03  0.39435366214E+03  0.00000000000E+00 0.  1.
          1   -1    0    0  501    0  0.00000000000E+00 -0.00000000000E+00 -0.10457071264E+04  0.10457071264E+04  0.00000000000E+00 0. -1.
         23    2    1    2    0    0 -0.22006613511E+03 -0.32862239401E+02 -0.99879546275E+03  0.10274774965E+04  0.92782535479E+02 0.  0.
         11    1    3    3    0    0 -0.14472546214E+03 -0.65612836213E+02 -0.65199571406E+03  0.67108040861E+03  0.00000000000E+00 0.  1.
        -11    1    3    3    0    0 -0.75340672974E+02  0.32750596812E+02 -0.34679974869E+03  0.35639708793E+03  0.00000000000E+00 0. -1.
         22    1    1    2    0    0  0.22006613511E+03  0.32862239401E+02  0.34744199844E+03  0.41258329205E+03  0.00000000000E+00 0.  1.
<mgrwt>
<rscale>  0 0.12843340E+04</rscale>
<asrwt>0</asrwt>
<pdfrwt beam="1">  1        1 0.16087802E+00 0.12843340E+04</pdfrwt>
<pdfrwt beam="2">  1       -1 0.60669796E-01 0.12843340E+04</pdfrwt>
<totfact> 0.37792400E+01</totfact>
</mgrwt>
</event>
<event>
 6    1  0.9364335E-007  0.2168742E+04  0.7818608E-02  0.8531552E-01
         -1   -1    0    0    0  501 -0.00000000000E+00  0.00000000000E+00  0.42653739677E+03  0.42653739677E+03  0.00000000000E+00 0.  1.
          1   -1    0    0  501    0  0.00000000000E+00 -0.00000000000E+00 -0.27567574481E+04  0.27567574481E+04  0.00000000000E+00 0. -1.
         23    2    1    2    0    0 -0.11378926045E+02 -0.81879843628E+03 -0.22062769207E+04  0.23550906074E+04  0.90738963068E+02 0.  0.
         13    1    3    3    0    0  0.27926223162E+02 -0.44880381239E+03 -0.11223002026E+04  0.12090336971E+04  0.00000000000E+00 0. -1.
        -13    1    3    3    0    0 -0.39305149208E+02 -0.36999462389E+03 -0.10839767180E+04  0.11460569103E+04  0.00000000000E+00 0.  1.
         22    1    1    2    0    0  0.11378926045E+02  0.81879843628E+03 -0.12394313064E+03  0.82820423740E+03  0.00000000000E+00 0.  1.
<mgrwt>
<rscale>  0 0.21687417E+04</rscale>
<asrwt>0</asrwt>
<pdfrwt beam="1">  1        1 0.42411652E+00 0.21687417E+04</pdfrwt>
<pdfrwt beam="2">  1       -1 0.65621140E-01 0.21687417E+04</pdfrwt>
<totfact> 0.19261603E+00</totfact>
</mgrwt>
</event>
<event>
 6    1  0.9364335E-007  0.2019349E+04  0.7818608E-02  0.8597628E-01
          1   -1    0    0  501    0  0.00000000000E+00  0.00000000000E+00  0.72949579997E+03  0.72949579997E+03  0.00000000000E+00 0. -1.
         -1   -1    0    0    0  501 -0.00000000000E+00 -0.00000000000E+00 -0.13974613979E+04  0.13974613979E+04  0.00000000000E+00 0.  1.
         23    2    1    2    0    0  0.50868020557E+03  0.40389870109E+02  0.58040879353E+03  0.77831880513E+03  0.92297896390E+02 0.  0.
         13    1    3    3    0    0  0.24878763059E+03  0.16598109013E+02  0.35288178307E+03  0.43208371317E+03  0.00000000000E+00 0. -1.
        -13    1    3    3    0    0  0.25989257498E+03  0.23791761096E+02  0.22752701045E+03  0.34623509197E+03  0.00000000000E+00 0.  1.
         22    1    1    2    0    0 -0.50868020557E+03 -0.40389870109E+02 -0.12483743915E+04  0.13486383927E+04  0.00000000000E+00 0.  1.
<mgrwt>
<rscale>  0 0.20193486E+04</rscale>
<asrwt>0</asrwt>
<pdfrwt beam="1">  1        1 0.11223012E+00 0.20193486E+04</pdfrwt>
<pdfrwt beam="2">  1       -1 0.21499406E+00 0.20193486E+04</pdfrwt>
<totfact> 0.28159792E+00</totfact>
</mgrwt>
</event>
<event>
 6    1  0.9364335E-007  0.2213809E+04  0.7818608E-02  0.8512702E-01
          1   -1    0    0  501    0  0.00000000000E+00  0.00000000000E+00  0.81383129564E+03  0.81383129564E+03  0.00000000000E+00 0. -1.
         -1   -1    0    0    0  501 -0.00000000000E+00 -0.00000000000E+00 -0.15055185543E+04  0.15055185543E+04  0.00000000000E+00 0.  1.
         23    2    1    2    0    0 -0.73088268815E+03  0.50596683685E+03 -0.10342921993E+04  0.13666851192E+04  0.88746367080E+02 0.  0.
         11    1    3    3    0    0 -0.40468987279E+03  0.28260612951E+03 -0.64114945462E+03  0.80914321398E+03  0.00000000000E+00 0. -1.
        -11    1    3    3    0    0 -0.32619281537E+03  0.22336070734E+03 -0.39314274472E+03  0.55754190525E+03  0.00000000000E+00 0.  1.
         22    1    1    2    0    0  0.73088268815E+03 -0.50596683685E+03  0.34260494066E+03  0.95266473074E+03  0.00000000000E+00 0. -1.
<mgrwt>
<rscale>  0 0.22138095E+04</rscale>
<asrwt>0</asrwt>
<pdfrwt beam="1">  1        1 0.12520482E+00 0.22138095E+04</pdfrwt>
<pdfrwt beam="2">  1       -1 0.23161824E+00 0.22138095E+04</pdfrwt>
<totfact> 0.18032734E+00</totfact>
</mgrwt>
</event>
<event>
 6    1  0.9364335E-007  0.1343004E+04  0.7818608E-02  0.8996141E-01
          3   -1    0    0  501    0  0.00000000000E+00  0.00000000000E+00  0.11531779501E+04  0.11531779501E+04  0.00000000000E+00 0. -1.
         -3   -1    0    0    0  501 -0.00000000000E+00 -0.00000000000E+00 -0.39101961563E+03  0.39101961563E+03  0.00000000000E+00 0.  1.
         23    2    1    2    0    0 -0.48955305824E+03  0.34250063000E+03  0.38178411835E+02  0.60551987517E+03  0.90707495361E+02 0.  0.
         11    1    3    3    0    0 -0.14496747067E+03  0.54579539095E+02  0.19089164530E+02  0.15607334764E+03  0.00000000000E+00 0.  1.
        -11    1    3    3    0    0 -0.34458558756E+03  0.28792109091E+03  0.19089247305E+02  0.44944652753E+03  0.00000000000E+00 0. -1.
         22    1    1    2    0    0  0.48955305824E+03 -0.34250063000E+03  0.72397992261E+03  0.93867769054E+03  0.00000000000E+00 0. -1.
<mgrwt>
<rscale>  0 0.13430044E+04</rscale>
<asrwt>0</asrwt>
<pdfrwt beam="1">  1        3 0.17741199E+00 0.13430044E+04</pdfrwt>
<pdfrwt beam="2">  1       -3 0.60156865E-01 0.13430044E+04</pdfrwt>
<totfact> 0.14298974E+00</totfact>
</mgrwt>
</event>
<event>
 6    1  0.9364335E-007  0.9463830E+03  0.7818608E-02  0.9369388E-01
          2   -1    0    0  501    0  0.00000000000E+00  0.00000000000E+00  0.66979258793E+03  0.66979258793E+03  0.00000000000E+00 0. -1.
         -2   -1    0    0    0  501 -0.00000000000E+00 -0.00000000000E+00 -0.33429778963E+03  0.33429778963E+03  0.00000000000E+00 0.  1.
         23    2    1    2    0    0 -0.43462296762E+03  0.24837715417E+02  0.35388950428E+03  0.56836982342E+03  0.91062829069E+02 0.  0.
         13    1    3    3    0    0 -0.24784977354E+03  0.41928809758E+02  0.15661512377E+03  0.29616858768E+03  0.00000000000E+00 0.  1.
        -13    1    3    3    0    0 -0.18677319408E+03 -0.17091094341E+02  0.19727438051E+03  0.27220123574E+03  0.00000000000E+00 0. -1.
         22    1    1    2    0    0  0.43462296762E+03 -0.24837715417E+02 -0.18394705993E+02  0.43572055414E+03  0.00000000000E+00 0.  1.
<mgrwt>
<rscale>  0 0.94638297E+03</rscale>
<asrwt>0</asrwt>
<pdfrwt beam="1">  1        2 0.10304501E+00 0.94638297E+03</pdfrwt>
<pdfrwt beam="2">  1       -2 0.51430429E-01 0.94638297E+03</pdfrwt>
<totfact> 0.15490360E+02</totfact>
</mgrwt>
</event>
<event>
 6    1  0.9364335E-007  0.9107792E+04  0.7818608E-02  0.7392129E-01
         -2   -1    0    0    0  501 -0.00000000000E+00  0.00000000000E+00  0.57844506650E+04  0.57844506650E+04  0.00000000000E+00 0.  1.
          2   -1    0    0  501    0  0.00000000000E+00 -0.00000000000E+00 -0.35851230845E+04  0.35851230845E+04  0.00000000000E+00 0. -1.
         23    2    1    2    0    0  0.24157363924E+04 -0.38496956999E+04  0.81098297510E+03  0.46173700457E+04  0.80457778258E+02 0.  0.
         11    1    3    3    0    0  0.19614241655E+04 -0.30726421169E+04  0.63488429580E+03  0.37001881580E+04  0.00000000000E+00 0. -1.
        -11    1    3    3    0    0  0.45431222692E+03 -0.77705358299E+03  0.17609867930E+03  0.91718188776E+03  0.00000000000E+00 0.  1.
         22    1    1    2    0    0 -0.24157363924E+04  0.38496956999E+04  0.13883446054E+04  0.47522037038E+04  0.00000000000E+00 0.  1.
<mgrwt>
<rscale>  0 0.91077917E+04</rscale>
<asrwt>0</asrwt>
<pdfrwt beam="1">  1        2 0.55155740E+00 0.91077917E+04</pdfrwt>
<pdfrwt beam="2">  1       -2 0.88991549E+00 0.91077917E+04</pdfrwt>
<totfact> 0.44443825E-06</totfact>
</mgrwt>
</event>
<event>
 6    1  0.9364335E-007  0.1453341E+04  0.7818608E-02  0.8916088E-01
         -1   -1    0    0    0  501 -0.00000000000E+00  0.00000000000E+00  0.31090386661E+03  0.31090386661E+03  0.00000000000E+00 0.  1.
          1   -1    0    0  501    0  0.00000000000E+00 -0.00000000000E+00 -0.16984345081E+04  0.16984345081E+04  0.00000000000E+00 0. -1.
         23    2    1    2    0    0  0.13826965674E+03 -0.68792673552E+03 -0.45031983427E+03  0.83855838316E+03  0.89613154193E+02 0.  0.
         13    1    3    3    0    0  0.65778409668E+02 -0.40789496841E+03 -0.21553893166E+03  0.46600658310E+03  0.00000000000E+00 0. -1.
        -13    1    3    3    0    0  0.72491247076E+02 -0.28003176711E+03 -0.23478090261E+03  0.37255180006E+03  0.00000000000E+00 0.  1.
         22    1    1    2    0    0 -0.13826965674E+03  0.68792673552E+03 -0.93721080720E+03  0.11707799915E+04  0.00000000000E+00 0. -1.
<mgrwt>
<rscale>  0 0.14533408E+04</rscale>
<asrwt>0</asrwt>
<pdfrwt beam="1">  1        1 0.26129762E+00 0.14533408E+04</pdfrwt>
<pdfrwt beam="2">  1       -1 0.47831364E-01 0.14533408E+04</pdfrwt>
<totfact> 0.20258396E+01</totfact>
</mgrwt>
</event>
<event>
 6    1  0.9364335E-007  0.2278821E+04  0.7818608E-02  0.8486319E-01
         -1   -1    0    0    0  501 -0.00000000000E+00  0.00000000000E+00  0.11749172859E+04  0.11749172859E+04  0.00000000000E+00 0.  1.
          1   -1    0    0  501    0  0.00000000000E+00 -0.00000000000E+00 -0.11049765971E+04  0.11049765971E+04  0.00000000000E+00 0. -1.
         23    2    1    2    0    0 -0.37027550542E+03 -0.84690695979E+03  0.69822455774E+03  0.11622642627E+04  0.94791005618E+02 0.  0.
         13    1    3    3    0    0 -0.85988126600E+02 -0.27492326473E+03  0.17929418243E+03  0.33929804488E+03  0.00000000000E+00 0.  1.
        -13    1    3    3    0    0 -0.28428737882E+03 -0.57198369507E+03  0.51893037531E+03  0.82296621777E+03  0.00000000000E+00 0. -1.
         22    1    1    2    0    0  0.37027550542E+03  0.84690695979E+03 -0.62828386896E+03  0.11176296204E+04  0.00000000000E+00 0. -1.
<mgrwt>
<rscale>  0 0.22788208E+04</rscale>
<asrwt>0</asrwt>
<pdfrwt beam="1">  1        1 0.16999640E+00 0.22788208E+04</pdfrwt>
<pdfrwt beam="2">  1       -1 0.18075650E+00 0.22788208E+04</pdfrwt>
<totfact> 0.23394125E+00</totfact>
</mgrwt>
</event>
<event>
 6    1  0.9364335E-007  0.2253909E+04  0.7818608E-02  0.8496319E-01
          2   -1    0    0  501    0  0.00000000000E+00  0.00000000000E+00  0.24793163332E+04  0.24793163332E+04  0.00000000000E+00 0. -1.
         -2   -1    0    0    0  501 -0.00000000000E+00 -0.00000000000E+00 -0.51224865021E+03  0.51224865021E+03  0.00000000000E+00 0.  1.
         23    2    1    2    0    0  0.79601066611E+03  0.35882321769E+03  0.43231051185E+02  0.87885713140E+03  0.90187867854E+02 0.  0.
         13    1    3    3    0    0  0.41475770825E+03  0.13932397659E+03  0.94080477680E+01  0.43763413758E+03  0.00000000000E+00 0. -1.
        -13    1    3    3    0    0  0.38125295786E+03  0.21949924110E+03  0.33823003417E+02  0.44122299382E+03  0.00000000000E+00 0.  1.
         22    1    1    2    0    0 -0.79601066611E+03 -0.35882321769E+03  0.19238366318E+04  0.21127078520E+04  0.00000000000E+00 0. -1.
<mgrwt>
<rscale>  0 0.22539090E+04</rscale>
<asrwt>0</asrwt>
<pdfrwt beam="1">  1        2 0.38143328E+00 0.22539090E+04</pdfrwt>
<pdfrwt beam="2">  1       -2 0.78807486E-01 0.22539090E+04</pdfrwt>
<totfact> 0.46560520E+00</totfact>
</mgrwt>
</event>
<event>
 6    1  0.9364335E-007  0.1612642E+04  0.7818608E-02  0.8812819E-01
          1   -1    0    0  501    0  0.00000000000E+00  0.00000000000E+00  0.53671304897E+03  0.53671304897E+03  0.00000000000E+00 0. -1.
         -1   -1    0    0    0  501 -0.00000000000E+00 -0.00000000000E+00 -0.12113615908E+04  0.12113615908E+04  0.00000000000E+00 0.  1.
         23    2    1    2    0    0  0.25700073928E+02 -0.70381286764E+03  0.80439913154E+02  0.71551877141E+03  0.97383192405E+02 0.  0.
         11    1    3    3    0    0  0.18979856121E+02 -0.27074541095E+02  0.12487988478E+02  0.35344243804E+02  0.00000000000E+00 0.  1.
        -11    1    3    3    0    0  0.67202178066E+01 -0.67673832654E+03  0.67951924675E+02  0.68017452761E+03  0.00000000000E+00 0. -1.
         22    1    1    2    0    0 -0.25700073928E+02  0.70381286764E+03 -0.75508845501E+03  0.10325558684E+04  0.00000000000E+00 0. -1.
<mgrwt>
<rscale>  0 0.16126420E+04</rscale>
<asrwt>0</asrwt>
<pdfrwt beam="1">  1        1 0.82571238E-01 0.16126420E+04</pdfrwt>
<pdfrwt beam="2">  1       -1 0.18636332E+00 0.16126420E+04</pdfrwt>
<totfact> 0.72133576E+00</totfact>
</mgrwt>
</event>
<event>
 6    1  0.9364335E-007  0.2827731E+04  0.7818608E-02  0.8294710E-01
         -1   -1    0    0    0  501 -0.00000000000E+00  0.00000000000E+00  0.18900795013E+04  0.18900795013E+04  0.00000000000E+00 0.  1.
          1   -1    0    0  501    0  0.00000000000E+00 -0.00000000000E+00 -0.10576354938E+04  0.10576354938E+04  0.00000000000E+00 0. -1.
         23    2    1    2    0    0 -0.10629090661E+04  0.28246908864E+03  0.13403885302E+04  0.17362810898E+04  0.92011641418E+02 0.  0.
         11    1    3    3    0    0 -0.62938146561E+03  0.19227335103E+03  0.74066782422E+03  0.99079710163E+03  0.00000000000E+00 0.  1.
        -11    1    3    3    0    0 -0.43352760049E+03  0.90195737611E+02  0.59972070597E+03  0.74548398819E+03  0.00000000000E+00 0. -1.
         22    1    1    2    0    0  0.10629090661E+04 -0.28246908864E+03 -0.50794452266E+03  0.12114339053E+04  0.00000000000E+00 0. -1.
<mgrwt>
<rscale>  0 0.28277307E+04</rscale>
<asrwt>0</asrwt>
<pdfrwt beam="1">  1        1 0.16271315E+00 0.28277307E+04</pdfrwt>
<pdfrwt beam="2">  1       -1 0.29078146E+00 0.28277307E+04</pdfrwt>
<totfact> 0.44685957E-01</totfact>
</mgrwt>
</event>
<event>
 6    1  0.9364335E-007  0.1923637E+04  0.7818608E-02  0.8643180E-01
          2   -1    0    0  501    0  0.00000000000E+00  0.00000000000E+00  0.57859686281E+03  0.57859686281E+03  0.00000000000E+00 0. -1.
         -2   -1    0    0    0  501 -0.00000000000E+00 -0.00000000000E+00 -0.15988585882E+04  0.15988585882E+04  0.00000000000E+00 0.  1.
         23    2    1    2    0    0  0.74569756435E+03  0.51167990199E+03 -0.87468867007E+03  0.12614463386E+04  0.91024260721E+02 0.  0.
         13    1    3    3    0    0  0.51467832685E+03  0.37297002784E+03 -0.66594284588E+03  0.92058693005E+03  0.00000000000E+00 0. -1.
        -13    1    3    3    0    0  0.23101923750E+03  0.13870987414E+03 -0.20874582420E+03  0.34085940855E+03  0.00000000000E+00 0.  1.
         22    1    1    2    0    0 -0.74569756435E+03 -0.51167990199E+03 -0.14557305531E+03  0.91600911241E+03  0.00000000000E+00 0.  1.
<mgrwt>
<rscale>  0 0.19236367E+04</rscale>
<asrwt>0</asrwt>
<pdfrwt beam="1">  1        2 0.89014903E-01 0.19236367E+04</pdfrwt>
<pdfrwt beam="2">  1       -2 0.24597824E+00 0.19236367E+04</pdfrwt>
<totfact> 0.32947948E+00</totfact>
</mgrwt>
</event>
<event>
 6    1  0.9364335E-007  0.2718284E+04  0.7818608E-02  0.8329097E-01
         -2   -1    0    0    0  501 -0.00000000000E+00  0.00000000000E+00  0.43092288346E+04  0.43092288346E+04  0.00000000000E+00 0.  1.
          2   -1    0    0  501    0  0.00000000000E+00 -0.00000000000E+00 -0.42867677247E+03  0.42867677247E+03  0.00000000000E+00 0. -1.
         23    2    1    2    0    0 -0.43873880654E+03 -0.81893136908E+03  0.21723338064E+03  0.95861412721E+03  0.92792109554E+02 0.  0.
         13    1    3    3    0    0 -0.37428162820E+03 -0.72675908020E+03  0.16225508511E+03  0.83342198826E+03  0.00000000000E+00 0.  1.
        -13    1    3    3    0    0 -0.64457178343E+02 -0.92172288876E+02  0.54978295530E+02  0.12519213895E+03  0.00000000000E+00 0. -1.
         22    1    1    2    0    0  0.43873880654E+03  0.81893136908E+03  0.36633186815E+04  0.37792914799E+04  0.00000000000E+00 0.  1.
<mgrwt>
<rscale>  0 0.27182835E+04</rscale>
<asrwt>0</asrwt>
<pdfrwt beam="1">  1        2 0.65950276E-01 0.27182835E+04</pdfrwt>
<pdfrwt beam="2">  1       -2 0.66295825E+00 0.27182835E+04</pdfrwt>
<totfact> 0.19327894E-02</totfact>
</mgrwt>
</event>
<event>
 6    1  0.9364335E-007  0.1533304E+04  0.7818608E-02  0.8862604E-01
          1   -1    0    0  501    0  0.00000000000E+00  0.00000000000E+00  0.12879021390E+04  0.12879021390E+04  0.00000000000E+00 0. -1.
         -1   -1    0    0    0  501 -0.00000000000E+00 -0.00000000000E+00 -0.45636615158E+03  0.45636615158E+03  0.00000000000E+00 0.  1.
         23    2    1    2    0    0 -0.83456147047E+02 -0.64517686529E+02  0.12779643077E+04  0.12855464734E+04  0.91156476786E+02 0.  0.
         13    1    3    3    0    0 -0.76928997800E+02 -0.17462408334E+02  0.50505467227E+03  0.51117827457E+03  0.00000000000E+00 0. -1.
        -13    1    3    3    0    0 -0.65271492469E+01 -0.47055278195E+02  0.77290963543E+03  0.77436819887E+03  0.00000000000E+00 0.  1.
         22    1    1    2    0    0  0.83456147047E+02  0.64517686529E+02 -0.44642832029E+03  0.45872181713E+03  0.00000000000E+00 0.  1.
<mgrwt>
<rscale>  0 0.15333035E+04</rscale>
<asrwt>0</asrwt>
<pdfrwt beam="1">  1        1 0.19813879E+00 0.15333035E+04</pdfrwt>
<pdfrwt beam="2">  1       -1 0.70210178E-01 0.15333035E+04</pdfrwt>
<totfact> 0.18255498E+01</totfact>
</mgrwt>
</event>
<event>
 6    1  0.9364335E-007  0.1864541E+04  0.7818608E-02  0.8672711E-01
         -2   -1    0    0    0  501 -0.00000000000E+00  0.00000000000E+00  0.72924576357E+03  0.72924576357E+03  0.00000000000E+00 0.  1.
          2   -1    0    0  501    0  0.00000000000E+00 -0.00000000000E+00 -0.11918175398E+04  0.11918175398E+04  0.00000000000E+00 0. -1.
         23    2    1    2    0    0 -0.54878541072E+03 -0.71417478179E+03  0.69912958166E+01  0.90533670404E+03  0.91512969061E+02 0.  0.
         13    1    3    3    0    0 -0.43702173513E+03 -0.61616768298E+03 -0.11788413426E+02  0.75550617285E+03  0.00000000000E+00 0.  1.
        -13    1    3    3    0    0 -0.11176367558E+03 -0.98007098815E+02  0.18779709242E+02  0.14983053119E+03  0.00000000000E+00 0. -1.
         22    1    1    2    0    0  0.54878541072E+03  0.71417478179E+03 -0.46956307205E+03  0.10157265993E+04  0.00000000000E+00 0. -1.
<mgrwt>
<rscale>  0 0.18645406E+04</rscale>
<asrwt>0</asrwt>
<pdfrwt beam="1">  1        2 0.18335654E+00 0.18645406E+04</pdfrwt>
<pdfrwt beam="2">  1       -2 0.11219166E+00 0.18645406E+04</pdfrwt>
<totfact> 0.11269830E+01</totfact>
</mgrwt>
</event>
<event>
 6    1  0.9419176E-007  0.2638228E+04  0.7818608E-02  0.8355331E-01
          2   -1    0    0  501    0  0.00000000000E+00  0.00000000000E+00  0.14471389457E+04  0.14471389457E+04  0.00000000000E+00 0. -1.
         -2   -1    0    0    0  501 -0.00000000000E+00 -0.00000000000E+00 -0.12024153698E+04  0.12024153698E+04  0.00000000000E+00 0.  1.
         23    2    1    2    0    0  0.10213775565E+04  0.43443632302E+03  0.83549400003E+03  0.13921932990E+04  0.90581046947E+02 0.  0.
         11    1    3    3    0    0  0.50454109326E+03  0.21030712009E+03  0.35509660407E+03  0.65183157163E+03  0.00000000000E+00 0. -1.
        -11    1    3    3    0    0  0.51683646324E+03  0.22412920293E+03  0.48039739596E+03  0.74036172739E+03  0.00000000000E+00 0.  1.
         22    1    1    2    0    0 -0.10213775565E+04 -0.43443632302E+03 -0.59077042409E+03  0.12573610164E+04  0.00000000000E+00 0.  1.
<mgrwt>
<rscale>  0 0.26382283E+04</rscale>
<asrwt>0</asrwt>
<pdfrwt beam="1">  1        2 0.22263676E+00 0.26382283E+04</pdfrwt>
<pdfrwt beam="2">  1       -2 0.18498698E+00 0.26382283E+04</pdfrwt>
<totfact> 0.20101042E+00</totfact>
</mgrwt>
</event>
<event>
 6    1  0.9364335E-007  0.3213143E+04  0.7818608E-02  0.8185355E-01
         -2   -1    0    0    0  501 -0.00000000000E+00  0.00000000000E+00  0.95983795911E+03  0.95983795911E+03  0.00000000000E+00 0.  1.
          2   -1    0    0  501    0  0.00000000000E+00 -0.00000000000E+00 -0.26890706602E+04  0.26890706602E+04  0.00000000000E+00 0. -1.
         23    2    1    2    0    0  0.20213757210E+03  0.13900810492E+04  0.16662692355E+02  0.14080749249E+04  0.95981390562E+02 0.  0.
         11    1    3    3    0    0  0.41424392944E+02  0.53296573694E+03  0.36269494067E+02  0.53580214005E+03  0.00000000000E+00 0. -1.
        -11    1    3    3    0    0  0.16071317916E+03  0.85711531225E+03 -0.19606801712E+02  0.87227278481E+03  0.00000000000E+00 0.  1.
         22    1    1    2    0    0 -0.20213757210E+03 -0.13900810492E+04 -0.17458953934E+04  0.22408336944E+04  0.00000000000E+00 0. -1.
<mgrwt>
<rscale>  0 0.32131431E+04</rscale>
<asrwt>0</asrwt>
<pdfrwt beam="1">  1        2 0.41370318E+00 0.32131431E+04</pdfrwt>
<pdfrwt beam="2">  1       -2 0.14766738E+00 0.32131431E+04</pdfrwt>
<totfact> 0.70788371E-01</totfact>
</mgrwt>
</event>
<event>
 6    1  0.9364335E-007  0.8582498E+03  0.7818608E-02  0.9479331E-01
          2   -1    0    0  501    0  0.00000000000E+00  0.00000000000E+00  0.14692743199E+04  0.14692743199E+04  0.00000000000E+00 0. -1.
         -2   -1    0    0    0  501 -0.00000000000E+00 -0.00000000000E+00 -0.12533273020E+03  0.12533273020E+03  0.00000000000E+00 0.  1.
         23    2    1    2    0    0 -0.24658216175E+03  0.27395819854E+02  0.39502963173E+02  0.26678423668E+03  0.89777789029E+02 0.  0.
         13    1    3    3    0    0 -0.93204676072E+02 -0.33125513442E+02  0.12538312690E+02  0.99707675570E+02  0.00000000000E+00 0. -1.
        -13    1    3    3    0    0 -0.15337748568E+03  0.60521333295E+02  0.26964650483E+02  0.16707656111E+03  0.00000000000E+00 0.  1.
         22    1    1    2    0    0  0.24658216175E+03 -0.27395819854E+02  0.13044386265E+04  0.13278228134E+04  0.00000000000E+00 0. -1.
<mgrwt>
<rscale>  0 0.85824976E+03</rscale>
<asrwt>0</asrwt>
<pdfrwt beam="1">  1        2 0.22604219E+00 0.85824976E+03</pdfrwt>
<pdfrwt beam="2">  1       -2 0.19281959E-01 0.85824976E+03</pdfrwt>
<totfact> 0.30244741E+02</totfact>
</mgrwt>
</event>
<event>
 6    1  0.9364335E-007  0.3116318E+04  0.7818608E-02  0.8211274E-01
         -2   -1    0    0    0  501 -0.00000000000E+00  0.00000000000E+00  0.10282758293E+04  0.10282758293E+04  0.00000000000E+00 0.  1.
          2   -1    0    0  501    0  0.00000000000E+00 -0.00000000000E+00 -0.23610976864E+04  0.23610976864E+04  0.00000000000E+00 0. -1.
         23    2    1    2    0    0 -0.67640631975E+03  0.86485489813E+03 -0.18674553659E+04  0.21681722658E+04  0.89899535479E+02 0.  0.
         11    1    3    3    0    0 -0.28392951445E+03  0.29644667030E+03 -0.66800776397E+03  0.78404781120E+03  0.00000000000E+00 0. -1.
        -11    1    3    3    0    0 -0.39247680530E+03  0.56840822783E+03 -0.11994476019E+04  0.13841244546E+04  0.00000000000E+00 0.  1.
         22    1    1    2    0    0  0.67640631975E+03 -0.86485489813E+03  0.53463350878E+03  0.12212012500E+04  0.00000000000E+00 0.  1.
<mgrwt>
<rscale>  0 0.31163181E+04</rscale>
<asrwt>0</asrwt>
<pdfrwt beam="1">  1        2 0.36324580E+00 0.31163181E+04</pdfrwt>
<pdfrwt beam="2">  1       -2 0.15819628E+00 0.31163181E+04</pdfrwt>
<totfact> 0.92162077E-01</totfact>
</mgrwt>
</event>
<event>
 6    1  0.9364335E-007  0.2261890E+04  0.7818608E-02  0.8493101E-01
         -1   -1    0    0    0  501 -0.00000000000E+00  0.00000000000E+00  0.74870805981E+03  0.74870805981E+03  0.00000000000E+00 0.  1.
          1   -1    0    0  501    0  0.00000000000E+00 -0.00000000000E+00 -0.17083242966E+04  0.17083242966E+04  0.00000000000E+00 0. -1.
         23    2    1    2    0    0  0.56650983664E+03 -0.90175882448E+03 -0.88805829005E+03  0.13896884979E+04  0.92109837729E+02 0.  0.
         13    1    3    3    0    0  0.31189683117E+03 -0.42192294547E+03 -0.40591810612E+03  0.66337629900E+03  0.00000000000E+00 0.  1.
        -13    1    3    3    0    0  0.25461300547E+03 -0.47983587901E+03 -0.48214018393E+03  0.72631219892E+03  0.00000000000E+00 0. -1.
         22    1    1    2    0    0 -0.56650983664E+03  0.90175882448E+03 -0.71557946764E+02  0.10673438585E+04  0.00000000000E+00 0.  1.
<mgrwt>
<rscale>  0 0.22618896E+04</rscale>
<asrwt>0</asrwt>
<pdfrwt beam="1">  1        1 0.26281912E+00 0.22618896E+04</pdfrwt>
<pdfrwt beam="2">  1       -1 0.11518586E+00 0.22618896E+04</pdfrwt>
<totfact> 0.29165321E+00</totfact>
</mgrwt>
</event>
<event>
 6    1  0.9364335E-007  0.1224203E+04  0.7818608E-02  0.9091932E-01
          2   -1    0    0  501    0  0.00000000000E+00  0.00000000000E+00  0.94178443303E+03  0.94178443303E+03  0.00000000000E+00 0. -1.
         -2   -1    0    0    0  501 -0.00000000000E+00 -0.00000000000E+00 -0.39782775462E+03  0.39782775462E+03  0.00000000000E+00 0.  1.
         23    2    1    2    0    0 -0.29252558784E+03 -0.33193598653E+02 -0.30936166361E+03  0.43693548618E+03  0.92384769494E+02 0.  0.
         11    1    3    3    0    0 -0.15270330909E+03 -0.63441404849E+02 -0.15920480423E+03  0.22954146063E+03  0.00000000000E+00 0. -1.
        -11    1    3    3    0    0 -0.13982227875E+03  0.30247806196E+02 -0.15015685938E+03  0.20739402555E+03  0.00000000000E+00 0.  1.
         22    1    1    2    0    0  0.29252558784E+03  0.33193598653E+02  0.85331834202E+03  0.90267670146E+03  0.00000000000E+00 0. -1.
<mgrwt>
<rscale>  0 0.12242026E+04</rscale>
<asrwt>0</asrwt>
<pdfrwt beam="1">  1        2 0.14488991E+00 0.12242026E+04</pdfrwt>
<pdfrwt beam="2">  1       -2 0.61204270E-01 0.12242026E+04</pdfrwt>
<totfact> 0.67263941E+01</totfact>
</mgrwt>
</event>
<event>
 6    1  0.9364335E-007  0.1176999E+04  0.7818608E-02  0.9133231E-01
          2   -1    0    0  501    0  0.00000000000E+00  0.00000000000E+00  0.16928651526E+04  0.16928651526E+04  0.00000000000E+00 0. -1.
         -2   -1    0    0    0  501 -0.00000000000E+00 -0.00000000000E+00 -0.20458317299E+03  0.20458317299E+03  0.00000000000E+00 0.  1.
         23    2    1    2    0    0 -0.49793054152E+03 -0.32499757940E+02  0.25611996702E+03  0.56808220458E+03  0.90160386056E+02 0.  0.
         13    1    3    3    0    0 -0.28926024108E+03 -0.40106483092E+02  0.19261749620E+03  0.34983069748E+03  0.00000000000E+00 0. -1.
        -13    1    3    3    0    0 -0.20867030044E+03  0.76067251522E+01  0.63502470819E+02  0.21825150710E+03  0.00000000000E+00 0.  1.
         22    1    1    2    0    0  0.49793054152E+03  0.32499757940E+02  0.12321620126E+04  0.13293661210E+04  0.00000000000E+00 0. -1.
<mgrwt>
<rscale>  0 0.11769991E+04</rscale>
<asrwt>0</asrwt>
<pdfrwt beam="1">  1        2 0.26044078E+00 0.11769991E+04</pdfrwt>
<pdfrwt beam="2">  1       -2 0.31474335E-01 0.11769991E+04</pdfrwt>
<totfact> 0.91646840E+01</totfact>
</mgrwt>
</event>
<event>
 6    1  0.9364335E-007  0.3674584E+03  0.7818608E-02  0.1055669E+00
          1   -1    0    0  501    0  0.00000000000E+00  0.00000000000E+00  0.45436393036E+03  0.45436393036E+03  0.00000000000E+00 0. -1.
         -1   -1    0    0    0  501 -0.00000000000E+00 -0.00000000000E+00 -0.74293790699E+02  0.74293790699E+02  0.00000000000E+00 0.  1.
         23    2    1    2    0    0  0.68504780130E+02 -0.12948052357E+03  0.69489999579E+02  0.18526562112E+03  0.89645855700E+02 0.  0.
         13    1    3    3    0    0  0.20270135792E+01 -0.73426734050E+02 -0.79091874509E+00  0.73458965483E+02  0.00000000000E+00 0.  1.
        -13    1    3    3    0    0  0.66477766551E+02 -0.56053789521E+02  0.70280918325E+02  0.11180665564E+03  0.00000000000E+00 0. -1.
         22    1    1    2    0    0 -0.68504780130E+02  0.12948052357E+03  0.31058014008E+03  0.34339209994E+03  0.00000000000E+00 0. -1.
<mgrwt>
<rscale>  0 0.36745840E+03</rscale>
<asrwt>0</asrwt>
<pdfrwt beam="1">  1        1 0.69902142E-01 0.36745840E+03</pdfrwt>
<pdfrwt beam="2">  1       -1 0.11429814E-01 0.36745840E+03</pdfrwt>
<totfact> 0.25458627E+03</totfact>
</mgrwt>
</event>
<event>
 6    1  0.9364335E-007  0.1560639E+04  0.7818608E-02  0.8845101E-01
          2   -1    0    0  501    0  0.00000000000E+00  0.00000000000E+00  0.23556268597E+04  0.23556268597E+04  0.00000000000E+00 0. -1.
         -2   -1    0    0    0  501 -0.00000000000E+00 -0.00000000000E+00 -0.25848673587E+03  0.25848673587E+03  0.00000000000E+00 0.  1.
         23    2    1    2    0    0  0.74888625717E+03  0.10047345855E+03  0.13612507503E+04  0.15593820126E+04  0.87994965638E+02 0.  0.
         13    1    3    3    0    0  0.67096066946E+03  0.11593089522E+03  0.12039072454E+04  0.13831199688E+04  0.00000000000E+00 0. -1.
        -13    1    3    3    0    0  0.77925587703E+02 -0.15457436665E+02  0.15734350488E+03  0.17626204383E+03  0.00000000000E+00 0.  1.
         22    1    1    2    0    0 -0.74888625717E+03 -0.10047345855E+03  0.73588937355E+03  0.10547315830E+04  0.00000000000E+00 0.  1.
<mgrwt>
<rscale>  0 0.15606387E+04</rscale>
<asrwt>0</asrwt>
<pdfrwt beam="1">  1        2 0.36240412E+00 0.15606387E+04</pdfrwt>
<pdfrwt beam="2">  1       -2 0.39767192E-01 0.15606387E+04</pdfrwt>
<totfact> 0.24289226E+01</totfact>
</mgrwt>
</event>
<event>
 6    1  0.9364335E-007  0.3094514E+04  0.7818608E-02  0.8217245E-01
         -2   -1    0    0    0  501 -0.00000000000E+00  0.00000000000E+00  0.12623856305E+04  0.12623856305E+04  0.00000000000E+00 0.  1.
          2   -1    0    0  501    0  0.00000000000E+00 -0.00000000000E+00 -0.18964132424E+04  0.18964132424E+04  0.00000000000E+00 0. -1.
         23    2    1    2    0    0  0.10392616502E+04  0.84449855117E+03 -0.11058534040E+04  0.17389882662E+04  0.89027289684E+02 0.  0.
         11    1    3    3    0    0  0.62050389346E+03  0.44753362641E+03 -0.62694149725E+03  0.98912439538E+03  0.00000000000E+00 0.  1.
        -11    1    3    3    0    0  0.41875775677E+03  0.39696492476E+03 -0.47891190675E+03  0.74986387083E+03  0.00000000000E+00 0. -1.
         22    1    1    2    0    0 -0.10392616502E+04 -0.84449855117E+03  0.47182579209E+03  0.14198106066E+04  0.00000000000E+00 0.  1.
<mgrwt>
<rscale>  0 0.30945144E+04</rscale>
<asrwt>0</asrwt>
<pdfrwt beam="1">  1        2 0.29175588E+00 0.30945144E+04</pdfrwt>
<pdfrwt beam="2">  1       -2 0.19421317E+00 0.30945144E+04</pdfrwt>
<totfact> 0.94130848E-01</totfact>
</mgrwt>
</event>
<event>
 6    1  0.9364335E-007  0.2921318E+04  0.7818608E-02  0.8266563E-01
         -1   -1    0    0    0  501 -0.00000000000E+00  0.00000000000E+00  0.11650758568E+04  0.11650758568E+04  0.00000000000E+00 0.  1.
          1   -1    0    0  501    0  0.00000000000E+00 -0.00000000000E+00 -0.18312322929E+04  0.18312322929E+04  0.00000000000E+00 0. -1.
         23    2    1    2    0    0 -0.10808364485E+03 -0.59886827070E+03  0.10268354656E+04  0.11972676112E+04  0.93452551962E+02 0.  0.
         13    1    3    3    0    0 -0.10657200183E+03 -0.40961831941E+03  0.76363289221E+03  0.87308645233E+03  0.00000000000E+00 0. -1.
        -13    1    3    3    0    0 -0.15116430179E+01 -0.18924995129E+03  0.26320257343E+03  0.32418115891E+03  0.00000000000E+00 0.  1.
         22    1    1    2    0    0  0.10808364485E+03  0.59886827070E+03 -0.16929919017E+04  0.17990405385E+04  0.00000000000E+00 0. -1.
<mgrwt>
<rscale>  0 0.29213179E+04</rscale>
<asrwt>0</asrwt>
<pdfrwt beam="1">  1        1 0.28172804E+00 0.29213179E+04</pdfrwt>
<pdfrwt beam="2">  1       -1 0.17924244E+00 0.29213179E+04</pdfrwt>
<totfact> 0.70053139E-01</totfact>
</mgrwt>
</event>
<event>
 6    1  0.9364335E-007  0.1809975E+04  0.7818608E-02  0.8701013E-01
          2   -1    0    0  501    0  0.00000000000E+00  0.00000000000E+00  0.10147469078E+04  0.10147469078E+04  0.00000000000E+00 0. -1.
         -2   -1    0    0    0  501 -0.00000000000E+00 -0.00000000000E+00 -0.80710039470E+03  0.80710039470E+03  0.00000000000E+00 0.  1.
         23    2    1    2    0    0 -0.53210893863E+03  0.15889117453E+03 -0.61228742374E+03  0.83155543203E+03  0.90566104869E+02 0.  0.
         11    1    3    3    0    0 -0.37576309244E+03  0.68232407114E+02 -0.41193615107E+03  0.56173388324E+03  0.00000000000E+00 0.  1.
        -11    1    3    3    0    0 -0.15634584620E+03  0.90658767418E+02 -0.20035127267E+03  0.26982154879E+03  0.00000000000E+00 0. -1.
         22    1    1    2    0    0  0.53210893863E+03 -0.15889117453E+03  0.81993393686E+03  0.99029187047E+03  0.00000000000E+00 0. -1.
<mgrwt>
<rscale>  0 0.18099753E+04</rscale>
<asrwt>0</asrwt>
<pdfrwt beam="1">  1        2 0.15611491E+00 0.18099753E+04</pdfrwt>
<pdfrwt beam="2">  1       -2 0.12416929E+00 0.18099753E+04</pdfrwt>
<totfact> 0.11336082E+01</totfact>
</mgrwt>
</event>
<event>
 6    1  0.9364335E-007  0.2804680E+04  0.7818608E-02  0.8301817E-01
         -2   -1    0    0    0  501 -0.00000000000E+00  0.00000000000E+00  0.80127244707E+03  0.80127244707E+03  0.00000000000E+00 0.  1.
          2   -1    0    0  501    0  0.00000000000E+00 -0.00000000000E+00 -0.24542937518E+04  0.24542937518E+04  0.00000000000E+00 0. -1.
         23    2    1    2    0    0  0.48873408455E+03 -0.12728043720E+04 -0.12008303106E+04  0.18191231370E+04  0.91233645001E+02 0.  0.
         11    1    3    3    0    0  0.21903581049E+03 -0.63952812468E+03 -0.54401820193E+03  0.86771464927E+03  0.00000000000E+00 0. -1.
        -11    1    3    3    0    0  0.26969827406E+03 -0.63327624734E+03 -0.65681210863E+03  0.95140848773E+03  0.00000000000E+00 0.  1.
         22    1    1    2    0    0 -0.48873408455E+03  0.12728043720E+04 -0.45219099419E+03  0.14364430619E+04  0.00000000000E+00 0.  1.
<mgrwt>
<rscale>  0 0.28046803E+04</rscale>
<asrwt>0</asrwt>
<pdfrwt beam="1">  1        2 0.37758365E+00 0.28046803E+04</pdfrwt>
<pdfrwt beam="2">  1       -2 0.12327269E+00 0.28046803E+04</pdfrwt>
<totfact> 0.15974680E+00</totfact>
</mgrwt>
</event>
<event>
 6    1  0.9364335E-007  0.2747890E+04  0.7818608E-02  0.8319631E-01
          2   -1    0    0  501    0  0.00000000000E+00  0.00000000000E+00  0.12481083912E+04  0.12481083912E+04  0.00000000000E+00 0. -1.
         -2   -1    0    0    0  501 -0.00000000000E+00 -0.00000000000E+00 -0.15124690594E+04  0.15124690594E+04  0.00000000000E+00 0.  1.
         23    2    1    2    0    0  0.10364674105E+04  0.28625823663E+03 -0.98916184476E+03  0.14638333676E+04  0.90324425561E+02 0.  0.
         13    1    3    3    0    0  0.49068961111E+03  0.96987316013E+02 -0.42453714583E+03  0.65605992265E+03  0.00000000000E+00 0. -1.
        -13    1    3    3    0    0  0.54577779942E+03  0.18927092061E+03 -0.56462469893E+03  0.80777344495E+03  0.00000000000E+00 0.  1.
         22    1    1    2    0    0 -0.10364674105E+04 -0.28625823663E+03  0.72480117655E+03  0.12967440829E+04  0.00000000000E+00 0. -1.
<mgrwt>
<rscale>  0 0.27478903E+04</rscale>
<asrwt>0</asrwt>
<pdfrwt beam="1">  1        2 0.19201668E+00 0.27478903E+04</pdfrwt>
<pdfrwt beam="2">  1       -2 0.23268755E+00 0.27478903E+04</pdfrwt>
<totfact> 0.12746399E+00</totfact>
</mgrwt>
</event>
<event>
 6    1  0.9364335E-007  0.2268791E+04  0.7818608E-02  0.8490329E-01
          2   -1    0    0  501    0  0.00000000000E+00  0.00000000000E+00  0.12421596449E+04  0.12421596449E+04  0.00000000000E+00 0. -1.
         -2   -1    0    0    0  501 -0.00000000000E+00 -0.00000000000E+00 -0.10359806529E+04  0.10359806529E+04  0.00000000000E+00 0.  1.
         23    2    1    2    0    0  0.64545195544E+03 -0.60665260163E+03 -0.60550635952E+03  0.10766958689E+04  0.89445161278E+02 0.  0.
         13    1    3    3    0    0  0.33665811075E+03 -0.25603473580E+03 -0.29699439020E+03  0.51681538027E+03  0.00000000000E+00 0. -1.
        -13    1    3    3    0    0  0.30879384469E+03 -0.35061786582E+03 -0.30851196932E+03  0.55988048865E+03  0.00000000000E+00 0.  1.
         22    1    1    2    0    0 -0.64545195544E+03  0.60665260163E+03  0.81168535152E+03  0.12014444289E+04  0.00000000000E+00 0. -1.
<mgrwt>
<rscale>  0 0.22687912E+04</rscale>
<asrwt>0</asrwt>
<pdfrwt beam="1">  1        2 0.19110149E+00 0.22687912E+04</pdfrwt>
<pdfrwt beam="2">  1       -2 0.15938164E+00 0.22687912E+04</pdfrwt>
<totfact> 0.41368050E+00</totfact>
</mgrwt>
</event>
<event>
 6    1  0.9364335E-007  0.1647918E+04  0.7818608E-02  0.8791639E-01
         -2   -1    0    0    0  501 -0.00000000000E+00  0.00000000000E+00  0.13920066667E+04  0.13920066667E+04  0.00000000000E+00 0.  1.
          2   -1    0    0  501    0  0.00000000000E+00 -0.00000000000E+00 -0.48771948277E+03  0.48771948277E+03  0.00000000000E+00 0. -1.
         23    2    1    2    0    0 -0.17687640143E+03 -0.46604770476E+03 -0.29118556397E+03  0.58448840472E+03  0.91388938545E+02 0.  0.
         13    1    3    3    0    0 -0.45359917719E+02 -0.13974604897E+03 -0.13514902813E+03  0.19962900626E+03  0.00000000000E+00 0. -1.
        -13    1    3    3    0    0 -0.13151648371E+03 -0.32630165579E+03 -0.15603653584E+03  0.38485939845E+03  0.00000000000E+00 0.  1.
         22    1    1    2    0    0  0.17687640143E+03  0.46604770476E+03  0.11954727479E+04  0.12952377448E+04  0.00000000000E+00 0.  1.
<mgrwt>
<rscale>  0 0.16479184E+04</rscale>
<asrwt>0</asrwt>
<pdfrwt beam="1">  1        2 0.75033767E-01 0.16479184E+04</pdfrwt>
<pdfrwt beam="2">  1       -2 0.21415487E+00 0.16479184E+04</pdfrwt>
<totfact> 0.65160056E+00</totfact>
</mgrwt>
</event>
<event>
 6    1  0.9364335E-007  0.2375999E+04  0.7818608E-02  0.8448544E-01
          1   -1    0    0  501    0  0.00000000000E+00  0.00000000000E+00  0.25845963684E+04  0.25845963684E+04  0.00000000000E+00 0. -1.
         -1   -1    0    0    0  501 -0.00000000000E+00 -0.00000000000E+00 -0.54605909847E+03  0.54605909847E+03  0.00000000000E+00 0.  1.
         23    2    1    2    0    0 -0.65797699106E+03 -0.71944648334E+03  0.19107316730E+04  0.21473593600E+04  0.98588699427E+02 0.  0.
         13    1    3    3    0    0 -0.24948682183E+03 -0.33965999474E+03  0.86332461863E+03  0.96069869545E+03  0.00000000000E+00 0.  1.
        -13    1    3    3    0    0 -0.40849016923E+03 -0.37978648860E+03  0.10474070543E+04  0.11866606645E+04  0.00000000000E+00 0. -1.
         22    1    1    2    0    0  0.65797699106E+03  0.71944648334E+03  0.12780559693E+03  0.98329610686E+03  0.00000000000E+00 0.  1.
<mgrwt>
<rscale>  0 0.23759986E+04</rscale>
<asrwt>0</asrwt>
<pdfrwt beam="1">  1        1 0.39763020E+00 0.23759986E+04</pdfrwt>
<pdfrwt beam="2">  1       -1 0.84009094E-01 0.23759986E+04</pdfrwt>
<totfact> 0.14914033E+00</totfact>
</mgrwt>
</event>
<event>
 6    1  0.9364335E-007  0.1450233E+04  0.7818608E-02  0.8918239E-01
         -2   -1    0    0    0  501 -0.00000000000E+00  0.00000000000E+00  0.47482652083E+03  0.47482652083E+03  0.00000000000E+00 0.  1.
          2   -1    0    0  501    0  0.00000000000E+00 -0.00000000000E+00 -0.11073383068E+04  0.11073383068E+04  0.00000000000E+00 0. -1.
         23    2    1    2    0    0  0.23918722612E+03  0.34003806432E+03  0.32675417587E+03  0.53668522484E+03  0.91795015098E+02 0.  0.
         11    1    3    3    0    0  0.14983073713E+03  0.18160770308E+03  0.23620138610E+03  0.33349917901E+03  0.00000000000E+00 0. -1.
        -11    1    3    3    0    0  0.89356488986E+02  0.15843036124E+03  0.90552789769E+02  0.20318604583E+03  0.00000000000E+00 0.  1.
         22    1    1    2    0    0 -0.23918722612E+03 -0.34003806432E+03 -0.95926596187E+03  0.10454796028E+04  0.00000000000E+00 0. -1.
<mgrwt>
<rscale>  0 0.14502325E+04</rscale>
<asrwt>0</asrwt>
<pdfrwt beam="1">  1        2 0.17035974E+00 0.14502325E+04</pdfrwt>
<pdfrwt beam="2">  1       -2 0.73050235E-01 0.14502325E+04</pdfrwt>
<totfact> 0.35396427E+01</totfact>
</mgrwt>
</event>
<event>
 6    1  0.9364335E-007  0.2504276E+04  0.7818608E-02  0.8401464E-01
         -2   -1    0    0    0  501 -0.00000000000E+00  0.00000000000E+00  0.40756815001E+03  0.40756815001E+03  0.00000000000E+00 0.  1.
          2   -1    0    0  501    0  0.00000000000E+00 -0.00000000000E+00 -0.38468399840E+04  0.38468399840E+04  0.00000000000E+00 0. -1.
         23    2    1    2    0    0 -0.16522885793E+03  0.75794071988E+03 -0.55547159399E+02  0.78290019310E+03  0.89847176332E+02 0.  0.
         11    1    3    3    0    0 -0.73987808197E+02  0.43118008527E+03 -0.71398691440E+02  0.44326993450E+03  0.00000000000E+00 0. -1.
        -11    1    3    3    0    0 -0.91241049729E+02  0.32676063461E+03  0.15851532040E+02  0.33963025860E+03  0.00000000000E+00 0.  1.
         22    1    1    2    0    0  0.16522885793E+03 -0.75794071988E+03 -0.33837246746E+04  0.34715079409E+04  0.00000000000E+00 0. -1.
<mgrwt>
<rscale>  0 0.25042759E+04</rscale>
<asrwt>0</asrwt>
<pdfrwt beam="1">  1        2 0.59182155E+00 0.25042759E+04</pdfrwt>
<pdfrwt beam="2">  1       -2 0.62702791E-01 0.25042759E+04</pdfrwt>
<totfact> 0.95320661E-01</totfact>
</mgrwt>
</event>
<event>
 6    1  0.9364335E-007  0.9245699E+03  0.7818608E-02  0.9395378E-01
         -1   -1    0    0    0  501 -0.00000000000E+00  0.00000000000E+00  0.21393949757E+03  0.21393949757E+03  0.00000000000E+00 0.  1.
          1   -1    0    0  501    0  0.00000000000E+00 -0.00000000000E+00 -0.99891508742E+03  0.99891508742E+03  0.00000000000E+00 0. -1.
         23    2    1    2    0    0 -0.30136856601E+03  0.33255402364E+03 -0.28180276480E+03  0.53861569328E+03  0.96326920340E+02 0.  0.
         11    1    3    3    0    0 -0.51957510590E+02  0.12177684948E+03 -0.77067331469E+02  0.15319450890E+03  0.00000000000E+00 0. -1.
        -11    1    3    3    0    0 -0.24941105542E+03  0.21077717416E+03 -0.20473543333E+03  0.38542118439E+03  0.00000000000E+00 0.  1.
         22    1    1    2    0    0  0.30136856601E+03 -0.33255402364E+03 -0.50317282505E+03  0.67423889171E+03  0.00000000000E+00 0. -1.
<mgrwt>
<rscale>  0 0.92456994E+03</rscale>
<asrwt>0</asrwt>
<pdfrwt beam="1">  1        1 0.15367925E+00 0.92456994E+03</pdfrwt>
<pdfrwt beam="2">  1       -1 0.32913768E-01 0.92456994E+03</pdfrwt>
<totfact> 0.13198553E+02</totfact>
</mgrwt>
</event>
<event>
 6    1  0.9364335E-007  0.1878697E+04  0.7818608E-02  0.8665533E-01
         -2   -1    0    0    0  501 -0.00000000000E+00  0.00000000000E+00  0.31327314708E+03  0.31327314708E+03  0.00000000000E+00 0.  1.
          2   -1    0    0  501    0  0.00000000000E+00 -0.00000000000E+00 -0.28166343277E+04  0.28166343277E+04  0.00000000000E+00 0. -1.
         23    2    1    2    0    0  0.22467025622E+03  0.60969208447E+03 -0.12931269491E+03  0.66854456485E+03  0.89604130632E+02 0.  0.
         11    1    3    3    0    0  0.48973661889E+02  0.11524309029E+03 -0.61303734679E+02  0.13941856872E+03  0.00000000000E+00 0. -1.
        -11    1    3    3    0    0  0.17569659433E+03  0.49444899419E+03 -0.68008960232E+02  0.52912599613E+03  0.00000000000E+00 0.  1.
         22    1    1    2    0    0 -0.22467025622E+03 -0.60969208447E+03 -0.23740484857E+04  0.24613629099E+04  0.00000000000E+00 0. -1.
<mgrwt>
<rscale>  0 0.18786973E+04</rscale>
<asrwt>0</asrwt>
<pdfrwt beam="1">  1        2 0.43332835E+00 0.18786973E+04</pdfrwt>
<pdfrwt beam="2">  1       -2 0.48195870E-01 0.18786973E+04</pdfrwt>
<totfact> 0.86632882E+00</totfact>
</mgrwt>
</event>
<event>
 6    1  0.9364335E-007  0.2235140E+04  0.7818608E-02  0.8503943E-01
          2   -1    0    0  501    0  0.00000000000E+00  0.00000000000E+00  0.19305777402E+04  0.19305777402E+04  0.00000000000E+00 0. -1.
         -2   -1    0    0    0  501 -0.00000000000E+00 -0.00000000000E+00 -0.64693698829E+03  0.64693698829E+03  0.00000000000E+00 0.  1.
         23    2    1    2    0    0 -0.68321519515E+03 -0.42950066539E+03 -0.24549760235E+03  0.84849248141E+03  0.91741995815E+02 0.  0.
         11    1    3    3    0    0 -0.41470188489E+03 -0.29583235718E+03 -0.11998176273E+03  0.52334506807E+03  0.00000000000E+00 0.  1.
        -11    1    3    3    0    0 -0.26851331025E+03 -0.13366830821E+03 -0.12551583962E+03  0.32514741334E+03  0.00000000000E+00 0. -1.
         22    1    1    2    0    0  0.68321519515E+03  0.42950066539E+03  0.15291383542E+04  0.17290222471E+04  0.00000000000E+00 0. -1.
<mgrwt>
<rscale>  0 0.22351395E+04</rscale>
<asrwt>0</asrwt>
<pdfrwt beam="1">  1        2 0.29701196E+00 0.22351395E+04</pdfrwt>
<pdfrwt beam="2">  1       -2 0.99528768E-01 0.22351395E+04</pdfrwt>
<totfact> 0.55590300E+00</totfact>
</mgrwt>
</event>
<event>
 6    1  0.9364335E-007  0.3150781E+04  0.7818608E-02  0.8201938E-01
          1   -1    0    0  501    0  0.00000000000E+00  0.00000000000E+00  0.16667621892E+04  0.16667621892E+04  0.00000000000E+00 0. -1.
         -1   -1    0    0    0  501 -0.00000000000E+00 -0.00000000000E+00 -0.14890274621E+04  0.14890274621E+04  0.00000000000E+00 0.  1.
         23    2    1    2    0    0 -0.36586321540E+03 -0.34219696191E+03 -0.14056507750E+04  0.14950475577E+04  0.91424533825E+02 0.  0.
         13    1    3    3    0    0 -0.21867773284E+03 -0.17923784561E+03 -0.91043575431E+03  0.95333069754E+03  0.00000000000E+00 0.  1.
        -13    1    3    3    0    0 -0.14718548256E+03 -0.16295911630E+03 -0.49521502068E+03  0.54171686015E+03  0.00000000000E+00 0. -1.
         22    1    1    2    0    0  0.36586321540E+03  0.34219696191E+03  0.15833855022E+04  0.16607420936E+04  0.00000000000E+00 0. -1.
<mgrwt>
<rscale>  0 0.31507806E+04</rscale>
<asrwt>0</asrwt>
<pdfrwt beam="1">  1        1 0.25642495E+00 0.31507806E+04</pdfrwt>
<pdfrwt beam="2">  1       -1 0.22908115E+00 0.31507806E+04</pdfrwt>
<totfact> 0.40392329E-01</totfact>
</mgrwt>
</event>
<event>
 6    1  0.9364335E-007  0.2118551E+04  0.7818608E-02  0.8553115E-01
          1   -1    0    0  501    0  0.00000000000E+00  0.00000000000E+00  0.96092161975E+03  0.96092161975E+03  0.00000000000E+00 0. -1.
         -1   -1    0    0    0  501 -0.00000000000E+00 -0.00000000000E+00 -0.11676967484E+04  0.11676967484E+04  0.00000000000E+00 0.  1.
         23    2    1    2    0    0 -0.93058875963E+03 -0.46632347598E+03  0.82695196216E+02  0.10482267295E+04  0.92129025068E+02 0.  0.
         11    1    3    3    0    0 -0.53989863638E+03 -0.31226668458E+03  0.74966234027E+02  0.62818863099E+03  0.00000000000E+00 0. -1.
        -11    1    3    3    0    0 -0.39069012325E+03 -0.15405679140E+03  0.77289621897E+01  0.42003809856E+03  0.00000000000E+00 0.  1.
         22    1    1    2    0    0  0.93058875963E+03  0.46632347598E+03 -0.28947032486E+03  0.10803916386E+04  0.00000000000E+00 0. -1.
<mgrwt>
<rscale>  0 0.21185514E+04</rscale>
<asrwt>0</asrwt>
<pdfrwt beam="1">  1        1 0.14783410E+00 0.21185514E+04</pdfrwt>
<pdfrwt beam="2">  1       -1 0.17964565E+00 0.21185514E+04</pdfrwt>
<totfact> 0.31225131E+00</totfact>
</mgrwt>
</event>
<event>
 6    1  0.9364335E-007  0.1268211E+04  0.7818608E-02  0.9055161E-01
          1   -1    0    0  501    0  0.00000000000E+00  0.00000000000E+00  0.45111478017E+03  0.45111478017E+03  0.00000000000E+00 0. -1.
         -1   -1    0    0    0  501 -0.00000000000E+00 -0.00000000000E+00 -0.89132536596E+03  0.89132536596E+03  0.00000000000E+00 0.  1.
         23    2    1    2    0    0  0.36342424134E+03 -0.49100126019E+03 -0.38784291725E+03  0.72933184459E+03  0.91342182926E+02 0.  0.
         11    1    3    3    0    0  0.30029556034E+03 -0.36471262630E+03 -0.33237860503E+03  0.57764025173E+03  0.00000000000E+00 0.  1.
        -11    1    3    3    0    0  0.63128680991E+02 -0.12628863390E+03 -0.55464312218E+02  0.15169159286E+03  0.00000000000E+00 0. -1.
         22    1    1    2    0    0 -0.36342424134E+03  0.49100126019E+03 -0.52367668545E+02  0.61310830153E+03  0.00000000000E+00 0. -1.
<mgrwt>
<rscale>  0 0.12682114E+04</rscale>
<asrwt>0</asrwt>
<pdfrwt beam="1">  1        1 0.69402275E-01 0.12682114E+04</pdfrwt>
<pdfrwt beam="2">  1       -1 0.13712698E+00 0.12682114E+04</pdfrwt>
<totfact> 0.22241100E+01</totfact>
</mgrwt>
</event>
<event>
 6    1  0.9364335E-007  0.2261541E+04  0.7818608E-02  0.8493241E-01
         -2   -1    0    0    0  501 -0.00000000000E+00  0.00000000000E+00  0.47564262165E+03  0.47564262165E+03  0.00000000000E+00 0.  1.
          2   -1    0    0  501    0  0.00000000000E+00 -0.00000000000E+00 -0.26882405549E+04  0.26882405549E+04  0.00000000000E+00 0. -1.
         23    2    1    2    0    0  0.39203123430E+03 -0.30921640796E+03 -0.25246691598E+04  0.25750778386E+04  0.88137579727E+02 0.  0.
         11    1    3    3    0    0  0.31385889134E+03 -0.20505723666E+03 -0.17721294462E+04  0.18113527122E+04  0.00000000000E+00 0. -1.
        -11    1    3    3    0    0  0.78172342959E+02 -0.10415917131E+03 -0.75253971358E+03  0.76372512639E+03  0.00000000000E+00 0.  1.
         22    1    1    2    0    0 -0.39203123430E+03  0.30921640796E+03  0.31207122649E+03  0.58880533797E+03  0.00000000000E+00 0.  1.
<mgrwt>
<rscale>  0 0.22615409E+04</rscale>
<asrwt>0</asrwt>
<pdfrwt beam="1">  1        2 0.41357548E+00 0.22615409E+04</pdfrwt>
<pdfrwt beam="2">  1       -2 0.73175786E-01 0.22615409E+04</pdfrwt>
<totfact> 0.41397295E+00</totfact>
</mgrwt>
</event>
<event>
 6    1  0.9364335E-007  0.2915806E+04  0.7818608E-02  0.8268190E-01
         -2   -1    0    0    0  501 -0.00000000000E+00  0.00000000000E+00  0.78477365815E+03  0.78477365815E+03  0.00000000000E+00 0.  1.
          2   -1    0    0  501    0  0.00000000000E+00 -0.00000000000E+00 -0.27083998881E+04  0.27083998881E+04  0.00000000000E+00 0. -1.
         23    2    1    2    0    0 -0.91663735284E+03  0.90006851217E+03 -0.14071125988E+03  0.12956446719E+04  0.92455902031E+02 0.  0.
         13    1    3    3    0    0 -0.80576695053E+03  0.75775302124E+03 -0.14244651395E+03  0.11152313792E+04  0.00000000000E+00 0. -1.
        -13    1    3    3    0    0 -0.11087040231E+03  0.14231549093E+03  0.17352540730E+01  0.18041329267E+03  0.00000000000E+00 0.  1.
         22    1    1    2    0    0  0.91663735284E+03 -0.90006851217E+03 -0.17829149700E+04  0.21975288743E+04  0.00000000000E+00 0. -1.
<mgrwt>
<rscale>  0 0.29158058E+04</rscale>
<asrwt>0</asrwt>
<pdfrwt beam="1">  1        2 0.41667690E+00 0.29158058E+04</pdfrwt>
<pdfrwt beam="2">  1       -2 0.12073441E+00 0.29158058E+04</pdfrwt>
<totfact> 0.11829303E+00</totfact>
</mgrwt>
</event>
<event>
 6    1  0.9364335E-007  0.2207940E+04  0.7818608E-02  0.8515131E-01
          1   -1    0    0  501    0  0.00000000000E+00  0.00000000000E+00  0.69226563943E+03  0.69226563943E+03  0.00000000000E+00 0. -1.
         -1   -1    0    0    0  501 -0.00000000000E+00 -0.00000000000E+00 -0.17605230885E+04  0.17605230885E+04  0.00000000000E+00 0.  1.
         23    2    1    2    0    0 -0.66275780912E+03 -0.65740056454E+03 -0.11860046764E+04  0.15118913768E+04  0.88232798803E+02 0.  0.
         11    1    3    3    0    0 -0.37611571820E+02 -0.19334665405E+02 -0.77247737633E+02  0.88066296564E+02  0.00000000000E+00 0.  1.
        -11    1    3    3    0    0 -0.62514623730E+03 -0.63806589914E+03 -0.11087569388E+04  0.14238250802E+04  0.00000000000E+00 0. -1.
         22    1    1    2    0    0  0.66275780912E+03  0.65740056454E+03  0.11774722739E+03  0.94089735113E+03  0.00000000000E+00 0. -1.
<mgrwt>
<rscale>  0 0.22079399E+04</rscale>
<asrwt>0</asrwt>
<pdfrwt beam="1">  1        1 0.10650241E+00 0.22079399E+04</pdfrwt>
<pdfrwt beam="2">  1       -1 0.27084970E+00 0.22079399E+04</pdfrwt>
<totfact> 0.12880135E+00</totfact>
</mgrwt>
</event>
<event>
 6    1  0.9364335E-007  0.2619049E+04  0.7818608E-02  0.8361759E-01
         -2   -1    0    0    0  501 -0.00000000000E+00  0.00000000000E+00  0.89770046054E+03  0.89770046054E+03  0.00000000000E+00 0.  1.
          2   -1    0    0  501    0  0.00000000000E+00 -0.00000000000E+00 -0.19102751774E+04  0.19102751774E+04  0.00000000000E+00 0. -1.
         23    2    1    2    0    0  0.10380770807E+04 -0.50148553578E+02 -0.13583888696E+04  0.17126645721E+04  0.88773377042E+02 0.  0.
         11    1    3    3    0    0  0.64962207978E+03 -0.25706930184E+02 -0.77853142407E+03  0.10142883570E+04  0.00000000000E+00 0. -1.
        -11    1    3    3    0    0  0.38845500089E+03 -0.24441623394E+02 -0.57985744557E+03  0.69837621513E+03  0.00000000000E+00 0.  1.
         22    1    1    2    0    0 -0.10380770807E+04  0.50148553578E+02  0.34581415275E+03  0.10953110659E+04  0.00000000000E+00 0.  1.
<mgrwt>
<rscale>  0 0.26190494E+04</rscale>
<asrwt>0</asrwt>
<pdfrwt beam="1">  1        2 0.29388849E+00 0.26190494E+04</pdfrwt>
<pdfrwt beam="2">  1       -2 0.13810776E+00 0.26190494E+04</pdfrwt>
<totfact> 0.24629041E+00</totfact>
</mgrwt>
</event>
<event>
 6    1  0.9364335E-007  0.1650494E+04  0.7818608E-02  0.8790114E-01
          2   -1    0    0  501    0  0.00000000000E+00  0.00000000000E+00  0.12258603414E+04  0.12258603414E+04  0.00000000000E+00 0. -1.
         -2   -1    0    0    0  501 -0.00000000000E+00 -0.00000000000E+00 -0.55555461127E+03  0.55555461127E+03  0.00000000000E+00 0.  1.
         23    2    1    2    0    0  0.36362377800E+02 -0.14151452691E+03  0.12099879007E+04  0.12223036677E+04  0.92773662164E+02 0.  0.
         13    1    3    3    0    0  0.24379199296E+02 -0.48869498980E+02  0.79759577201E+03  0.79946331299E+03  0.00000000000E+00 0. -1.
        -13    1    3    3    0    0  0.11983178504E+02 -0.92645027927E+02  0.41239212866E+03  0.42284035468E+03  0.00000000000E+00 0.  1.
         22    1    1    2    0    0 -0.36362377800E+02  0.14151452691E+03 -0.53968217053E+03  0.55911128501E+03  0.00000000000E+00 0.  1.
<mgrwt>
<rscale>  0 0.16504937E+04</rscale>
<asrwt>0</asrwt>
<pdfrwt beam="1">  1        2 0.18859390E+00 0.16504937E+04</pdfrwt>
<pdfrwt beam="2">  1       -2 0.85469941E-01 0.16504937E+04</pdfrwt>
<totfact> 0.20779239E+01</totfact>
</mgrwt>
</event>
<event>
 6    1  0.9364335E-007  0.3378815E+04  0.7818608E-02  0.8143125E-01
          2   -1    0    0  501    0  0.00000000000E+00  0.00000000000E+00  0.31413108885E+04  0.31413108885E+04  0.00000000000E+00 0. -1.
         -2   -1    0    0    0  501 -0.00000000000E+00 -0.00000000000E+00 -0.90856922739E+03  0.90856922739E+03  0.00000000000E+00 0.  1.
         23    2    1    2    0    0 -0.27137604138E+03 -0.16252319364E+04  0.15575461280E+04  0.22691744100E+04  0.90436491523E+02 0.  0.
         13    1    3    3    0    0 -0.11182293810E+03 -0.57321993792E+03  0.49720476836E+03  0.76700589855E+03  0.00000000000E+00 0.  1.
        -13    1    3    3    0    0 -0.15955310327E+03 -0.10520119985E+04  0.10603413597E+04  0.15021685115E+04  0.00000000000E+00 0. -1.
         22    1    1    2    0    0  0.27137604138E+03  0.16252319364E+04  0.67519553305E+03  0.17807057059E+04  0.00000000000E+00 0.  1.
<mgrwt>
<rscale>  0 0.33788154E+04</rscale>
<asrwt>0</asrwt>
<pdfrwt beam="1">  1        2 0.48327859E+00 0.33788154E+04</pdfrwt>
<pdfrwt beam="2">  1       -2 0.13977988E+00 0.33788154E+04</pdfrwt>
<totfact> 0.42327847E-01</totfact>
</mgrwt>
</event>
<event>
 6    1  0.9364335E-007  0.9108604E+03  0.7818608E-02  0.9412106E-01
         -2   -1    0    0    0  501 -0.00000000000E+00  0.00000000000E+00  0.49523218448E+03  0.49523218448E+03  0.00000000000E+00 0.  1.
          2   -1    0    0  501    0  0.00000000000E+00 -0.00000000000E+00 -0.41882713611E+03  0.41882713611E+03  0.00000000000E+00 0. -1.
         23    2    1    2    0    0  0.24255420888E+03  0.35810737152E+03 -0.88807646588E+02  0.45105967874E+03  0.92166164688E+02 0.  0.
         13    1    3    3    0    0  0.97787530972E+02  0.10909947046E+03  0.92306207899E+01  0.14680020446E+03  0.00000000000E+00 0.  1.
        -13    1    3    3    0    0  0.14476667790E+03  0.24900790106E+03 -0.98038267378E+02  0.30425947428E+03  0.00000000000E+00 0. -1.
         22    1    1    2    0    0 -0.24255420888E+03 -0.35810737152E+03  0.16521269497E+03  0.46299964185E+03  0.00000000000E+00 0.  1.
<mgrwt>
<rscale>  0 0.91086042E+03</rscale>
<asrwt>0</asrwt>
<pdfrwt beam="1">  1        2 0.64434944E-01 0.91086042E+03</pdfrwt>
<pdfrwt beam="2">  1       -2 0.76189567E-01 0.91086042E+03</pdfrwt>
<totfact> 0.11679654E+02</totfact>
</mgrwt>
</event>
<event>
 6    1  0.9364335E-007  0.9930818E+03  0.7818608E-02  0.9316165E-01
          1   -1    0    0  501    0  0.00000000000E+00  0.00000000000E+00  0.59246529849E+03  0.59246529849E+03  0.00000000000E+00 0. -1.
         -1   -1    0    0    0  501 -0.00000000000E+00 -0.00000000000E+00 -0.41614737931E+03  0.41614737931E+03  0.00000000000E+00 0.  1.
         23    2    1    2    0    0  0.23079577478E+03 -0.27716221206E+03 -0.25091720346E+03  0.44949244792E+03  0.94860087997E+02 0.  0.
         13    1    3    3    0    0  0.87862541221E+02 -0.94705457852E+02 -0.37734043319E+02  0.13458383232E+03  0.00000000000E+00 0. -1.
        -13    1    3    3    0    0  0.14293323356E+03 -0.18245675421E+03 -0.21318316014E+03  0.31490861560E+03  0.00000000000E+00 0.  1.
         22    1    1    2    0    0 -0.23079577478E+03  0.27716221206E+03  0.42723512264E+03  0.55912022988E+03  0.00000000000E+00 0.  1.
<mgrwt>
<rscale>  0 0.99308183E+03</rscale>
<asrwt>0</asrwt>
<pdfrwt beam="1">  1        1 0.91148507E-01 0.99308183E+03</pdfrwt>
<pdfrwt beam="2">  1       -1 0.64022674E-01 0.99308183E+03</pdfrwt>
<totfact> 0.86583285E+01</totfact>
</mgrwt>
</event>
<event>
 6    1  0.9364335E-007  0.1803857E+04  0.7818608E-02  0.8704251E-01
          1   -1    0    0  501    0  0.00000000000E+00  0.00000000000E+00  0.94189840832E+03  0.94189840832E+03  0.00000000000E+00 0. -1.
         -1   -1    0    0    0  501 -0.00000000000E+00 -0.00000000000E+00 -0.86365426097E+03  0.86365426097E+03  0.00000000000E+00 0.  1.
         23    2    1    2    0    0 -0.76273251682E+03 -0.46238518168E+03  0.15649671043E+03  0.91018435843E+03  0.91560895072E+02 0.  0.
         13    1    3    3    0    0 -0.55482483924E+03 -0.32814734915E+03  0.15378095705E+03  0.66269138198E+03  0.00000000000E+00 0.  1.
        -13    1    3    3    0    0 -0.20790767758E+03 -0.13423783253E+03  0.27157533779E+01  0.24749297645E+03  0.00000000000E+00 0. -1.
         22    1    1    2    0    0  0.76273251682E+03  0.46238518168E+03 -0.78252563087E+02  0.89536831086E+03  0.00000000000E+00 0. -1.
<mgrwt>
<rscale>  0 0.18038565E+04</rscale>
<asrwt>0</asrwt>
<pdfrwt beam="1">  1        1 0.14490745E+00 0.18038565E+04</pdfrwt>
<pdfrwt beam="2">  1       -1 0.13286989E+00 0.18038565E+04</pdfrwt>
<totfact> 0.76155849E+00</totfact>
</mgrwt>
</event>
<event>
 6    1  0.9364335E-007  0.5831751E+04  0.7818608E-02  0.7711620E-01
         -2   -1    0    0    0  501 -0.00000000000E+00  0.00000000000E+00  0.33098030116E+04  0.33098030116E+04  0.00000000000E+00 0.  1.
          2   -1    0    0  501    0  0.00000000000E+00 -0.00000000000E+00 -0.25688330452E+04  0.25688330452E+04  0.00000000000E+00 0. -1.
         23    2    1    2    0    0 -0.66867141136E+03 -0.44705566150E+03  0.31951306223E+04  0.32960240562E+04  0.89076736078E+02 0.  0.
         13    1    3    3    0    0 -0.24510239933E+03 -0.17713471249E+03  0.13752180911E+04  0.14080755273E+04  0.00000000000E+00 0. -1.
        -13    1    3    3    0    0 -0.42356901203E+03 -0.26992094902E+03  0.18199125312E+04  0.18879485289E+04  0.00000000000E+00 0.  1.
         22    1    1    2    0    0  0.66867141136E+03  0.44705566150E+03 -0.24541606558E+04  0.25826120006E+04  0.00000000000E+00 0. -1.
<mgrwt>
<rscale>  0 0.58317515E+04</rscale>
<asrwt>0</asrwt>
<pdfrwt beam="1">  1        2 0.39520509E+00 0.58317515E+04</pdfrwt>
<pdfrwt beam="2">  1       -2 0.50920046E+00 0.58317515E+04</pdfrwt>
<totfact> 0.31735222E-03</totfact>
</mgrwt>
</event>
<event>
 6    1  0.9364335E-007  0.1831133E+04  0.7818608E-02  0.8689917E-01
         -1   -1    0    0    0  501 -0.00000000000E+00  0.00000000000E+00  0.37626874137E+03  0.37626874137E+03  0.00000000000E+00 0.  1.
          1   -1    0    0  501    0  0.00000000000E+00 -0.00000000000E+00 -0.22278269006E+04  0.22278269006E+04  0.00000000000E+00 0. -1.
         23    2    1    2    0    0  0.31430023193E+03 -0.64805541570E+03 -0.12920457075E+03  0.73720990863E+03  0.89577735336E+02 0.  0.
         11    1    3    3    0    0  0.29157327225E+03 -0.62498126476E+03 -0.13870138958E+03  0.70345904633E+03  0.00000000000E+00 0.  1.
        -11    1    3    3    0    0  0.22726959682E+02 -0.23074150937E+02  0.94968188315E+01  0.33750862297E+02  0.00000000000E+00 0. -1.
         22    1    1    2    0    0 -0.31430023193E+03  0.64805541570E+03 -0.17223535884E+04  0.18668857333E+04  0.00000000000E+00 0. -1.
<mgrwt>
<rscale>  0 0.18311326E+04</rscale>
<asrwt>0</asrwt>
<pdfrwt beam="1">  1        1 0.34274260E+00 0.18311326E+04</pdfrwt>
<pdfrwt beam="2">  1       -1 0.57887499E-01 0.18311326E+04</pdfrwt>
<totfact> 0.59349725E+00</totfact>
</mgrwt>
</event>
<event>
 6    1  0.9364335E-007  0.1349147E+04  0.7818608E-02  0.8991474E-01
         -2   -1    0    0    0  501 -0.00000000000E+00  0.00000000000E+00  0.16772387663E+03  0.16772387663E+03  0.00000000000E+00 0.  1.
          2   -1    0    0  501    0  0.00000000000E+00 -0.00000000000E+00 -0.27130864249E+04  0.27130864249E+04  0.00000000000E+00 0. -1.
         23    2    1    2    0    0 -0.55950534670E+03  0.34787792447E+03 -0.15560134346E+04  0.16921652948E+04  0.90444971742E+02 0.  0.
         11    1    3    3    0    0 -0.39838460457E+01  0.17745690437E+02 -0.31990770372E+02  0.36799319931E+02  0.00000000000E+00 0. -1.
        -11    1    3    3    0    0 -0.55552150065E+03  0.33013223403E+03 -0.15240226643E+04  0.16553659749E+04  0.00000000000E+00 0.  1.
         22    1    1    2    0    0  0.55950534670E+03 -0.34787792447E+03 -0.98934911363E+03  0.11886450067E+04  0.00000000000E+00 0.  1.
<mgrwt>
<rscale>  0 0.13491469E+04</rscale>
<asrwt>0</asrwt>
<pdfrwt beam="1">  1        2 0.41739786E+00 0.13491469E+04</pdfrwt>
<pdfrwt beam="2">  1       -2 0.25803677E-01 0.13491469E+04</pdfrwt>
<totfact> 0.34728611E+01</totfact>
</mgrwt>
</event>
<event>
 6    1  0.9364335E-007  0.1549909E+04  0.7818608E-02  0.8851926E-01
         -2   -1    0    0    0  501 -0.00000000000E+00  0.00000000000E+00  0.30299449342E+03  0.30299449342E+03  0.00000000000E+00 0.  1.
          2   -1    0    0  501    0  0.00000000000E+00 -0.00000000000E+00 -0.19820646926E+04  0.19820646926E+04  0.00000000000E+00 0. -1.
         23    2    1    2    0    0 -0.18908779280E+03  0.38197864080E+03  0.10718941333E+03  0.44865365381E+03  0.90214496279E+02 0.  0.
         13    1    3    3    0    0 -0.12936637945E+03  0.27660458319E+03  0.11728859695E+03  0.32711216814E+03  0.00000000000E+00 0. -1.
        -13    1    3    3    0    0 -0.59721413356E+02  0.10537405761E+03 -0.10099183615E+02  0.12154148567E+03  0.00000000000E+00 0.  1.
         22    1    1    2    0    0  0.18908779280E+03 -0.38197864080E+03 -0.17862596125E+04  0.18364055322E+04  0.00000000000E+00 0. -1.
<mgrwt>
<rscale>  0 0.15499093E+04</rscale>
<asrwt>0</asrwt>
<pdfrwt beam="1">  1        2 0.30493303E+00 0.15499093E+04</pdfrwt>
<pdfrwt beam="2">  1       -2 0.46614537E-01 0.15499093E+04</pdfrwt>
<totfact> 0.28718332E+01</totfact>
</mgrwt>
</event>
<event>
 6    1  0.9364335E-007  0.2086056E+04  0.7818608E-02  0.8567411E-01
         -2   -1    0    0    0  501 -0.00000000000E+00  0.00000000000E+00  0.51584166316E+03  0.51584166316E+03  0.00000000000E+00 0.  1.
          2   -1    0    0  501    0  0.00000000000E+00 -0.00000000000E+00 -0.21089944026E+04  0.21089944026E+04  0.00000000000E+00 0. -1.
         23    2    1    2    0    0 -0.56211380747E+03  0.54314586115E+03 -0.16633398194E+04  0.18400395410E+04  0.89815358624E+02 0.  0.
         11    1    3    3    0    0 -0.41331912790E+03  0.35739897521E+03 -0.10908097064E+04  0.12200133378E+04  0.00000000000E+00 0.  1.
        -11    1    3    3    0    0 -0.14879467958E+03  0.18574688593E+03 -0.57253011306E+03  0.62002620321E+03  0.00000000000E+00 0. -1.
         22    1    1    2    0    0  0.56211380747E+03 -0.54314586115E+03  0.70187079986E+02  0.78479652473E+03  0.00000000000E+00 0.  1.
<mgrwt>
<rscale>  0 0.20860558E+04</rscale>
<asrwt>0</asrwt>
<pdfrwt beam="1">  1        2 0.32446067E+00 0.20860558E+04</pdfrwt>
<pdfrwt beam="2">  1       -2 0.79360257E-01 0.20860558E+04</pdfrwt>
<totfact> 0.75415430E+00</totfact>
</mgrwt>
</event>
<event>
 6    1  0.9364335E-007  0.6108759E+03  0.7818608E-02  0.9883096E-01
         -2   -1    0    0    0  501 -0.00000000000E+00  0.00000000000E+00  0.99662324775E+02  0.99662324775E+02  0.00000000000E+00 0.  1.
          2   -1    0    0  501    0  0.00000000000E+00 -0.00000000000E+00 -0.93608419612E+03  0.93608419612E+03  0.00000000000E+00 0. -1.
         23    2    1    2    0    0 -0.96800092429E+02 -0.27327869400E+03 -0.30931699138E+03  0.43417270416E+03  0.93687957584E+02 0.  0.
         13    1    3    3    0    0 -0.82933331942E+02 -0.15462529920E+03 -0.23574038358E+03  0.29387148407E+03  0.00000000000E+00 0.  1.
        -13    1    3    3    0    0 -0.13866760487E+02 -0.11865339480E+03 -0.73576607799E+02  0.14030122010E+03  0.00000000000E+00 0. -1.
         22    1    1    2    0    0  0.96800092429E+02  0.27327869400E+03 -0.52710487997E+03  0.60157381673E+03  0.00000000000E+00 0. -1.
<mgrwt>
<rscale>  0 0.61087585E+03</rscale>
<asrwt>0</asrwt>
<pdfrwt beam="1">  1        2 0.14401295E+00 0.61087585E+03</pdfrwt>
<pdfrwt beam="2">  1       -2 0.15332666E-01 0.61087585E+03</pdfrwt>
<totfact> 0.94272368E+02</totfact>
</mgrwt>
</event>
<event>
 6    1  0.9364335E-007  0.2318785E+04  0.7818608E-02  0.8470551E-01
         -1   -1    0    0    0  501 -0.00000000000E+00  0.00000000000E+00  0.70366172091E+03  0.70366172091E+03  0.00000000000E+00 0.  1.
          1   -1    0    0  501    0  0.00000000000E+00 -0.00000000000E+00 -0.19102796294E+04  0.19102796294E+04  0.00000000000E+00 0. -1.
         23    2    1    2    0    0  0.58306512971E+03  0.87413375089E+03 -0.11519779212E+04  0.15617720254E+04  0.89464901639E+02 0.  0.
         11    1    3    3    0    0  0.24474939342E+03  0.31619167108E+03 -0.38931612943E+03  0.55807390826E+03  0.00000000000E+00 0. -1.
        -11    1    3    3    0    0  0.33831573629E+03  0.55794207982E+03 -0.76266179172E+03  0.10036981172E+04  0.00000000000E+00 0.  1.
         22    1    1    2    0    0 -0.58306512971E+03 -0.87413375089E+03 -0.54639987290E+02  0.10521693248E+04  0.00000000000E+00 0.  1.
<mgrwt>
<rscale>  0 0.23187847E+04</rscale>
<asrwt>0</asrwt>
<pdfrwt beam="1">  1        1 0.29388916E+00 0.23187847E+04</pdfrwt>
<pdfrwt beam="2">  1       -1 0.10825565E+00 0.23187847E+04</pdfrwt>
<totfact> 0.24517548E+00</totfact>
</mgrwt>
</event>
<event>
 6    1  0.9364335E-007  0.1212677E+04  0.7818608E-02  0.9101832E-01
          1   -1    0    0  501    0  0.00000000000E+00  0.00000000000E+00  0.13768638399E+04  0.13768638399E+04  0.00000000000E+00 0. -1.
         -1   -1    0    0    0  501 -0.00000000000E+00 -0.00000000000E+00 -0.26701737271E+03  0.26701737271E+03  0.00000000000E+00 0.  1.
         23    2    1    2    0    0  0.47098589885E+02  0.26252929854E+03  0.12911388392E+04  0.13213803074E+04  0.88693319440E+02 0.  0.
         13    1    3    3    0    0  0.47340067613E+02  0.14757931263E+03  0.55155980384E+03  0.57292141933E+03  0.00000000000E+00 0. -1.
        -13    1    3    3    0    0 -0.24147772802E+00  0.11494998591E+03  0.73957903532E+03  0.74845888802E+03  0.00000000000E+00 0.  1.
         22    1    1    2    0    0 -0.47098589885E+02 -0.26252929854E+03 -0.18129237197E+03  0.32250090527E+03  0.00000000000E+00 0.  1.
<mgrwt>
<rscale>  0 0.12126773E+04</rscale>
<asrwt>0</asrwt>
<pdfrwt beam="1">  1        1 0.21182520E+00 0.12126773E+04</pdfrwt>
<pdfrwt beam="2">  1       -1 0.41079596E-01 0.12126773E+04</pdfrwt>
<totfact> 0.45731466E+01</totfact>
</mgrwt>
</event>
<event>
 6    1  0.9364335E-007  0.2189324E+04  0.7818608E-02  0.8522885E-01
          2   -1    0    0  501    0  0.00000000000E+00  0.00000000000E+00  0.30800367363E+03  0.30800367363E+03  0.00000000000E+00 0. -1.
         -2   -1    0    0    0  501 -0.00000000000E+00 -0.00000000000E+00 -0.38904903697E+04  0.38904903697E+04  0.00000000000E+00 0.  1.
         23    2    1    2    0    0  0.94237987695E+03  0.19006294414E+03 -0.80825713558E+03  0.12624161476E+04  0.12732312194E+03 0.  0.
         13    1    3    3    0    0  0.49316918791E+03  0.15263200231E+03 -0.38408288656E+03  0.64345321491E+03  0.00000000000E+00 0. -1.
        -13    1    3    3    0    0  0.44921068905E+03  0.37430941828E+02 -0.42417424902E+03  0.61896293273E+03  0.00000000000E+00 0.  1.
         22    1    1    2    0    0 -0.94237987695E+03 -0.19006294414E+03 -0.27742295605E+04  0.29360778957E+04  0.00000000000E+00 0.  1.
<mgrwt>
<rscale>  0 0.21893244E+04</rscale>
<asrwt>0</asrwt>
<pdfrwt beam="1">  1        2 0.47385180E-01 0.21893244E+04</pdfrwt>
<pdfrwt beam="2">  1       -2 0.59853698E+00 0.21893244E+04</pdfrwt>
<totfact> 0.49183299E-02</totfact>
</mgrwt>
</event>
<event>
 6    1  0.9364335E-007  0.1294439E+04  0.7818608E-02  0.9033987E-01
          2   -1    0    0  501    0  0.00000000000E+00  0.00000000000E+00  0.57305649883E+03  0.57305649883E+03  0.00000000000E+00 0. -1.
         -2   -1    0    0    0  501 -0.00000000000E+00 -0.00000000000E+00 -0.73098007039E+03  0.73098007039E+03  0.00000000000E+00 0.  1.
         23    2    1    2    0    0  0.14821368852E+03 -0.62465458031E+03 -0.13080994455E+03  0.66146689133E+03  0.90920649807E+02 0.  0.
         11    1    3    3    0    0  0.16076954979E+03 -0.58048915660E+03 -0.12513736543E+03  0.61520229949E+03  0.00000000000E+00 0.  1.
        -11    1    3    3    0    0 -0.12555861275E+02 -0.44165423712E+02 -0.56725791106E+01  0.46264591837E+02  0.00000000000E+00 0. -1.
         22    1    1    2    0    0 -0.14821368852E+03  0.62465458031E+03 -0.27113627016E+02  0.64256967789E+03  0.00000000000E+00 0.  1.
<mgrwt>
<rscale>  0 0.12944387E+04</rscale>
<asrwt>0</asrwt>
<pdfrwt beam="1">  1        2 0.88162539E-01 0.12944387E+04</pdfrwt>
<pdfrwt beam="2">  1       -2 0.11245847E+00 0.12944387E+04</pdfrwt>
<totfact> 0.32004515E+01</totfact>
</mgrwt>
</event>
<event>
 6    1  0.9364335E-007  0.3486329E+04  0.7818608E-02  0.8117037E-01
          2   -1    0    0  501    0  0.00000000000E+00  0.00000000000E+00  0.31060083392E+04  0.31060083392E+04  0.00000000000E+00 0. -1.
         -2   -1    0    0    0  501 -0.00000000000E+00 -0.00000000000E+00 -0.97830470699E+03  0.97830470699E+03  0.00000000000E+00 0.  1.
         23    2    1    2    0    0  0.62169193644E+03 -0.77970379057E+03  0.27380790403E+04  0.29151265753E+04  0.80294796101E+02 0.  0.
         13    1    3    3    0    0  0.35633983626E+03 -0.44181563505E+03  0.16727461589E+04  0.17664254432E+04  0.00000000000E+00 0. -1.
        -13    1    3    3    0    0  0.26535210018E+03 -0.33788815553E+03  0.10653328814E+04  0.11487011321E+04  0.00000000000E+00 0.  1.
         22    1    1    2    0    0 -0.62169193644E+03  0.77970379057E+03 -0.61037540810E+03  0.11691864709E+04  0.00000000000E+00 0.  1.
<mgrwt>
<rscale>  0 0.34863291E+04</rscale>
<asrwt>0</asrwt>
<pdfrwt beam="1">  1        2 0.47784743E+00 0.34863291E+04</pdfrwt>
<pdfrwt beam="2">  1       -2 0.15050842E+00 0.34863291E+04</pdfrwt>
<totfact> 0.36402732E-01</totfact>
</mgrwt>
</event>
<event>
 6    1  0.9364335E-007  0.1796041E+04  0.7818608E-02  0.8708408E-01
         -1   -1    0    0    0  501 -0.00000000000E+00  0.00000000000E+00  0.62900934332E+03  0.62900934332E+03  0.00000000000E+00 0.  1.
          1   -1    0    0  501    0  0.00000000000E+00 -0.00000000000E+00 -0.12820811851E+04  0.12820811851E+04  0.00000000000E+00 0. -1.
         23    2    1    2    0    0  0.86150770693E+03  0.23935661126E+03 -0.26511353443E+03  0.93641172765E+03  0.84229573711E+02 0.  0.
         13    1    3    3    0    0  0.41191344875E+03  0.86307840960E+02 -0.91096362125E+02  0.43060455160E+03  0.00000000000E+00 0. -1.
        -13    1    3    3    0    0  0.44959425818E+03  0.15304877030E+03 -0.17401717231E+03  0.50580717604E+03  0.00000000000E+00 0.  1.
         22    1    1    2    0    0 -0.86150770693E+03 -0.23935661126E+03 -0.38795830735E+03  0.97467880078E+03  0.00000000000E+00 0.  1.
<mgrwt>
<rscale>  0 0.17960413E+04</rscale>
<asrwt>0</asrwt>
<pdfrwt beam="1">  1        1 0.19724326E+00 0.17960413E+04</pdfrwt>
<pdfrwt beam="2">  1       -1 0.96770669E-01 0.17960413E+04</pdfrwt>
<totfact> 0.90333607E+00</totfact>
</mgrwt>
</event>
<event>
 6    1  0.9364335E-007  0.2799120E+03  0.7818608E-02  0.1095737E+00
         -1   -1    0    0    0  501 -0.00000000000E+00  0.00000000000E+00  0.18546092813E+03  0.18546092813E+03  0.00000000000E+00 0.  1.
          1   -1    0    0  501    0  0.00000000000E+00 -0.00000000000E+00 -0.10561623428E+03  0.10561623428E+03  0.00000000000E+00 0. -1.
         23    2    1    2    0    0 -0.95005725879E+02 -0.12679893689E+01 -0.41357436107E+02  0.13707179869E+03  0.89724827821E+02 0.  0.
         13    1    3    3    0    0 -0.28136857685E+02 -0.94699234160E+00 -0.61162642141E+02  0.67330887032E+02  0.00000000000E+00 0. -1.
        -13    1    3    3    0    0 -0.66868868194E+02 -0.32099702731E+00  0.19805206034E+02  0.69740911657E+02  0.00000000000E+00 0.  1.
         22    1    1    2    0    0  0.95005725879E+02  0.12679893689E+01  0.12120212996E+03  0.15400536372E+03  0.00000000000E+00 0. -1.
<mgrwt>
<rscale>  0 0.27991202E+03</rscale>
<asrwt>0</asrwt>
<pdfrwt beam="1">  1        1 0.16248651E-01 0.27991202E+03</pdfrwt>
<pdfrwt beam="2">  1       -1 0.28532450E-01 0.27991202E+03</pdfrwt>
<totfact> 0.37153101E+03</totfact>
</mgrwt>
</event>
<event>
 6    1  0.9364335E-007  0.8405455E+04  0.7818608E-02  0.7447643E-01
          2   -1    0    0  501    0  0.00000000000E+00  0.00000000000E+00  0.45002900188E+04  0.45002900188E+04  0.00000000000E+00 0. -1.
         -2   -1    0    0    0  501 -0.00000000000E+00 -0.00000000000E+00 -0.39248402252E+04  0.39248402252E+04  0.00000000000E+00 0.  1.
         23    2    1    2    0    0 -0.31220915934E+03  0.41675835341E+04  0.72759259535E+03  0.42431002938E+04  0.91005745788E+02 0.  0.
         11    1    3    3    0    0 -0.85709562917E+02  0.72185501144E+03  0.14070311069E+03  0.74041755252E+03  0.00000000000E+00 0.  1.
        -11    1    3    3    0    0 -0.22649959642E+03  0.34457285226E+04  0.58688948466E+03  0.35026827413E+04  0.00000000000E+00 0. -1.
         22    1    1    2    0    0  0.31220915934E+03 -0.41675835341E+04 -0.15214280177E+03  0.41820299502E+04  0.00000000000E+00 0.  1.
<mgrwt>
<rscale>  0 0.84054552E+04</rscale>
<asrwt>0</asrwt>
<pdfrwt beam="1">  1        2 0.69235231E+00 0.84054552E+04</pdfrwt>
<pdfrwt beam="2">  1       -2 0.60382157E+00 0.84054552E+04</pdfrwt>
<totfact> 0.34739232E-05</totfact>
</mgrwt>
</event>
<event>
 6    1  0.9364335E-007  0.4049831E+04  0.7818608E-02  0.7994569E-01
         -2   -1    0    0    0  501 -0.00000000000E+00  0.00000000000E+00  0.18210006656E+04  0.18210006656E+04  0.00000000000E+00 0.  1.
          2   -1    0    0  501    0  0.00000000000E+00 -0.00000000000E+00 -0.22516643240E+04  0.22516643240E+04  0.00000000000E+00 0. -1.
         23    2    1    2    0    0  0.19749477341E+04 -0.15447133033E+03 -0.63207873119E+03  0.20814723883E+04  0.93401478979E+02 0.  0.
         13    1    3    3    0    0  0.25949921519E+03  0.96253204371E+01 -0.93365100464E+02  0.27595204558E+03  0.00000000000E+00 0. -1.
        -13    1    3    3    0    0  0.17154485189E+04 -0.16409665076E+03 -0.53871363072E+03  0.18055203427E+04  0.00000000000E+00 0.  1.
         22    1    1    2    0    0 -0.19749477341E+04  0.15447133033E+03  0.20141507279E+03  0.19911926014E+04  0.00000000000E+00 0.  1.
<mgrwt>
<rscale>  0 0.40498307E+04</rscale>
<asrwt>0</asrwt>
<pdfrwt beam="1">  1        2 0.34640990E+00 0.40498307E+04</pdfrwt>
<pdfrwt beam="2">  1       -2 0.28015395E+00 0.40498307E+04</pdfrwt>
<totfact> 0.15943834E-01</totfact>
</mgrwt>
</event>
<event>
 6    1  0.9364335E-007  0.3605952E+04  0.7818608E-02  0.8089130E-01
         -2   -1    0    0    0  501 -0.00000000000E+00  0.00000000000E+00  0.18135526260E+04  0.18135526260E+04  0.00000000000E+00 0.  1.
          2   -1    0    0  501    0  0.00000000000E+00 -0.00000000000E+00 -0.17924611159E+04  0.17924611159E+04  0.00000000000E+00 0. -1.
         23    2    1    2    0    0 -0.78414206564E+03  0.12324336682E+03 -0.16069487839E+04  0.17947757936E+04  0.94170317804E+02 0.  0.
         11    1    3    3    0    0 -0.61648509023E+03  0.12650694483E+03 -0.12104540323E+04  0.13642788711E+04  0.00000000000E+00 0.  1.
        -11    1    3    3    0    0 -0.16765697541E+03 -0.32635780061E+01 -0.39649475150E+03  0.43049692254E+03  0.00000000000E+00 0. -1.
         22    1    1    2    0    0  0.78414206564E+03 -0.12324336682E+03  0.16280402940E+04  0.18112379483E+04  0.00000000000E+00 0.  1.
<mgrwt>
<rscale>  0 0.36059521E+04</rscale>
<asrwt>0</asrwt>
<pdfrwt beam="1">  1        2 0.27576325E+00 0.36059521E+04</pdfrwt>
<pdfrwt beam="2">  1       -2 0.27900810E+00 0.36059521E+04</pdfrwt>
<totfact> 0.30308625E-01</totfact>
</mgrwt>
</event>
<event>
 6    1  0.9364335E-007  0.8086652E+03  0.7818608E-02  0.9547559E-01
         -1   -1    0    0    0  501 -0.00000000000E+00  0.00000000000E+00  0.51797017809E+03  0.51797017809E+03  0.00000000000E+00 0.  1.
          1   -1    0    0  501    0  0.00000000000E+00 -0.00000000000E+00 -0.31562601658E+03  0.31562601658E+03  0.00000000000E+00 0. -1.
         23    2    1    2    0    0 -0.28432787762E+03 -0.23841187693E+03 -0.49479075865E+02  0.38515722677E+03  0.90638542180E+02 0.  0.
         11    1    3    3    0    0 -0.17767567697E+03 -0.10245496760E+03 -0.54744273816E+02  0.21227953761E+03  0.00000000000E+00 0.  1.
        -11    1    3    3    0    0 -0.10665220065E+03 -0.13595690933E+03  0.52651979511E+01  0.17287768915E+03  0.00000000000E+00 0. -1.
         22    1    1    2    0    0  0.28432787762E+03  0.23841187693E+03  0.25182323737E+03  0.44843896790E+03  0.00000000000E+00 0.  1.
<mgrwt>
<rscale>  0 0.80866523E+03</rscale>
<asrwt>0</asrwt>
<pdfrwt beam="1">  1        1 0.48557849E-01 0.80866523E+03</pdfrwt>
<pdfrwt beam="2">  1       -1 0.79687720E-01 0.80866523E+03</pdfrwt>
<totfact> 0.13062490E+02</totfact>
</mgrwt>
</event>
<event>
 6    1  0.9364335E-007  0.1262109E+04  0.7818608E-02  0.9060165E-01
          1   -1    0    0  501    0  0.00000000000E+00  0.00000000000E+00  0.59433080090E+03  0.59433080090E+03  0.00000000000E+00 0. -1.
         -1   -1    0    0    0  501 -0.00000000000E+00 -0.00000000000E+00 -0.67004731602E+03  0.67004731602E+03  0.00000000000E+00 0.  1.
         23    2    1    2    0    0 -0.31666956716E+03  0.17170129413E+03 -0.55294037558E+03  0.66646210094E+03  0.93100611561E+02 0.  0.
         13    1    3    3    0    0 -0.19229675133E+03  0.12065108630E+03 -0.26678640346E+03  0.35029945800E+03  0.00000000000E+00 0. -1.
        -13    1    3    3    0    0 -0.12437281583E+03  0.51050207824E+02 -0.28615397212E+03  0.31616264295E+03  0.00000000000E+00 0.  1.
         22    1    1    2    0    0  0.31666956716E+03 -0.17170129413E+03  0.47722386046E+03  0.59791601598E+03  0.00000000000E+00 0. -1.
<mgrwt>
<rscale>  0 0.12621090E+04</rscale>
<asrwt>0</asrwt>
<pdfrwt beam="1">  1        1 0.91435509E-01 0.12621090E+04</pdfrwt>
<pdfrwt beam="2">  1       -1 0.10308420E+00 0.12621090E+04</pdfrwt>
<totfact> 0.30416327E+01</totfact>
</mgrwt>
</event>
<event>
 6    1  0.9364335E-007  0.1343812E+04  0.7818608E-02  0.8995525E-01
          1   -1    0    0  501    0  0.00000000000E+00  0.00000000000E+00  0.11067709706E+04  0.11067709706E+04  0.00000000000E+00 0. -1.
         -1   -1    0    0    0  501 -0.00000000000E+00 -0.00000000000E+00 -0.40790538396E+03  0.40790538396E+03  0.00000000000E+00 0.  1.
         23    2    1    2    0    0  0.16148666133E+03 -0.29315911120E+03  0.10037806392E+04  0.10619143911E+04  0.89813117687E+02 0.  0.
         11    1    3    3    0    0  0.76398637112E+02 -0.20893867823E+03  0.56877602051E+03  0.61073585495E+03  0.00000000000E+00 0.  1.
        -11    1    3    3    0    0  0.85088024220E+02 -0.84220432975E+02  0.43500461870E+03  0.45117853616E+03  0.00000000000E+00 0. -1.
         22    1    1    2    0    0 -0.16148666133E+03  0.29315911120E+03 -0.30491505257E+03  0.45276196346E+03  0.00000000000E+00 0.  1.
<mgrwt>
<rscale>  0 0.13438122E+04</rscale>
<asrwt>0</asrwt>
<pdfrwt beam="1">  1        1 0.17027246E+00 0.13438122E+04</pdfrwt>
<pdfrwt beam="2">  1       -1 0.62754675E-01 0.13438122E+04</pdfrwt>
<totfact> 0.31605336E+01</totfact>
</mgrwt>
</event>
<event>
 6    1  0.9364335E-007  0.2471222E+04  0.7818608E-02  0.8413310E-01
         -2   -1    0    0    0  501 -0.00000000000E+00  0.00000000000E+00  0.10036627577E+04  0.10036627577E+04  0.00000000000E+00 0.  1.
          2   -1    0    0  501    0  0.00000000000E+00 -0.00000000000E+00 -0.15211629860E+04  0.15211629860E+04  0.00000000000E+00 0. -1.
         23    2    1    2    0    0  0.20895301331E+03  0.28803141199E+03 -0.14664543342E+04  0.15113478943E+04  0.84027894187E+02 0.  0.
         13    1    3    3    0    0  0.43644435618E+02  0.12074995447E+03 -0.59674856718E+03  0.61040498089E+03  0.00000000000E+00 0.  1.
        -13    1    3    3    0    0  0.16530857769E+03  0.16728145752E+03 -0.86970576707E+03  0.90094291338E+03  0.00000000000E+00 0. -1.
         22    1    1    2    0    0 -0.20895301331E+03 -0.28803141199E+03  0.94895410597E+03  0.10134778494E+04  0.00000000000E+00 0.  1.
<mgrwt>
<rscale>  0 0.24712221E+04</rscale>
<asrwt>0</asrwt>
<pdfrwt beam="1">  1        2 0.23402507E+00 0.24712221E+04</pdfrwt>
<pdfrwt beam="2">  1       -2 0.15440966E+00 0.24712221E+04</pdfrwt>
<totfact> 0.30624726E+00</totfact>
</mgrwt>
</event>
<event>
 6    1  0.9364335E-007  0.1247016E+04  0.7818608E-02  0.9072670E-01
         -2   -1    0    0    0  501 -0.00000000000E+00  0.00000000000E+00  0.15499018804E+03  0.15499018804E+03  0.00000000000E+00 0.  1.
          2   -1    0    0  501    0  0.00000000000E+00 -0.00000000000E+00 -0.25083031412E+04  0.25083031412E+04  0.00000000000E+00 0. -1.
         23    2    1    2    0    0  0.37833334374E+03 -0.41162953712E+03 -0.60800066631E+03  0.83062042514E+03  0.87695413885E+02 0.  0.
         11    1    3    3    0    0  0.33042907812E+03 -0.39538174716E+03 -0.55700925385E+03  0.75879470908E+03  0.00000000000E+00 0. -1.
        -11    1    3    3    0    0  0.47904265618E+02 -0.16247789957E+02 -0.50991412467E+02  0.71825716065E+02  0.00000000000E+00 0.  1.
         22    1    1    2    0    0 -0.37833334374E+03  0.41162953712E+03 -0.17453122868E+04  0.18326729041E+04  0.00000000000E+00 0.  1.
<mgrwt>
<rscale>  0 0.12470162E+04</rscale>
<asrwt>0</asrwt>
<pdfrwt beam="1">  1        2 0.38589279E+00 0.12470162E+04</pdfrwt>
<pdfrwt beam="2">  1       -2 0.23844645E-01 0.12470162E+04</pdfrwt>
<totfact> 0.53226862E+01</totfact>
</mgrwt>
</event>
<event>
 6    1  0.9364335E-007  0.1426095E+04  0.7818608E-02  0.8935143E-01
          1   -1    0    0  501    0  0.00000000000E+00  0.00000000000E+00  0.70842830469E+03  0.70842830469E+03  0.00000000000E+00 0. -1.
         -1   -1    0    0    0  501 -0.00000000000E+00 -0.00000000000E+00 -0.71769655213E+03  0.71769655213E+03  0.00000000000E+00 0.  1.
         23    2    1    2    0    0 -0.29248215578E+03 -0.32686110101E+03  0.55394762854E+03  0.71226484690E+03  0.89884626970E+02 0.  0.
         13    1    3    3    0    0 -0.14784018801E+03 -0.11975981843E+03  0.29064036309E+03  0.34737725308E+03  0.00000000000E+00 0.  1.
        -13    1    3    3    0    0 -0.14464196777E+03 -0.20710128258E+03  0.26330726545E+03  0.36488759382E+03  0.00000000000E+00 0. -1.
         22    1    1    2    0    0  0.29248215578E+03  0.32686110101E+03 -0.56321587598E+03  0.71386000992E+03  0.00000000000E+00 0.  1.
<mgrwt>
<rscale>  0 0.14260947E+04</rscale>
<asrwt>0</asrwt>
<pdfrwt beam="1">  1        1 0.10898897E+00 0.14260947E+04</pdfrwt>
<pdfrwt beam="2">  1       -1 0.11041485E+00 0.14260947E+04</pdfrwt>
<totfact> 0.19697419E+01</totfact>
</mgrwt>
</event>
<event>
 6    1  0.9364335E-007  0.2489107E+04  0.7818608E-02  0.8406876E-01
         -1   -1    0    0    0  501 -0.00000000000E+00  0.00000000000E+00  0.10071592837E+04  0.10071592837E+04  0.00000000000E+00 0.  1.
          1   -1    0    0  501    0  0.00000000000E+00 -0.00000000000E+00 -0.15379032647E+04  0.15379032647E+04  0.00000000000E+00 0. -1.
         23    2    1    2    0    0  0.84132973038E+03 -0.78867455331E+03 -0.73963135719E+03  0.13731081115E+04  0.92347576954E+02 0.  0.
         13    1    3    3    0    0  0.31033846702E+03 -0.24878170035E+03 -0.21791269958E+03  0.45352865751E+03  0.00000000000E+00 0. -1.
        -13    1    3    3    0    0  0.53099126336E+03 -0.53989285296E+03 -0.52171865761E+03  0.91957945396E+03  0.00000000000E+00 0.  1.
         22    1    1    2    0    0 -0.84132973038E+03  0.78867455331E+03  0.20888737614E+03  0.11719544369E+04  0.00000000000E+00 0.  1.
<mgrwt>
<rscale>  0 0.24891071E+04</rscale>
<asrwt>0</asrwt>
<pdfrwt beam="1">  1        1 0.23660050E+00 0.24891071E+04</pdfrwt>
<pdfrwt beam="2">  1       -1 0.15494758E+00 0.24891071E+04</pdfrwt>
<totfact> 0.17492058E+00</totfact>
</mgrwt>
</event>
<event>
 6    1  0.9364335E-007  0.1521129E+04  0.7818608E-02  0.8870523E-01
          1   -1    0    0  501    0  0.00000000000E+00  0.00000000000E+00  0.72351191143E+03  0.72351191143E+03  0.00000000000E+00 0. -1.
         -1   -1    0    0    0  501 -0.00000000000E+00 -0.00000000000E+00 -0.79951486261E+03  0.79951486261E+03  0.00000000000E+00 0.  1.
         23    2    1    2    0    0 -0.29115073791E+02  0.66012275302E+03 -0.40905969112E+03  0.78306966137E+03  0.96221240292E+02 0.  0.
         13    1    3    3    0    0 -0.33858568669E+02  0.59592708489E+03 -0.33324442190E+03  0.68361344187E+03  0.00000000000E+00 0. -1.
        -13    1    3    3    0    0  0.47434948781E+01  0.64195668130E+02 -0.75815269222E+02  0.99456219502E+02  0.00000000000E+00 0.  1.
         22    1    1    2    0    0  0.29115073791E+02 -0.66012275302E+03  0.33305673993E+03  0.73995711267E+03  0.00000000000E+00 0. -1.
<mgrwt>
<rscale>  0 0.15211292E+04</rscale>
<asrwt>0</asrwt>
<pdfrwt beam="1">  1        1 0.11130953E+00 0.15211292E+04</pdfrwt>
<pdfrwt beam="2">  1       -1 0.12300229E+00 0.15211292E+04</pdfrwt>
<totfact> 0.14572513E+01</totfact>
</mgrwt>
</event>
<event>
 6    1  0.9364335E-007  0.6255040E+04  0.7818608E-02  0.7659560E-01
          1   -1    0    0  501    0  0.00000000000E+00  0.00000000000E+00  0.43027261203E+04  0.43027261203E+04  0.00000000000E+00 0. -1.
         -1   -1    0    0    0  501 -0.00000000000E+00 -0.00000000000E+00 -0.22732989513E+04  0.22732989513E+04  0.00000000000E+00 0.  1.
         23    2    1    2    0    0 -0.23383868279E+04  0.11289231571E+04 -0.81653052774E+03  0.27234939992E+04  0.90426817034E+02 0.  0.
         13    1    3    3    0    0 -0.10136830037E+04  0.46194181316E+03 -0.31117018650E+03  0.11566202297E+04  0.00000000000E+00 0.  1.
        -13    1    3    3    0    0 -0.13247038242E+04  0.66698134395E+03 -0.50536034124E+03  0.15668737695E+04  0.00000000000E+00 0. -1.
         22    1    1    2    0    0  0.23383868279E+04 -0.11289231571E+04  0.28459576967E+04  0.38525310724E+04  0.00000000000E+00 0. -1.
<mgrwt>
<rscale>  0 0.62550405E+04</rscale>
<asrwt>0</asrwt>
<pdfrwt beam="1">  1        1 0.66195786E+00 0.62550405E+04</pdfrwt>
<pdfrwt beam="2">  1       -1 0.34973830E+00 0.62550405E+04</pdfrwt>
<totfact> 0.51359546E-04</totfact>
</mgrwt>
</event>
<event>
 6    1  0.9364335E-007  0.3928103E+04  0.7818608E-02  0.8019210E-01
          2   -1    0    0  501    0  0.00000000000E+00  0.00000000000E+00  0.18490201099E+04  0.18490201099E+04  0.00000000000E+00 0. -1.
         -2   -1    0    0    0  501 -0.00000000000E+00 -0.00000000000E+00 -0.20862387159E+04  0.20862387159E+04  0.00000000000E+00 0.  1.
         23    2    1    2    0    0 -0.13636609693E+04  0.86239786716E+03 -0.12389341991E+04  0.20361181123E+04  0.86704653086E+02 0.  0.
         13    1    3    3    0    0 -0.50268438490E+03  0.28947098592E+03 -0.48833408756E+03  0.75825801914E+03  0.00000000000E+00 0. -1.
        -13    1    3    3    0    0 -0.86097658445E+03  0.57292688124E+03 -0.75060011153E+03  0.12778600931E+04  0.00000000000E+00 0.  1.
         22    1    1    2    0    0  0.13636609693E+04 -0.86239786716E+03  0.10017155931E+04  0.18991407136E+04  0.00000000000E+00 0. -1.
<mgrwt>
<rscale>  0 0.39281025E+04</rscale>
<asrwt>0</asrwt>
<pdfrwt beam="1">  1        2 0.28446464E+00 0.39281025E+04</pdfrwt>
<pdfrwt beam="2">  1       -2 0.32095980E+00 0.39281025E+04</pdfrwt>
<totfact> 0.15187791E-01</totfact>
</mgrwt>
</event>
<event>
 6    1  0.9364335E-007  0.4538540E+04  0.7818608E-02  0.7903924E-01
         -2   -1    0    0    0  501 -0.00000000000E+00  0.00000000000E+00  0.18423964044E+04  0.18423964044E+04  0.00000000000E+00 0.  1.
          2   -1    0    0  501    0  0.00000000000E+00 -0.00000000000E+00 -0.27950478778E+04  0.27950478778E+04  0.00000000000E+00 0. -1.
         23    2    1    2    0    0 -0.20113079484E+04  0.98070521927E+03 -0.85614517194E+03  0.23976996859E+04  0.94004457009E+02 0.  0.
         11    1    3    3    0    0 -0.32817133718E+03  0.19028442948E+03 -0.16927742029E+03  0.41540273912E+03  0.00000000000E+00 0.  1.
        -11    1    3    3    0    0 -0.16831366112E+04  0.79042078979E+03 -0.68686775165E+03  0.19822969468E+04  0.00000000000E+00 0. -1.
         22    1    1    2    0    0  0.20113079484E+04 -0.98070521927E+03 -0.96506301522E+02  0.22397445963E+04  0.00000000000E+00 0.  1.
<mgrwt>
<rscale>  0 0.45385399E+04</rscale>
<asrwt>0</asrwt>
<pdfrwt beam="1">  1        2 0.43000736E+00 0.45385399E+04</pdfrwt>
<pdfrwt beam="2">  1       -2 0.28344560E+00 0.45385399E+04</pdfrwt>
<totfact> 0.70553121E-02</totfact>
</mgrwt>
</event>
<event>
 6    1  0.9364335E-007  0.1320640E+04  0.7818608E-02  0.9013356E-01
          2   -1    0    0  501    0  0.00000000000E+00  0.00000000000E+00  0.18168806850E+04  0.18168806850E+04  0.00000000000E+00 0. -1.
         -2   -1    0    0    0  501 -0.00000000000E+00 -0.00000000000E+00 -0.23998418781E+03  0.23998418781E+03  0.00000000000E+00 0.  1.
         23    2    1    2    0    0  0.80555779165E+02 -0.93709219153E+02  0.17974888065E+04  0.18040178474E+04  0.90795005217E+02 0.  0.
         13    1    3    3    0    0  0.59204005422E+02 -0.11102254284E+03  0.14605531370E+04  0.14659626821E+04  0.00000000000E+00 0.  1.
        -13    1    3    3    0    0  0.21351773744E+02  0.17313323690E+02  0.33693566945E+03  0.33805516527E+03  0.00000000000E+00 0. -1.
         22    1    1    2    0    0 -0.80555779165E+02  0.93709219153E+02 -0.22059230933E+03  0.25284702539E+03  0.00000000000E+00 0.  1.
<mgrwt>
<rscale>  0 0.13206402E+04</rscale>
<asrwt>0</asrwt>
<pdfrwt beam="1">  1        2 0.27952010E+00 0.13206402E+04</pdfrwt>
<pdfrwt beam="2">  1       -2 0.36920645E-01 0.13206402E+04</pdfrwt>
<totfact> 0.57140756E+01</totfact>
</mgrwt>
</event>
<event>
 6    1  0.9364335E-007  0.1903813E+04  0.7818608E-02  0.8652961E-01
         -1   -1    0    0    0  501 -0.00000000000E+00  0.00000000000E+00  0.63088968063E+03  0.63088968063E+03  0.00000000000E+00 0.  1.
          1   -1    0    0  501    0  0.00000000000E+00 -0.00000000000E+00 -0.14362670195E+04  0.14362670195E+04  0.00000000000E+00 0. -1.
         23    2    1    2    0    0 -0.95290586066E+02 -0.35822884685E+03  0.54552030361E+03  0.66632386107E+03  0.94799175488E+02 0.  0.
         13    1    3    3    0    0 -0.21625209272E+02 -0.82187527507E+02  0.20440905614E+03  0.22137186267E+03  0.00000000000E+00 0.  1.
        -13    1    3    3    0    0 -0.73665376794E+02 -0.27604131935E+03  0.34111124747E+03  0.44495199840E+03  0.00000000000E+00 0. -1.
         22    1    1    2    0    0  0.95290586066E+02  0.35822884685E+03 -0.13508976424E+04  0.14008328390E+04  0.00000000000E+00 0. -1.
<mgrwt>
<rscale>  0 0.19038131E+04</rscale>
<asrwt>0</asrwt>
<pdfrwt beam="1">  1        1 0.22096415E+00 0.19038131E+04</pdfrwt>
<pdfrwt beam="2">  1       -1 0.97059953E-01 0.19038131E+04</pdfrwt>
<totfact> 0.69135431E+00</totfact>
</mgrwt>
</event>
<event>
 6    1  0.9364335E-007  0.1587108E+04  0.7818608E-02  0.8828508E-01
          2   -1    0    0  501    0  0.00000000000E+00  0.00000000000E+00  0.16999465715E+04  0.16999465715E+04  0.00000000000E+00 0. -1.
         -2   -1    0    0    0  501 -0.00000000000E+00 -0.00000000000E+00 -0.37043967599E+03  0.37043967599E+03  0.00000000000E+00 0.  1.
         23    2    1    2    0    0  0.57333979180E+03 -0.59527388620E+02 -0.39451788649E+02  0.58502100427E+03  0.91821048525E+02 0.  0.
         11    1    3    3    0    0  0.16604578179E+03 -0.27921177610E+02  0.28854119672E+02  0.17083136138E+03  0.00000000000E+00 0.  1.
        -11    1    3    3    0    0  0.40729401001E+03 -0.31606211009E+02 -0.68305908321E+02  0.41418964289E+03  0.00000000000E+00 0. -1.
         22    1    1    2    0    0 -0.57333979180E+03  0.59527388620E+02  0.13689586842E+04  0.14853652433E+04  0.00000000000E+00 0. -1.
<mgrwt>
<rscale>  0 0.15871076E+04</rscale>
<asrwt>0</asrwt>
<pdfrwt beam="1">  1        2 0.26153024E+00 0.15871076E+04</pdfrwt>
<pdfrwt beam="2">  1       -2 0.56990720E-01 0.15871076E+04</pdfrwt>
<totfact> 0.27169671E+01</totfact>
</mgrwt>
</event>
<event>
 6    1  0.9364335E-007  0.2657184E+04  0.7818608E-02  0.8349032E-01
          2   -1    0    0  501    0  0.00000000000E+00  0.00000000000E+00  0.10364977558E+04  0.10364977558E+04  0.00000000000E+00 0. -1.
         -2   -1    0    0    0  501 -0.00000000000E+00 -0.00000000000E+00 -0.17030010037E+04  0.17030010037E+04  0.00000000000E+00 0.  1.
         23    2    1    2    0    0  0.72794917520E+03  0.10703313422E+04 -0.32865367184E+02  0.12983130852E+04  0.94960786798E+02 0.  0.
         11    1    3    3    0    0  0.48881503130E+03  0.79079139974E+03 -0.37234904249E+02  0.93041797641E+03  0.00000000000E+00 0. -1.
        -11    1    3    3    0    0  0.23913414390E+03  0.27953994250E+03  0.43695370650E+01  0.36789510881E+03  0.00000000000E+00 0.  1.
         22    1    1    2    0    0 -0.72794917520E+03 -0.10703313422E+04 -0.63363788069E+03  0.14411856743E+04  0.00000000000E+00 0.  1.
<mgrwt>
<rscale>  0 0.26571840E+04</rscale>
<asrwt>0</asrwt>
<pdfrwt beam="1">  1        2 0.15946119E+00 0.26571840E+04</pdfrwt>
<pdfrwt beam="2">  1       -2 0.26200015E+00 0.26571840E+04</pdfrwt>
<totfact> 0.11399688E+00</totfact>
</mgrwt>
</event>
<event>
 6    1  0.9364335E-007  0.8900531E+03  0.7818608E-02  0.9438102E-01
         -2   -1    0    0    0  501 -0.00000000000E+00  0.00000000000E+00  0.62533235753E+02  0.62533235753E+02  0.00000000000E+00 0.  1.
          2   -1    0    0  501    0  0.00000000000E+00 -0.00000000000E+00 -0.31670940377E+04  0.31670940377E+04  0.00000000000E+00 0. -1.
         23    2    1    2    0    0  0.32999817620E+03 -0.20155667223E+03 -0.23327918736E+04  0.23664058840E+04  0.91842223333E+02 0.  0.
         13    1    3    3    0    0  0.89610248009E+02 -0.22977955134E+02 -0.73442094633E+03  0.74022436422E+03  0.00000000000E+00 0. -1.
        -13    1    3    3    0    0  0.24038792819E+03 -0.17857871709E+03 -0.15983709273E+04  0.16261815198E+04  0.00000000000E+00 0.  1.
         22    1    1    2    0    0 -0.32999817620E+03  0.20155667223E+03 -0.77176892836E+03  0.86322138945E+03  0.00000000000E+00 0.  1.
<mgrwt>
<rscale>  0 0.89005312E+03</rscale>
<asrwt>0</asrwt>
<pdfrwt beam="1">  1        2 0.48724533E+00 0.89005312E+03</pdfrwt>
<pdfrwt beam="2">  1       -2 0.96204960E-02 0.89005312E+03</pdfrwt>
<totfact> 0.10396009E+02</totfact>
</mgrwt>
</event>
<event>
 6    1  0.9364335E-007  0.2937532E+04  0.7818608E-02  0.8261797E-01
          1   -1    0    0  501    0  0.00000000000E+00  0.00000000000E+00  0.28779189248E+04  0.28779189248E+04  0.00000000000E+00 0. -1.
         -1   -1    0    0    0  501 -0.00000000000E+00 -0.00000000000E+00 -0.74959506759E+03  0.74959506759E+03  0.00000000000E+00 0.  1.
         23    2    1    2    0    0 -0.49972330695E+03  0.15765806222E+03 -0.62731539205E+03  0.82249578922E+03  0.91625728327E+02 0.  0.
         11    1    3    3    0    0 -0.46377561185E+03  0.14119808773E+03 -0.53447457047E+03  0.72158699032E+03  0.00000000000E+00 0. -1.
        -11    1    3    3    0    0 -0.35947695098E+02  0.16459974486E+02 -0.92840821577E+02  0.10090879889E+03  0.00000000000E+00 0.  1.
         22    1    1    2    0    0  0.49972330695E+03 -0.15765806222E+03  0.27556392493E+04  0.28050182032E+04  0.00000000000E+00 0. -1.
<mgrwt>
<rscale>  0 0.29375322E+04</rscale>
<asrwt>0</asrwt>
<pdfrwt beam="1">  1        1 0.44275675E+00 0.29375322E+04</pdfrwt>
<pdfrwt beam="2">  1       -1 0.11532232E+00 0.29375322E+04</pdfrwt>
<totfact> 0.42722938E-01</totfact>
</mgrwt>
</event>
<event>
 6    1  0.9364335E-007  0.1757884E+04  0.7818608E-02  0.8729022E-01
         -1   -1    0    0    0  501 -0.00000000000E+00  0.00000000000E+00  0.10940647398E+04  0.10940647398E+04  0.00000000000E+00 0.  1.
          1   -1    0    0  501    0  0.00000000000E+00 -0.00000000000E+00 -0.70611854573E+03  0.70611854573E+03  0.00000000000E+00 0. -1.
         23    2    1    2    0    0 -0.51464158680E+03 -0.43931567366E+03  0.76517986120E+03  0.10254836898E+04  0.90897491775E+02 0.  0.
         11    1    3    3    0    0 -0.31197718280E+03 -0.27609017853E+03  0.40395899541E+03  0.58029166739E+03  0.00000000000E+00 0. -1.
        -11    1    3    3    0    0 -0.20266440399E+03 -0.16322549513E+03  0.36122086579E+03  0.44519202237E+03  0.00000000000E+00 0.  1.
         22    1    1    2    0    0  0.51464158680E+03  0.43931567366E+03 -0.37723366717E+03  0.77469959573E+03  0.00000000000E+00 0. -1.
<mgrwt>
<rscale>  0 0.17578844E+04</rscale>
<asrwt>0</asrwt>
<pdfrwt beam="1">  1        1 0.10863362E+00 0.17578844E+04</pdfrwt>
<pdfrwt beam="2">  1       -1 0.16831765E+00 0.17578844E+04</pdfrwt>
<totfact> 0.64460128E+00</totfact>
</mgrwt>
</event>
<event>
 6    1  0.9364335E-007  0.4663543E+04  0.7818608E-02  0.7882615E-01
         -1   -1    0    0    0  501 -0.00000000000E+00  0.00000000000E+00  0.24729894945E+04  0.24729894945E+04  0.00000000000E+00 0.  1.
          1   -1    0    0  501    0  0.00000000000E+00 -0.00000000000E+00 -0.21986172037E+04  0.21986172037E+04  0.00000000000E+00 0. -1.
         23    2    1    2    0    0  0.21451123184E+04  0.78156784633E+03 -0.33330553614E+03  0.23090598736E+04  0.91157899359E+02 0.  0.
         11    1    3    3    0    0  0.12200026685E+04  0.47671050129E+03 -0.22490777413E+03  0.13290007224E+04  0.00000000000E+00 0. -1.
        -11    1    3    3    0    0  0.92510964993E+03  0.30485734503E+03 -0.10839776201E+03  0.98005915129E+03  0.00000000000E+00 0.  1.
         22    1    1    2    0    0 -0.21451123184E+04 -0.78156784633E+03  0.60767782692E+03  0.23625468246E+04  0.00000000000E+00 0.  1.
<mgrwt>
<rscale>  0 0.46635425E+04</rscale>
<asrwt>0</asrwt>
<pdfrwt beam="1">  1        1 0.33824880E+00 0.46635425E+04</pdfrwt>
<pdfrwt beam="2">  1       -1 0.38045992E+00 0.46635425E+04</pdfrwt>
<totfact> 0.15726725E-02</totfact>
</mgrwt>
</event>
<event>
 6    1  0.9364335E-007  0.2319165E+04  0.7818608E-02  0.8470403E-01
          2   -1    0    0  501    0  0.00000000000E+00  0.00000000000E+00  0.12998982191E+04  0.12998982191E+04  0.00000000000E+00 0. -1.
         -2   -1    0    0    0  501 -0.00000000000E+00 -0.00000000000E+00 -0.10344130978E+04  0.10344130978E+04  0.00000000000E+00 0.  1.
         23    2    1    2    0    0 -0.10423985913E+04  0.50237496566E+03  0.10005082460E+03  0.11654041625E+04  0.95818918976E+02 0.  0.
         13    1    3    3    0    0 -0.59617759691E+03  0.31551256284E+03  0.18222031156E+02  0.67476510489E+03  0.00000000000E+00 0. -1.
        -13    1    3    3    0    0 -0.44622099437E+03  0.18686240282E+03  0.81828793449E+02  0.49063905760E+03  0.00000000000E+00 0.  1.
         22    1    1    2    0    0  0.10423985913E+04 -0.50237496566E+03  0.16543429665E+03  0.11689071544E+04  0.00000000000E+00 0.  1.
<mgrwt>
<rscale>  0 0.23191651E+04</rscale>
<asrwt>0</asrwt>
<pdfrwt beam="1">  1        2 0.19998434E+00 0.23191651E+04</pdfrwt>
<pdfrwt beam="2">  1       -2 0.15914048E+00 0.23191651E+04</pdfrwt>
<totfact> 0.38260009E+00</totfact>
</mgrwt>
</event>
<event>
 6    1  0.9364335E-007  0.4333626E+04  0.7818608E-02  0.7940429E-01
         -2   -1    0    0    0  501 -0.00000000000E+00  0.00000000000E+00  0.12113429357E+04  0.12113429357E+04  0.00000000000E+00 0.  1.
          2   -1    0    0  501    0  0.00000000000E+00 -0.00000000000E+00 -0.38759284014E+04  0.38759284014E+04  0.00000000000E+00 0. -1.
         23    2    1    2    0    0  0.18806553808E+04 -0.26916787953E+03 -0.25537853181E+04  0.31842230766E+04  0.90228275914E+02 0.  0.
         13    1    3    3    0    0  0.36760972722E+03 -0.75491637798E+02 -0.45860044735E+03  0.59257933582E+03  0.00000000000E+00 0. -1.
        -13    1    3    3    0    0  0.15130456536E+04 -0.19367624173E+03 -0.20951848708E+04  0.25916437408E+04  0.00000000000E+00 0.  1.
         22    1    1    2    0    0 -0.18806553808E+04  0.26916787953E+03 -0.11080014755E+03  0.19030482604E+04  0.00000000000E+00 0.  1.
<mgrwt>
<rscale>  0 0.43336260E+04</rscale>
<asrwt>0</asrwt>
<pdfrwt beam="1">  1        2 0.59629668E+00 0.43336260E+04</pdfrwt>
<pdfrwt beam="2">  1       -2 0.18636045E+00 0.43336260E+04</pdfrwt>
<totfact> 0.53887413E-02</totfact>
</mgrwt>
</event>
<event>
 6    1  0.9364335E-007  0.1613986E+04  0.7818608E-02  0.8812002E-01
          1   -1    0    0  501    0  0.00000000000E+00  0.00000000000E+00  0.50777059946E+03  0.50777059946E+03  0.00000000000E+00 0. -1.
         -1   -1    0    0    0  501 -0.00000000000E+00 -0.00000000000E+00 -0.12825428239E+04  0.12825428239E+04  0.00000000000E+00 0.  1.
         23    2    1    2    0    0 -0.38023566402E+03  0.18479558051E+03  0.37041165349E+03  0.56958631174E+03  0.92169445614E+02 0.  0.
         11    1    3    3    0    0 -0.11683184279E+03  0.14689913684E+02  0.81355569784E+02  0.14312303025E+03  0.00000000000E+00 0.  1.
        -11    1    3    3    0    0 -0.26340382124E+03  0.17010566683E+03  0.28905608370E+03  0.42646328148E+03  0.00000000000E+00 0. -1.
         22    1    1    2    0    0  0.38023566402E+03 -0.18479558051E+03 -0.11451838779E+04  0.12207271116E+04  0.00000000000E+00 0.  1.
<mgrwt>
<rscale>  0 0.16139858E+04</rscale>
<asrwt>0</asrwt>
<pdfrwt beam="1">  1        1 0.78118554E-01 0.16139858E+04</pdfrwt>
<pdfrwt beam="2">  1       -1 0.19731428E+00 0.16139858E+04</pdfrwt>
<totfact> 0.65306918E+00</totfact>
</mgrwt>
</event>
<event>
 6    1  0.9364335E-007  0.4094198E+04  0.7818608E-02  0.7985809E-01
         -2   -1    0    0    0  501 -0.00000000000E+00  0.00000000000E+00  0.21942444752E+04  0.21942444752E+04  0.00000000000E+00 0.  1.
          2   -1    0    0  501    0  0.00000000000E+00 -0.00000000000E+00 -0.19098212352E+04  0.19098212352E+04  0.00000000000E+00 0. -1.
         23    2    1    2    0    0 -0.69216400168E+03 -0.59508614877E+03  0.19778670132E+04  0.21802750923E+04  0.91777048108E+02 0.  0.
         13    1    3    3    0    0 -0.18649600412E+03 -0.17685091098E+03  0.65413128194E+03  0.70281202201E+03  0.00000000000E+00 0. -1.
        -13    1    3    3    0    0 -0.50566799756E+03 -0.41823523780E+03  0.13237357312E+04  0.14774630703E+04  0.00000000000E+00 0.  1.
         22    1    1    2    0    0  0.69216400168E+03  0.59508614877E+03 -0.16934437731E+04  0.19237906181E+04  0.00000000000E+00 0. -1.
<mgrwt>
<rscale>  0 0.40941982E+04</rscale>
<asrwt>0</asrwt>
<pdfrwt beam="1">  1        2 0.29381865E+00 0.40941982E+04</pdfrwt>
<pdfrwt beam="2">  1       -2 0.33757607E+00 0.40941982E+04</pdfrwt>
<totfact> 0.10929920E-01</totfact>
</mgrwt>
</event>
<event>
 6    1  0.9364335E-007  0.5579619E+04  0.7818608E-02  0.7744828E-01
          2   -1    0    0  501    0  0.00000000000E+00  0.00000000000E+00  0.17523335670E+04  0.17523335670E+04  0.00000000000E+00 0. -1.
         -2   -1    0    0    0  501 -0.00000000000E+00 -0.00000000000E+00 -0.44415264224E+04  0.44415264224E+04  0.00000000000E+00 0.  1.
         23    2    1    2    0    0  0.52718480969E+03 -0.33394133622E+03 -0.43625685264E+04  0.44079073652E+04  0.90567949710E+02 0.  0.
         13    1    3    3    0    0  0.74263622210E+02 -0.46172773974E+02 -0.42156659401E+03  0.43054082713E+03  0.00000000000E+00 0. -1.
        -13    1    3    3    0    0  0.45292118748E+03 -0.28776856225E+03 -0.39410019324E+04  0.39773665381E+04  0.00000000000E+00 0.  1.
         22    1    1    2    0    0 -0.52718480969E+03  0.33394133622E+03  0.16733756709E+04  0.17859526241E+04  0.00000000000E+00 0. -1.
<mgrwt>
<rscale>  0 0.55796186E+04</rscale>
<asrwt>0</asrwt>
<pdfrwt beam="1">  1        2 0.26958978E+00 0.55796186E+04</pdfrwt>
<pdfrwt beam="2">  1       -2 0.68331175E+00 0.55796186E+04</pdfrwt>
<totfact> 0.16837527E-03</totfact>
</mgrwt>
</event>
<event>
 6    1  0.9364335E-007  0.3004457E+04  0.7818608E-02  0.8242459E-01
         -1   -1    0    0    0  501 -0.00000000000E+00  0.00000000000E+00  0.71963415566E+03  0.71963415566E+03  0.00000000000E+00 0.  1.
          1   -1    0    0  501    0  0.00000000000E+00 -0.00000000000E+00 -0.31358865303E+04  0.31358865303E+04  0.00000000000E+00 0. -1.
         23    2    1    2    0    0  0.13408389865E+04 -0.64610094890E+03 -0.96121141093E+03  0.17740693101E+04  0.89993981919E+02 0.  0.
         11    1    3    3    0    0  0.88769158643E+03 -0.44667612846E+03 -0.68727452051E+03  0.12082475669E+04  0.00000000000E+00 0.  1.
        -11    1    3    3    0    0  0.45314740007E+03 -0.19942482043E+03 -0.27393689042E+03  0.56582174324E+03  0.00000000000E+00 0. -1.
         22    1    1    2    0    0 -0.13408389865E+04  0.64610094890E+03 -0.14550409638E+04  0.20814513759E+04  0.00000000000E+00 0. -1.
<mgrwt>
<rscale>  0 0.30044574E+04</rscale>
<asrwt>0</asrwt>
<pdfrwt beam="1">  1        1 0.48244408E+00 0.30044574E+04</pdfrwt>
<pdfrwt beam="2">  1       -1 0.11071295E+00 0.30044574E+04</pdfrwt>
<totfact> 0.30323929E-01</totfact>
</mgrwt>
</event>
<event>
 6    1  0.9364335E-007  0.1367233E+04  0.7818608E-02  0.8977885E-01
         -2   -1    0    0    0  501 -0.00000000000E+00  0.00000000000E+00  0.31797330227E+03  0.31797330227E+03  0.00000000000E+00 0.  1.
          2   -1    0    0  501    0  0.00000000000E+00 -0.00000000000E+00 -0.14697185251E+04  0.14697185251E+04  0.00000000000E+00 0. -1.
         23    2    1    2    0    0  0.26633774496E+03 -0.66881383901E+02 -0.13926153929E+04  0.14224147370E+04  0.92071372427E+02 0.  0.
         13    1    3    3    0    0  0.16715756161E+03  0.41228624965E+01 -0.76592162364E+03  0.78396082935E+03  0.00000000000E+00 0.  1.
        -13    1    3    3    0    0  0.99180183353E+02 -0.71004246397E+02 -0.62669376928E+03  0.63845390768E+03  0.00000000000E+00 0. -1.
         22    1    1    2    0    0 -0.26633774496E+03  0.66881383901E+02  0.24087017008E+03  0.36527709035E+03  0.00000000000E+00 0.  1.
<mgrwt>
<rscale>  0 0.13672326E+04</rscale>
<asrwt>0</asrwt>
<pdfrwt beam="1">  1        2 0.22611054E+00 0.13672326E+04</pdfrwt>
<pdfrwt beam="2">  1       -2 0.48918970E-01 0.13672326E+04</pdfrwt>
<totfact> 0.50959859E+01</totfact>
</mgrwt>
</event>
<event>
 6    1  0.9364335E-007  0.4660076E+04  0.7818608E-02  0.7883196E-01
          2   -1    0    0  501    0  0.00000000000E+00  0.00000000000E+00  0.35741061943E+04  0.35741061943E+04  0.00000000000E+00 0. -1.
         -2   -1    0    0    0  501 -0.00000000000E+00 -0.00000000000E+00 -0.15190025349E+04  0.15190025349E+04  0.00000000000E+00 0.  1.
         23    2    1    2    0    0 -0.12336133068E+04 -0.13116648482E+04 -0.58674113924E+03  0.18959833946E+04  0.90671954239E+02 0.  0.
         11    1    3    3    0    0 -0.69271664895E+03 -0.70168227645E+03 -0.28085899752E+03  0.10252298032E+04  0.00000000000E+00 0.  1.
        -11    1    3    3    0    0 -0.54089665784E+03 -0.60998257180E+03 -0.30588214172E+03  0.87075359143E+03  0.00000000000E+00 0. -1.
         22    1    1    2    0    0  0.12336133068E+04  0.13116648482E+04  0.26418447987E+04  0.31971253346E+04  0.00000000000E+00 0. -1.
<mgrwt>
<rscale>  0 0.46600757E+04</rscale>
<asrwt>0</asrwt>
<pdfrwt beam="1">  1        2 0.54986249E+00 0.46600757E+04</pdfrwt>
<pdfrwt beam="2">  1       -2 0.23369270E+00 0.46600757E+04</pdfrwt>
<totfact> 0.43597301E-02</totfact>
</mgrwt>
</event>
<event>
 6    1  0.9364335E-007  0.3847328E+04  0.7818608E-02  0.8036074E-01
          2   -1    0    0  501    0  0.00000000000E+00  0.00000000000E+00  0.14949855285E+04  0.14949855285E+04  0.00000000000E+00 0. -1.
         -2   -1    0    0    0  501 -0.00000000000E+00 -0.00000000000E+00 -0.24752630714E+04  0.24752630714E+04  0.00000000000E+00 0.  1.
         23    2    1    2    0    0 -0.39178826608E+02 -0.92403372713E+03 -0.22296999575E+04  0.24157616493E+04  0.94705526432E+02 0.  0.
         11    1    3    3    0    0 -0.27392731232E+02 -0.22946352504E+03 -0.46504919503E+03  0.51930205550E+03  0.00000000000E+00 0. -1.
        -11    1    3    3    0    0 -0.11786095376E+02 -0.69457020209E+03 -0.17646507624E+04  0.18964595938E+04  0.00000000000E+00 0.  1.
         22    1    1    2    0    0  0.39178826608E+02  0.92403372713E+03  0.12494224146E+04  0.15544869505E+04  0.00000000000E+00 0. -1.
<mgrwt>
<rscale>  0 0.38473276E+04</rscale>
<asrwt>0</asrwt>
<pdfrwt beam="1">  1        2 0.22999777E+00 0.38473276E+04</pdfrwt>
<pdfrwt beam="2">  1       -2 0.38080971E+00 0.38473276E+04</pdfrwt>
<totfact> 0.10089827E-01</totfact>
</mgrwt>
</event>
<event>
 6    1  0.9364335E-007  0.2480976E+04  0.7818608E-02  0.8409795E-01
         -2   -1    0    0    0  501 -0.00000000000E+00  0.00000000000E+00  0.50276132213E+03  0.50276132213E+03  0.00000000000E+00 0.  1.
          2   -1    0    0  501    0  0.00000000000E+00 -0.00000000000E+00 -0.30607165900E+04  0.30607165900E+04  0.00000000000E+00 0. -1.
         23    2    1    2    0    0  0.10594754331E+04 -0.64039137982E+03 -0.12156697528E+04  0.17374659416E+04  0.91354460581E+02 0.  0.
         13    1    3    3    0    0  0.79477761144E+03 -0.48242028689E+03 -0.96661398759E+03  0.13411723923E+04  0.00000000000E+00 0.  1.
        -13    1    3    3    0    0  0.26469782168E+03 -0.15797109292E+03 -0.24905576521E+03  0.39629354926E+03  0.00000000000E+00 0. -1.
         22    1    1    2    0    0 -0.10594754331E+04  0.64039137982E+03 -0.13422855151E+04  0.18260119706E+04  0.00000000000E+00 0. -1.
<mgrwt>
<rscale>  0 0.24809755E+04</rscale>
<asrwt>0</asrwt>
<pdfrwt beam="1">  1        2 0.47087948E+00 0.24809755E+04</pdfrwt>
<pdfrwt beam="2">  1       -2 0.77347894E-01 0.24809755E+04</pdfrwt>
<totfact> 0.21236725E+00</totfact>
</mgrwt>
</event>
<event>
 6    1  0.9364335E-007  0.2391875E+04  0.7818608E-02  0.8442552E-01
          2   -1    0    0  501    0  0.00000000000E+00  0.00000000000E+00  0.93093449397E+03  0.93093449397E+03  0.00000000000E+00 0. -1.
         -2   -1    0    0    0  501 -0.00000000000E+00 -0.00000000000E+00 -0.15363770516E+04  0.15363770516E+04  0.00000000000E+00 0.  1.
         23    2    1    2    0    0 -0.83444773289E+03 -0.36148555902E+03  0.49542471192E+03  0.10394167408E+04  0.89256302827E+02 0.  0.
         11    1    3    3    0    0 -0.51023909995E+03 -0.26600967728E+03  0.32612957267E+03  0.66141181249E+03  0.00000000000E+00 0.  1.
        -11    1    3    3    0    0 -0.32420863294E+03 -0.95475881745E+02  0.16929513924E+03  0.37800492832E+03  0.00000000000E+00 0. -1.
         22    1    1    2    0    0  0.83444773289E+03  0.36148555902E+03 -0.11008672696E+04  0.14278948048E+04  0.00000000000E+00 0.  1.
<mgrwt>
<rscale>  0 0.23918749E+04</rscale>
<asrwt>0</asrwt>
<pdfrwt beam="1">  1        2 0.14322069E+00 0.23918749E+04</pdfrwt>
<pdfrwt beam="2">  1       -2 0.23636570E+00 0.23918749E+04</pdfrwt>
<totfact> 0.19620495E+00</totfact>
</mgrwt>
</event>
<event>
 6    1  0.9364335E-007  0.1003145E+04  0.7818608E-02  0.9305103E-01
         -4   -1    0    0    0  501 -0.00000000000E+00  0.00000000000E+00  0.84029789675E+03  0.84029789675E+03  0.00000000000E+00 0.  1.
          4   -1    0    0  501    0  0.00000000000E+00 -0.00000000000E+00 -0.29938759230E+03  0.29938759230E+03  0.00000000000E+00 0. -1.
         23    2    1    2    0    0  0.17946251774E+02  0.47389590003E+03  0.10246200637E+03  0.49382458908E+03  0.92004728216E+02 0.  0.
         11    1    3    3    0    0  0.42687554607E+02  0.29096098800E+03  0.95126100001E+02  0.30907846699E+03  0.00000000000E+00 0. -1.
        -11    1    3    3    0    0 -0.24741302833E+02  0.18293491203E+03  0.73359063710E+01  0.18474612209E+03  0.00000000000E+00 0.  1.
         22    1    1    2    0    0 -0.17946251774E+02 -0.47389590003E+03  0.43844829808E+03  0.64586089996E+03  0.00000000000E+00 0.  1.
<mgrwt>
<rscale>  0 0.10031446E+04</rscale>
<asrwt>0</asrwt>
<pdfrwt beam="1">  1        4 0.46059630E-01 0.10031446E+04</pdfrwt>
<pdfrwt beam="2">  1       -4 0.12927660E+00 0.10031446E+04</pdfrwt>
<totfact> 0.39829887E+00</totfact>
</mgrwt>
</event>
<event>
 6    1  0.9364335E-007  0.1203128E+04  0.7818608E-02  0.9110123E-01
          2   -1    0    0  501    0  0.00000000000E+00  0.00000000000E+00  0.97470127968E+03  0.97470127968E+03  0.00000000000E+00 0. -1.
         -2   -1    0    0    0  501 -0.00000000000E+00 -0.00000000000E+00 -0.37127188986E+03  0.37127188986E+03  0.00000000000E+00 0.  1.
         23    2    1    2    0    0  0.28778686341E+03  0.41679668780E+03 -0.52011194661E+02  0.51763560701E+03  0.93277540516E+02 0.  0.
         11    1    3    3    0    0  0.15674586276E+03  0.29642250621E+03 -0.54307436323E+02  0.33968347814E+03  0.00000000000E+00 0. -1.
        -11    1    3    3    0    0  0.13104100065E+03  0.12037418159E+03  0.22962416622E+01  0.17795212887E+03  0.00000000000E+00 0.  1.
         22    1    1    2    0    0 -0.28778686341E+03 -0.41679668780E+03  0.65544058447E+03  0.82833756253E+03  0.00000000000E+00 0. -1.
<mgrwt>
<rscale>  0 0.12031279E+04</rscale>
<asrwt>0</asrwt>
<pdfrwt beam="1">  1        2 0.14995404E+00 0.12031279E+04</pdfrwt>
<pdfrwt beam="2">  1       -2 0.57118753E-01 0.12031279E+04</pdfrwt>
<totfact> 0.74138801E+01</totfact>
</mgrwt>
</event>
<event>
 6    1  0.9364335E-007  0.2496823E+04  0.7818608E-02  0.8404118E-01
          2   -1    0    0  501    0  0.00000000000E+00  0.00000000000E+00  0.18307402464E+04  0.18307402464E+04  0.00000000000E+00 0. -1.
         -2   -1    0    0    0  501 -0.00000000000E+00 -0.00000000000E+00 -0.85131192395E+03  0.85131192395E+03  0.00000000000E+00 0.  1.
         23    2    1    2    0    0 -0.11733774317E+03  0.21851831434E+03  0.18028452227E+04  0.18220906645E+04  0.90802494191E+02 0.  0.
         11    1    3    3    0    0 -0.15445538874E+02  0.39113090535E+02  0.13153614387E+03  0.13809473439E+03  0.00000000000E+00 0.  1.
        -11    1    3    3    0    0 -0.10189220430E+03  0.17940522380E+03  0.16713090789E+04  0.16839959301E+04  0.00000000000E+00 0. -1.
         22    1    1    2    0    0  0.11733774317E+03 -0.21851831434E+03 -0.82341690032E+03  0.85996150577E+03  0.00000000000E+00 0.  1.
<mgrwt>
<rscale>  0 0.24968228E+04</rscale>
<asrwt>0</asrwt>
<pdfrwt beam="1">  1        2 0.28165234E+00 0.24968228E+04</pdfrwt>
<pdfrwt beam="2">  1       -2 0.13097107E+00 0.24968228E+04</pdfrwt>
<totfact> 0.31545650E+00</totfact>
</mgrwt>
</event>
<event>
 6    1  0.9364335E-007  0.1739404E+04  0.7818608E-02  0.8739204E-01
         -1   -1    0    0    0  501 -0.00000000000E+00  0.00000000000E+00  0.52514417357E+03  0.52514417357E+03  0.00000000000E+00 0.  1.
          1   -1    0    0  501    0  0.00000000000E+00 -0.00000000000E+00 -0.14403317769E+04  0.14403317769E+04  0.00000000000E+00 0. -1.
         23    2    1    2    0    0  0.23848406715E+03 -0.23130246597E+03  0.44638787028E+03  0.56395418774E+03  0.91688134944E+02 0.  0.
         11    1    3    3    0    0  0.18677042711E+03 -0.22509987870E+03  0.38289378079E+03  0.48183067068E+03  0.00000000000E+00 0. -1.
        -11    1    3    3    0    0  0.51713640046E+02 -0.62025872662E+01  0.63494089484E+02  0.82123517064E+02  0.00000000000E+00 0.  1.
         22    1    1    2    0    0 -0.23848406715E+03  0.23130246597E+03 -0.13615754737E+04  0.14015217628E+04  0.00000000000E+00 0. -1.
<mgrwt>
<rscale>  0 0.17394043E+04</rscale>
<asrwt>0</asrwt>
<pdfrwt beam="1">  1        1 0.22158950E+00 0.17394043E+04</pdfrwt>
<pdfrwt beam="2">  1       -1 0.80791412E-01 0.17394043E+04</pdfrwt>
<totfact> 0.10428504E+01</totfact>
</mgrwt>
</event>
<event>
 6    1  0.9364335E-007  0.3529940E+04  0.7818608E-02  0.8106731E-01
          2   -1    0    0  501    0  0.00000000000E+00  0.00000000000E+00  0.16279828064E+04  0.16279828064E+04  0.00000000000E+00 0. -1.
         -2   -1    0    0    0  501 -0.00000000000E+00 -0.00000000000E+00 -0.19134842901E+04  0.19134842901E+04  0.00000000000E+00 0.  1.
         23    2    1    2    0    0 -0.43161074546E+02 -0.17549523246E+04 -0.31372717662E+03  0.17857572031E+04  0.93720366500E+02 0.  0.
         13    1    3    3    0    0 -0.41718294248E+02 -0.12484356552E+04 -0.18136953526E+03  0.12622309256E+04  0.00000000000E+00 0. -1.
        -13    1    3    3    0    0 -0.14427802973E+01 -0.50651666945E+03 -0.13235764136E+03  0.52352627754E+03  0.00000000000E+00 0.  1.
         22    1    1    2    0    0  0.43161074546E+02  0.17549523246E+04  0.28225692971E+02  0.17557098934E+04  0.00000000000E+00 0.  1.
<mgrwt>
<rscale>  0 0.35299402E+04</rscale>
<asrwt>0</asrwt>
<pdfrwt beam="1">  1        2 0.25045889E+00 0.35299402E+04</pdfrwt>
<pdfrwt beam="2">  1       -2 0.29438220E+00 0.35299402E+04</pdfrwt>
<totfact> 0.30332062E-01</totfact>
</mgrwt>
</event>
<event>
 6    1  0.9364335E-007  0.2834345E+04  0.7818608E-02  0.8292684E-01
         -1   -1    0    0    0  501 -0.00000000000E+00  0.00000000000E+00  0.95999306059E+03  0.95999306059E+03  0.00000000000E+00 0.  1.
          1   -1    0    0  501    0  0.00000000000E+00 -0.00000000000E+00 -0.20920759175E+04  0.20920759175E+04  0.00000000000E+00 0. -1.
         23    2    1    2    0    0  0.27053439443E+03 -0.24986214098E+03  0.90539522183E+03  0.98157703911E+03  0.90183301888E+02 0.  0.
         13    1    3    3    0    0  0.72116119224E+02 -0.84423716897E+02  0.17931932800E+03  0.21091116618E+03  0.00000000000E+00 0. -1.
        -13    1    3    3    0    0  0.19841827520E+03 -0.16543842408E+03  0.72607589383E+03  0.77066587293E+03  0.00000000000E+00 0.  1.
         22    1    1    2    0    0 -0.27053439443E+03  0.24986214098E+03 -0.20374780787E+04  0.20704919390E+04  0.00000000000E+00 0. -1.
<mgrwt>
<rscale>  0 0.28343453E+04</rscale>
<asrwt>0</asrwt>
<pdfrwt beam="1">  1        1 0.32185783E+00 0.28343453E+04</pdfrwt>
<pdfrwt beam="2">  1       -1 0.14769124E+00 0.28343453E+04</pdfrwt>
<totfact> 0.81009489E-01</totfact>
</mgrwt>
</event>
<event>
 6    1  0.9364335E-007  0.3097466E+04  0.7818608E-02  0.8216434E-01
         -2   -1    0    0    0  501 -0.00000000000E+00  0.00000000000E+00  0.22178590103E+04  0.22178590103E+04  0.00000000000E+00 0.  1.
          2   -1    0    0  501    0  0.00000000000E+00 -0.00000000000E+00 -0.10814814519E+04  0.10814814519E+04  0.00000000000E+00 0. -1.
         23    2    1    2    0    0  0.70816995744E+03 -0.27138881628E+03 -0.86791347310E+03  0.11563661000E+04  0.93553097993E+02 0.  0.
         13    1    3    3    0    0  0.31482578858E+03 -0.11834248622E+03 -0.31536837738E+03  0.46106120489E+03  0.00000000000E+00 0.  1.
        -13    1    3    3    0    0  0.39334416886E+03 -0.15304633006E+03 -0.55254509571E+03  0.69530489507E+03  0.00000000000E+00 0. -1.
         22    1    1    2    0    0 -0.70816995744E+03  0.27138881628E+03  0.20042910315E+04  0.21429743623E+04  0.00000000000E+00 0.  1.
<mgrwt>
<rscale>  0 0.30974657E+04</rscale>
<asrwt>0</asrwt>
<pdfrwt beam="1">  1        2 0.16638176E+00 0.30974657E+04</pdfrwt>
<pdfrwt beam="2">  1       -2 0.34120908E+00 0.30974657E+04</pdfrwt>
<totfact> 0.33557099E-01</totfact>
</mgrwt>
</event>
<event>
 6    1  0.9364335E-007  0.6534295E+03  0.7818608E-02  0.9800365E-01
          1   -1    0    0  501    0  0.00000000000E+00  0.00000000000E+00  0.19422292683E+04  0.19422292683E+04  0.00000000000E+00 0. -1.
         -1   -1    0    0    0  501 -0.00000000000E+00 -0.00000000000E+00 -0.54958773258E+02  0.54958773258E+02  0.00000000000E+00 0.  1.
         23    2    1    2    0    0 -0.19816406407E+02  0.26819018457E+03  0.42618086866E+03  0.51155633707E+03  0.87983453685E+02 0.  0.
         13    1    3    3    0    0 -0.10621802033E+02  0.35777947924E+02  0.17272305025E+02  0.41124405855E+02  0.00000000000E+00 0. -1.
        -13    1    3    3    0    0 -0.91946043735E+01  0.23241223664E+03  0.40890856364E+03  0.47043193121E+03  0.00000000000E+00 0.  1.
         22    1    1    2    0    0  0.19816406407E+02 -0.26819018457E+03  0.14610896264E+04  0.14856317045E+04  0.00000000000E+00 0. -1.
<mgrwt>
<rscale>  0 0.65342953E+03</rscale>
<asrwt>0</asrwt>
<pdfrwt beam="1">  1        1 0.29880445E+00 0.65342953E+03</pdfrwt>
<pdfrwt beam="2">  1       -1 0.84551974E-02 0.65342953E+03</pdfrwt>
<totfact> 0.27775467E+02</totfact>
</mgrwt>
</event>
<event>
 6    1  0.9364335E-007  0.3285189E+04  0.7818608E-02  0.8166674E-01
         -1   -1    0    0    0  501 -0.00000000000E+00  0.00000000000E+00  0.24856352188E+04  0.24856352188E+04  0.00000000000E+00 0.  1.
          1   -1    0    0  501    0  0.00000000000E+00 -0.00000000000E+00 -0.10854840421E+04  0.10854840421E+04  0.00000000000E+00 0. -1.
         23    2    1    2    0    0  0.62369176367E+03  0.15179251051E+04  0.72696303629E+03  0.17973463575E+04  0.94290147691E+02 0.  0.
         13    1    3    3    0    0  0.21474583564E+03  0.63583067295E+03  0.31575592745E+03  0.74168606857E+03  0.00000000000E+00 0. -1.
        -13    1    3    3    0    0  0.40894592803E+03  0.88209443212E+03  0.41120710885E+03  0.10556602889E+04  0.00000000000E+00 0.  1.
         22    1    1    2    0    0 -0.62369176367E+03 -0.15179251051E+04  0.67318814044E+03  0.17737729035E+04  0.00000000000E+00 0.  1.
<mgrwt>
<rscale>  0 0.32851894E+04</rscale>
<asrwt>0</asrwt>
<pdfrwt beam="1">  1        1 0.16699755E+00 0.32851894E+04</pdfrwt>
<pdfrwt beam="2">  1       -1 0.38240542E+00 0.32851894E+04</pdfrwt>
<totfact> 0.10172022E-01</totfact>
</mgrwt>
</event>
<event>
 6    1  0.9364335E-007  0.1491029E+04  0.7818608E-02  0.8890441E-01
         -2   -1    0    0    0  501 -0.00000000000E+00  0.00000000000E+00  0.32994734745E+03  0.32994734745E+03  0.00000000000E+00 0.  1.
          2   -1    0    0  501    0  0.00000000000E+00 -0.00000000000E+00 -0.16844863409E+04  0.16844863409E+04  0.00000000000E+00 0. -1.
         23    2    1    2    0    0  0.17980974653E+03  0.61251223497E+03 -0.16696294093E+03  0.66616084376E+03  0.91601654918E+02 0.  0.
         11    1    3    3    0    0  0.11545089337E+03  0.42212060026E+03 -0.70615968774E+02  0.44328469970E+03  0.00000000000E+00 0.  1.
        -11    1    3    3    0    0  0.64358853163E+02  0.19039163471E+03 -0.96346972159E+02  0.22287614406E+03  0.00000000000E+00 0. -1.
         22    1    1    2    0    0 -0.17980974653E+03 -0.61251223497E+03 -0.11875760525E+04  0.13482728446E+04  0.00000000000E+00 0. -1.
<mgrwt>
<rscale>  0 0.14910289E+04</rscale>
<asrwt>0</asrwt>
<pdfrwt beam="1">  1        2 0.25915175E+00 0.14910289E+04</pdfrwt>
<pdfrwt beam="2">  1       -2 0.50761130E-01 0.14910289E+04</pdfrwt>
<totfact> 0.35483167E+01</totfact>
</mgrwt>
</event>
<event>
 6    1  0.9364335E-007  0.2422464E+04  0.7818608E-02  0.8431141E-01
         -2   -1    0    0    0  501 -0.00000000000E+00  0.00000000000E+00  0.58388362352E+03  0.58388362352E+03  0.00000000000E+00 0.  1.
          2   -1    0    0  501    0  0.00000000000E+00 -0.00000000000E+00 -0.25126297794E+04  0.25126297794E+04  0.00000000000E+00 0. -1.
         23    2    1    2    0    0  0.35280204009E+03 -0.96951538976E+03 -0.15917262886E+03  0.10481433587E+04  0.94017041902E+02 0.  0.
         13    1    3    3    0    0  0.10062501245E+03 -0.17914362815E+03 -0.14343440566E+02  0.20596982042E+03  0.00000000000E+00 0. -1.
        -13    1    3    3    0    0  0.25217702764E+03 -0.79037176161E+03 -0.14482918830E+03  0.84217353830E+03  0.00000000000E+00 0.  1.
         22    1    1    2    0    0 -0.35280204009E+03  0.96951538976E+03 -0.17695735270E+04  0.20483700442E+04  0.00000000000E+00 0.  1.
<mgrwt>
<rscale>  0 0.24224643E+04</rscale>
<asrwt>0</asrwt>
<pdfrwt beam="1">  1        2 0.38655842E+00 0.24224643E+04</pdfrwt>
<pdfrwt beam="2">  1       -2 0.89828251E-01 0.24224643E+04</pdfrwt>
<totfact> 0.32607464E+00</totfact>
</mgrwt>
</event>
<event>
 6    1  0.9364335E-007  0.1590585E+04  0.7818608E-02  0.8826353E-01
          2   -1    0    0  501    0  0.00000000000E+00  0.00000000000E+00  0.31536869695E+04  0.31536869695E+04  0.00000000000E+00 0. -1.
         -2   -1    0    0    0  501 -0.00000000000E+00 -0.00000000000E+00 -0.20055583265E+03  0.20055583265E+03  0.00000000000E+00 0.  1.
         23    2    1    2    0    0 -0.33277701429E+03 -0.69835221597E+03  0.18459582386E+04  0.20035880775E+04  0.91471342877E+02 0.  0.
         11    1    3    3    0    0 -0.19810578772E+00 -0.50283578330E+02  0.13267665688E+03  0.14188577369E+03  0.00000000000E+00 0.  1.
        -11    1    3    3    0    0 -0.33257890850E+03 -0.64806863764E+03  0.17132815818E+04  0.18617023038E+04  0.00000000000E+00 0. -1.
         22    1    1    2    0    0  0.33277701429E+03  0.69835221597E+03  0.11071728982E+04  0.13506547247E+04  0.00000000000E+00 0.  1.
<mgrwt>
<rscale>  0 0.15905852E+04</rscale>
<asrwt>0</asrwt>
<pdfrwt beam="1">  1        2 0.48518257E+00 0.15905852E+04</pdfrwt>
<pdfrwt beam="2">  1       -2 0.30854746E-01 0.15905852E+04</pdfrwt>
<totfact> 0.13075887E+01</totfact>
</mgrwt>
</event>
<event>
 6    1  0.9364335E-007  0.9019031E+03  0.7818608E-02  0.9423206E-01
          2   -1    0    0  501    0  0.00000000000E+00  0.00000000000E+00  0.10926503361E+04  0.10926503361E+04  0.00000000000E+00 0. -1.
         -2   -1    0    0    0  501 -0.00000000000E+00 -0.00000000000E+00 -0.18611380854E+03  0.18611380854E+03  0.00000000000E+00 0.  1.
         23    2    1    2    0    0 -0.38225984952E+03 -0.21166158982E+03  0.58780978172E+03  0.73792224568E+03  0.89920409383E+02 0.  0.
         11    1    3    3    0    0 -0.12318053947E+03 -0.52536566223E+02  0.11899216378E+03  0.17914427464E+03  0.00000000000E+00 0.  1.
        -11    1    3    3    0    0 -0.25907931005E+03 -0.15912502359E+03  0.46881761794E+03  0.55877797104E+03  0.00000000000E+00 0. -1.
         22    1    1    2    0    0  0.38225984952E+03  0.21166158982E+03  0.31872674586E+03  0.54084189897E+03  0.00000000000E+00 0.  1.
<mgrwt>
<rscale>  0 0.90190313E+03</rscale>
<asrwt>0</asrwt>
<pdfrwt beam="1">  1        2 0.16810005E+00 0.90190313E+03</pdfrwt>
<pdfrwt beam="2">  1       -2 0.28632894E-01 0.90190313E+03</pdfrwt>
<totfact> 0.24647224E+02</totfact>
</mgrwt>
</event>
<event>
 6    1  0.9364335E-007  0.9518565E+03  0.7818608E-02  0.9362983E-01
         -1   -1    0    0    0  501 -0.00000000000E+00  0.00000000000E+00  0.42336747749E+03  0.42336747749E+03  0.00000000000E+00 0.  1.
          1   -1    0    0  501    0  0.00000000000E+00 -0.00000000000E+00 -0.53501442894E+03  0.53501442894E+03  0.00000000000E+00 0. -1.
         23    2    1    2    0    0 -0.92604516213E+02 -0.39454440860E+03 -0.29909451882E+03  0.51186485492E+03  0.91143906728E+02 0.  0.
         11    1    3    3    0    0 -0.79481365101E+02 -0.24956161689E+03 -0.23832507265E+03  0.35411456943E+03  0.00000000000E+00 0. -1.
        -11    1    3    3    0    0 -0.13123151111E+02 -0.14498279171E+03 -0.60769446171E+02  0.15775028550E+03  0.00000000000E+00 0.  1.
         22    1    1    2    0    0  0.92604516213E+02  0.39454440860E+03  0.18744756737E+03  0.44651705152E+03  0.00000000000E+00 0.  1.
<mgrwt>
<rscale>  0 0.95185652E+03</rscale>
<asrwt>0</asrwt>
<pdfrwt beam="1">  1        1 0.82309912E-01 0.95185652E+03</pdfrwt>
<pdfrwt beam="2">  1       -1 0.65133458E-01 0.95185652E+03</pdfrwt>
<totfact> 0.96926374E+01</totfact>
</mgrwt>
</event>
<event>
 6    1  0.9364335E-007  0.2422115E+04  0.7818608E-02  0.8431270E-01
         -1   -1    0    0    0  501 -0.00000000000E+00  0.00000000000E+00  0.40807262618E+03  0.40807262618E+03  0.00000000000E+00 0.  1.
          1   -1    0    0  501    0  0.00000000000E+00 -0.00000000000E+00 -0.35941161411E+04  0.35941161411E+04  0.00000000000E+00 0. -1.
         23    2    1    2    0    0 -0.57490100406E+02 -0.41900442225E+02 -0.35901682742E+04  0.35918503951E+04  0.83787020772E+02 0.  0.
         11    1    3    3    0    0  0.14346392425E+02 -0.34713052777E+02 -0.11389749551E+04  0.11395941222E+04  0.00000000000E+00 0. -1.
        -11    1    3    3    0    0 -0.71836492831E+02 -0.71873894483E+01 -0.24511933191E+04  0.24522562728E+04  0.00000000000E+00 0.  1.
         22    1    1    2    0    0  0.57490100406E+02  0.41900442225E+02  0.40412475924E+03  0.41033837224E+03  0.00000000000E+00 0.  1.
<mgrwt>
<rscale>  0 0.24221151E+04</rscale>
<asrwt>0</asrwt>
<pdfrwt beam="1">  1        1 0.55294097E+00 0.24221151E+04</pdfrwt>
<pdfrwt beam="2">  1       -1 0.62780401E-01 0.24221151E+04</pdfrwt>
<totfact> 0.48483452E-01</totfact>
</mgrwt>
</event>
<event>
 6    1  0.9364335E-007  0.2915611E+04  0.7818608E-02  0.8268248E-01
          2   -1    0    0  501    0  0.00000000000E+00  0.00000000000E+00  0.22358615205E+04  0.22358615205E+04  0.00000000000E+00 0. -1.
         -2   -1    0    0    0  501 -0.00000000000E+00 -0.00000000000E+00 -0.95050465552E+03  0.95050465552E+03  0.00000000000E+00 0.  1.
         23    2    1    2    0    0  0.11913557006E+04 -0.27803215454E+03  0.15068515565E+04  0.19431082854E+04  0.91858104480E+02 0.  0.
         13    1    3    3    0    0  0.39432869566E+03 -0.67998311348E+02  0.43617992176E+03  0.59192213568E+03  0.00000000000E+00 0. -1.
        -13    1    3    3    0    0  0.79702700493E+03 -0.21003384319E+03  0.10706716347E+04  0.13511861497E+04  0.00000000000E+00 0.  1.
         22    1    1    2    0    0 -0.11913557006E+04  0.27803215454E+03 -0.22149469145E+03  0.12432578906E+04  0.00000000000E+00 0.  1.
<mgrwt>
<rscale>  0 0.29156109E+04</rscale>
<asrwt>0</asrwt>
<pdfrwt beam="1">  1        2 0.34397869E+00 0.29156109E+04</pdfrwt>
<pdfrwt beam="2">  1       -2 0.14623149E+00 0.29156109E+04</pdfrwt>
<totfact> 0.13614516E+00</totfact>
</mgrwt>
</event>
<event>
 6    1  0.9364335E-007  0.3026378E+04  0.7818608E-02  0.8236238E-01
          2   -1    0    0  501    0  0.00000000000E+00  0.00000000000E+00  0.26665351389E+04  0.26665351389E+04  0.00000000000E+00 0. -1.
         -2   -1    0    0    0  501 -0.00000000000E+00 -0.00000000000E+00 -0.85869542382E+03  0.85869542382E+03  0.00000000000E+00 0.  1.
         23    2    1    2    0    0  0.98509681796E+03 -0.11360960070E+04  0.72184440840E+03  0.16703678498E+04  0.89104016565E+02 0.  0.
         11    1    3    3    0    0  0.42132262271E+03 -0.49561362744E+03  0.26397932392E+03  0.70201901938E+03  0.00000000000E+00 0. -1.
        -11    1    3    3    0    0  0.56377419525E+03 -0.64048237954E+03  0.45786508448E+03  0.96834883039E+03  0.00000000000E+00 0.  1.
         22    1    1    2    0    0 -0.98509681796E+03  0.11360960070E+04  0.10859953067E+04  0.18548627130E+04  0.00000000000E+00 0.  1.
<mgrwt>
<rscale>  0 0.30263784E+04</rscale>
<asrwt>0</asrwt>
<pdfrwt beam="1">  1        2 0.41023617E+00 0.30263784E+04</pdfrwt>
<pdfrwt beam="2">  1       -2 0.13210699E+00 0.30263784E+04</pdfrwt>
<totfact> 0.98969893E-01</totfact>
</mgrwt>
</event>
<event>
 6    1  0.9364335E-007  0.2203080E+04  0.7818608E-02  0.8517147E-01
          1   -1    0    0  501    0  0.00000000000E+00  0.00000000000E+00  0.12739191343E+04  0.12739191343E+04  0.00000000000E+00 0. -1.
         -1   -1    0    0    0  501 -0.00000000000E+00 -0.00000000000E+00 -0.95248633455E+03  0.95248633455E+03  0.00000000000E+00 0.  1.
         23    2    1    2    0    0 -0.21690651807E+03  0.66899005958E+03 -0.69345743580E+03  0.99165920844E+03  0.88930495429E+02 0.  0.
         11    1    3    3    0    0 -0.13969629075E+03  0.31674118052E+03 -0.37768317056E+03  0.51233251547E+03  0.00000000000E+00 0. -1.
        -11    1    3    3    0    0 -0.77210227328E+02  0.35224887907E+03 -0.31577426524E+03  0.47932669297E+03  0.00000000000E+00 0.  1.
         22    1    1    2    0    0  0.21690651807E+03 -0.66899005958E+03  0.10148902355E+04  0.12347462604E+04  0.00000000000E+00 0. -1.
<mgrwt>
<rscale>  0 0.22030802E+04</rscale>
<asrwt>0</asrwt>
<pdfrwt beam="1">  1        1 0.19598756E+00 0.22030802E+04</pdfrwt>
<pdfrwt beam="2">  1       -1 0.14653636E+00 0.22030802E+04</pdfrwt>
<totfact> 0.31980694E+00</totfact>
</mgrwt>
</event>
<event>
 6    1  0.9364335E-007  0.6645601E+03  0.7818608E-02  0.9779835E-01
          2   -1    0    0  501    0  0.00000000000E+00  0.00000000000E+00  0.42437374176E+03  0.42437374176E+03  0.00000000000E+00 0. -1.
         -2   -1    0    0    0  501 -0.00000000000E+00 -0.00000000000E+00 -0.26017168577E+03  0.26017168577E+03  0.00000000000E+00 0.  1.
         23    2    1    2    0    0  0.78543393866E+02  0.63417476017E+02  0.40301202178E+03  0.42527521955E+03  0.90826657314E+02 0.  0.
         11    1    3    3    0    0  0.29685766294E+02  0.29615897040E+02  0.32250825486E+03  0.32522287824E+03  0.00000000000E+00 0.  1.
        -11    1    3    3    0    0  0.48857627572E+02  0.33801578977E+02  0.80503766926E+02  0.10005234131E+03  0.00000000000E+00 0. -1.
         22    1    1    2    0    0 -0.78543393866E+02 -0.63417476017E+02 -0.23880996579E+03  0.25927020798E+03  0.00000000000E+00 0.  1.
<mgrwt>
<rscale>  0 0.66456010E+03</rscale>
<asrwt>0</asrwt>
<pdfrwt beam="1">  1        2 0.65288268E-01 0.66456010E+03</pdfrwt>
<pdfrwt beam="2">  1       -2 0.40026413E-01 0.66456010E+03</pdfrwt>
<totfact> 0.44280646E+02</totfact>
</mgrwt>
</event>
<event>
 6    1  0.9364335E-007  0.2101996E+04  0.7818608E-02  0.8560365E-01
          2   -1    0    0  501    0  0.00000000000E+00  0.00000000000E+00  0.25444005983E+04  0.25444005983E+04  0.00000000000E+00 0. -1.
         -2   -1    0    0    0  501 -0.00000000000E+00 -0.00000000000E+00 -0.43412843679E+03  0.43412843679E+03  0.00000000000E+00 0.  1.
         23    2    1    2    0    0  0.40279662688E+03  0.45122823894E+02  0.24281506334E+04  0.24634291276E+04  0.91029536446E+02 0.  0.
         11    1    3    3    0    0  0.22005588912E+03  0.66034645073E+01  0.10625804637E+04  0.10851476591E+04  0.00000000000E+00 0.  1.
        -11    1    3    3    0    0  0.18274073776E+03  0.38519359386E+02  0.13655701697E+04  0.13782814685E+04  0.00000000000E+00 0. -1.
         22    1    1    2    0    0 -0.40279662688E+03 -0.45122823894E+02 -0.31787847184E+03  0.51509990751E+03  0.00000000000E+00 0.  1.
<mgrwt>
<rscale>  0 0.21019959E+04</rscale>
<asrwt>0</asrwt>
<pdfrwt beam="1">  1        2 0.39144624E+00 0.21019959E+04</pdfrwt>
<pdfrwt beam="2">  1       -2 0.66788991E-01 0.21019959E+04</pdfrwt>
<totfact> 0.62249331E+00</totfact>
</mgrwt>
</event>
<event>
 6    1  0.9364335E-007  0.5938094E+04  0.7818608E-02  0.7698125E-01
         -2   -1    0    0    0  501 -0.00000000000E+00  0.00000000000E+00  0.24132768819E+04  0.24132768819E+04  0.00000000000E+00 0.  1.
          2   -1    0    0  501    0  0.00000000000E+00 -0.00000000000E+00 -0.36528086641E+04  0.36528086641E+04  0.00000000000E+00 0. -1.
         23    2    1    2    0    0  0.19441670335E+04 -0.22426764490E+04 -0.57717007163E+03  0.30250156447E+04  0.90615948440E+02 0.  0.
         13    1    3    3    0    0  0.74571255906E+03 -0.92781938159E+03 -0.22802369927E+03  0.12119945681E+04  0.00000000000E+00 0. -1.
        -13    1    3    3    0    0  0.11984544744E+04 -0.13148570674E+04 -0.34914637236E+03  0.18130210766E+04  0.00000000000E+00 0.  1.
         22    1    1    2    0    0 -0.19441670335E+04  0.22426764490E+04 -0.66236171065E+03  0.30410699013E+04  0.00000000000E+00 0. -1.
<mgrwt>
<rscale>  0 0.59380935E+04</rscale>
<asrwt>0</asrwt>
<pdfrwt beam="1">  1        2 0.56197056E+00 0.59380935E+04</pdfrwt>
<pdfrwt beam="2">  1       -2 0.37127337E+00 0.59380935E+04</pdfrwt>
<totfact> 0.48594507E-03</totfact>
</mgrwt>
</event>
<event>
 6    1  0.9364335E-007  0.2194563E+04  0.7818608E-02  0.8520695E-01
         -1   -1    0    0    0  501 -0.00000000000E+00  0.00000000000E+00  0.42690394979E+03  0.42690394979E+03  0.00000000000E+00 0.  1.
          1   -1    0    0  501    0  0.00000000000E+00 -0.00000000000E+00 -0.28203678303E+04  0.28203678303E+04  0.00000000000E+00 0. -1.
         23    2    1    2    0    0 -0.93969675442E+03  0.19504416479E+03 -0.19799588806E+04  0.22022557030E+04  0.92848241260E+02 0.  0.
         11    1    3    3    0    0 -0.50356255354E+03  0.67393786802E+02 -0.11106214769E+04  0.12213096384E+04  0.00000000000E+00 0. -1.
        -11    1    3    3    0    0 -0.43613420087E+03  0.12765037799E+03 -0.86933740371E+03  0.98094606460E+03  0.00000000000E+00 0.  1.
         22    1    1    2    0    0  0.93969675442E+03 -0.19504416479E+03 -0.41350499989E+03  0.10450160771E+04  0.00000000000E+00 0.  1.
<mgrwt>
<rscale>  0 0.21945625E+04</rscale>
<asrwt>0</asrwt>
<pdfrwt beam="1">  1        1 0.43390275E+00 0.21945625E+04</pdfrwt>
<pdfrwt beam="2">  1       -1 0.65677529E-01 0.21945625E+04</pdfrwt>
<totfact> 0.17283942E+00</totfact>
</mgrwt>
</event>
<event>
 6    1  0.9364335E-007  0.4582062E+04  0.7818608E-02  0.7896426E-01
          2   -1    0    0  501    0  0.00000000000E+00  0.00000000000E+00  0.14764448853E+04  0.14764448853E+04  0.00000000000E+00 0. -1.
         -2   -1    0    0    0  501 -0.00000000000E+00 -0.00000000000E+00 -0.35550411001E+04  0.35550411001E+04  0.00000000000E+00 0.  1.
         23    2    1    2    0    0 -0.10824343533E+04 -0.19995698720E+04 -0.73962866031E+03  0.23927783634E+04  0.91618440159E+02 0.  0.
         11    1    3    3    0    0 -0.29771792321E+03 -0.52160359223E+03 -0.23563375036E+03  0.64515853365E+03  0.00000000000E+00 0.  1.
        -11    1    3    3    0    0 -0.78471643010E+03 -0.14779662798E+04 -0.50399490995E+03  0.17476198297E+04  0.00000000000E+00 0. -1.
         22    1    1    2    0    0  0.10824343533E+04  0.19995698720E+04 -0.13389675545E+04  0.26387076220E+04  0.00000000000E+00 0. -1.
<mgrwt>
<rscale>  0 0.45820617E+04</rscale>
<asrwt>0</asrwt>
<pdfrwt beam="1">  1        2 0.22714537E+00 0.45820617E+04</pdfrwt>
<pdfrwt beam="2">  1       -2 0.54692939E+00 0.45820617E+04</pdfrwt>
<totfact> 0.87797653E-03</totfact>
</mgrwt>
</event>
<event>
 6    1  0.9364335E-007  0.4413801E+04  0.7818608E-02  0.7925904E-01
          1   -1    0    0  501    0  0.00000000000E+00  0.00000000000E+00  0.25355732737E+04  0.25355732737E+04  0.00000000000E+00 0. -1.
         -1   -1    0    0    0  501 -0.00000000000E+00 -0.00000000000E+00 -0.19208319614E+04  0.19208319614E+04  0.00000000000E+00 0.  1.
         23    2    1    2    0    0  0.73195598328E+03  0.18898483552E+04  0.11869491390E+04  0.23505305560E+04  0.94123689210E+02 0.  0.
         11    1    3    3    0    0  0.51549592144E+03  0.14098574759E+04  0.91299531852E+03  0.17569845187E+04  0.00000000000E+00 0. -1.
        -11    1    3    3    0    0  0.21646006184E+03  0.47999087937E+03  0.27395382046E+03  0.59354603730E+03  0.00000000000E+00 0.  1.
         22    1    1    2    0    0 -0.73195598328E+03 -0.18898483552E+04 -0.57220782668E+03  0.21058746791E+04  0.00000000000E+00 0.  1.
<mgrwt>
<rscale>  0 0.44138012E+04</rscale>
<asrwt>0</asrwt>
<pdfrwt beam="1">  1        1 0.39008820E+00 0.44138012E+04</pdfrwt>
<pdfrwt beam="2">  1       -1 0.29551261E+00 0.44138012E+04</pdfrwt>
<totfact> 0.34198842E-02</totfact>
</mgrwt>
</event>
<event>
 6    1  0.9364335E-007  0.1714300E+04  0.7818608E-02  0.8753250E-01
          2   -1    0    0  501    0  0.00000000000E+00  0.00000000000E+00  0.59666595490E+03  0.59666595490E+03  0.00000000000E+00 0. -1.
         -2   -1    0    0    0  501 -0.00000000000E+00 -0.00000000000E+00 -0.12313529729E+04  0.12313529729E+04  0.00000000000E+00 0.  1.
         23    2    1    2    0    0  0.42351510982E+03  0.32015908456E+03 -0.10325237462E+04  0.11645877332E+04  0.91062692703E+02 0.  0.
         13    1    3    3    0    0  0.28726632729E+03  0.26358038698E+03 -0.71231713801E+03  0.81202972132E+03  0.00000000000E+00 0. -1.
        -13    1    3    3    0    0  0.13624878253E+03  0.56578697574E+02 -0.32020660824E+03  0.35255801185E+03  0.00000000000E+00 0.  1.
         22    1    1    2    0    0 -0.42351510982E+03 -0.32015908456E+03  0.39783672824E+03  0.66343119463E+03  0.00000000000E+00 0. -1.
<mgrwt>
<rscale>  0 0.17143003E+04</rscale>
<asrwt>0</asrwt>
<pdfrwt beam="1">  1        2 0.91794763E-01 0.17143003E+04</pdfrwt>
<pdfrwt beam="2">  1       -2 0.18943892E+00 0.17143003E+04</pdfrwt>
<totfact> 0.74137113E+00</totfact>
</mgrwt>
</event>
<event>
 6    1  0.9364335E-007  0.2978695E+04  0.7818608E-02  0.8249841E-01
         -1   -1    0    0    0  501 -0.00000000000E+00  0.00000000000E+00  0.39010416883E+04  0.39010416883E+04  0.00000000000E+00 0.  1.
          1   -1    0    0  501    0  0.00000000000E+00 -0.00000000000E+00 -0.56860605087E+03  0.56860605087E+03  0.00000000000E+00 0. -1.
         23    2    1    2    0    0 -0.19923044793E+03 -0.96575481180E+03  0.33397926754E+04  0.34835294633E+04  0.91582091709E+02 0.  0.
         13    1    3    3    0    0 -0.10935765055E+03 -0.33762382174E+03  0.12705720172E+04  0.13192051362E+04  0.00000000000E+00 0. -1.
        -13    1    3    3    0    0 -0.89872797382E+02 -0.62813099006E+03  0.20692206582E+04  0.21643243271E+04  0.00000000000E+00 0.  1.
         22    1    1    2    0    0  0.19923044793E+03  0.96575481180E+03 -0.73570379630E+01  0.98611827582E+03  0.00000000000E+00 0. -1.
<mgrwt>
<rscale>  0 0.29786950E+04</rscale>
<asrwt>0</asrwt>
<pdfrwt beam="1">  1        1 0.87477856E-01 0.29786950E+04</pdfrwt>
<pdfrwt beam="2">  1       -1 0.60016024E+00 0.29786950E+04</pdfrwt>
<totfact> 0.13725570E-02</totfact>
</mgrwt>
</event>
<event>
 6    1  0.9364335E-007  0.2568737E+04  0.7818608E-02  0.8378899E-01
         -1   -1    0    0    0  501 -0.00000000000E+00  0.00000000000E+00  0.80665857012E+03  0.80665857012E+03  0.00000000000E+00 0.  1.
          1   -1    0    0  501    0  0.00000000000E+00 -0.00000000000E+00 -0.20449816786E+04  0.20449816786E+04  0.00000000000E+00 0. -1.
         23    2    1    2    0    0 -0.51732707356E+03 -0.11028265139E+04 -0.17370523381E+03  0.12338439575E+04  0.91344306898E+02 0.  0.
         11    1    3    3    0    0 -0.30936000207E+03 -0.75447045131E+03 -0.10089267879E+03  0.82164992875E+03  0.00000000000E+00 0.  1.
        -11    1    3    3    0    0 -0.20796707149E+03 -0.34835606259E+03 -0.72812555018E+02  0.41219402874E+03  0.00000000000E+00 0. -1.
         22    1    1    2    0    0  0.51732707356E+03  0.11028265139E+04 -0.10646178747E+04  0.16177962912E+04  0.00000000000E+00 0.  1.
<mgrwt>
<rscale>  0 0.25687367E+04</rscale>
<asrwt>0</asrwt>
<pdfrwt beam="1">  1        1 0.31461256E+00 0.25687367E+04</pdfrwt>
<pdfrwt beam="2">  1       -1 0.12410132E+00 0.25687367E+04</pdfrwt>
<totfact> 0.13973751E+00</totfact>
</mgrwt>
</event>
<event>
 6    1  0.9364335E-007  0.4183323E+04  0.7818608E-02  0.7968552E-01
         -2   -1    0    0    0  501 -0.00000000000E+00  0.00000000000E+00  0.27993689960E+04  0.27993689960E+04  0.00000000000E+00 0.  1.
          2   -1    0    0  501    0  0.00000000000E+00 -0.00000000000E+00 -0.15628696362E+04  0.15628696362E+04  0.00000000000E+00 0. -1.
         23    2    1    2    0    0 -0.84982195217E+03 -0.15959141855E+04 -0.47592285757E+03  0.18719516430E+04  0.92525397923E+02 0.  0.
         13    1    3    3    0    0 -0.67221646234E+03 -0.11773596494E+04 -0.35284925392E+03  0.14009116004E+04  0.00000000000E+00 0.  1.
        -13    1    3    3    0    0 -0.17760548982E+03 -0.41855453618E+03 -0.12307360364E+03  0.47104004255E+03  0.00000000000E+00 0. -1.
         22    1    1    2    0    0  0.84982195217E+03  0.15959141855E+04  0.17124222174E+04  0.24902869892E+04  0.00000000000E+00 0.  1.
<mgrwt>
<rscale>  0 0.41833235E+04</rscale>
<asrwt>0</asrwt>
<pdfrwt beam="1">  1        2 0.24044148E+00 0.41833235E+04</pdfrwt>
<pdfrwt beam="2">  1       -2 0.43067215E+00 0.41833235E+04</pdfrwt>
<totfact> 0.42385190E-02</totfact>
</mgrwt>
</event>
<event>
 6    1  0.9364335E-007  0.1811990E+04  0.7818608E-02  0.8699949E-01
         -2   -1    0    0    0  501 -0.00000000000E+00  0.00000000000E+00  0.93572396291E+03  0.93572396291E+03  0.00000000000E+00 0.  1.
          2   -1    0    0  501    0  0.00000000000E+00 -0.00000000000E+00 -0.87721048875E+03  0.87721048875E+03  0.00000000000E+00 0. -1.
         23    2    1    2    0    0  0.49240453943E+03 -0.74867294294E+03  0.14605657678E+03  0.91258052083E+03  0.92180678236E+02 0.  0.
         13    1    3    3    0    0  0.19307245182E+03 -0.36519694124E+03  0.43107410335E+02  0.41533604030E+03  0.00000000000E+00 0. -1.
        -13    1    3    3    0    0  0.29933208761E+03 -0.38347600170E+03  0.10294916644E+03  0.49724448053E+03  0.00000000000E+00 0.  1.
         22    1    1    2    0    0 -0.49240453943E+03  0.74867294294E+03 -0.87543102621E+02  0.90035393083E+03  0.00000000000E+00 0. -1.
<mgrwt>
<rscale>  0 0.18119899E+04</rscale>
<asrwt>0</asrwt>
<pdfrwt beam="1">  1        2 0.13495546E+00 0.18119899E+04</pdfrwt>
<pdfrwt beam="2">  1       -2 0.14395753E+00 0.18119899E+04</pdfrwt>
<totfact> 0.95696936E+00</totfact>
</mgrwt>
</event>
<event>
 6    1  0.9364335E-007  0.1175241E+04  0.7818608E-02  0.9134808E-01
          2   -1    0    0  501    0  0.00000000000E+00  0.00000000000E+00  0.13952058732E+04  0.13952058732E+04  0.00000000000E+00 0. -1.
         -2   -1    0    0    0  501 -0.00000000000E+00 -0.00000000000E+00 -0.24748900312E+03  0.24748900312E+03  0.00000000000E+00 0.  1.
         23    2    1    2    0    0 -0.54085050028E+03  0.89064839619E+02  0.85989565349E+03  0.10235883734E+04  0.88661231080E+02 0.  0.
         11    1    3    3    0    0 -0.39212736041E+03  0.24230542445E+02  0.61905321186E+03  0.73319701655E+03  0.00000000000E+00 0. -1.
        -11    1    3    3    0    0 -0.14872313986E+03  0.64834297174E+02  0.24084244163E+03  0.29039135681E+03  0.00000000000E+00 0.  1.
         22    1    1    2    0    0  0.54085050028E+03 -0.89064839619E+02  0.28782121662E+03  0.61910650299E+03  0.00000000000E+00 0.  1.
<mgrwt>
<rscale>  0 0.11752414E+04</rscale>
<asrwt>0</asrwt>
<pdfrwt beam="1">  1        2 0.21464705E+00 0.11752414E+04</pdfrwt>
<pdfrwt beam="2">  1       -2 0.38075232E-01 0.11752414E+04</pdfrwt>
<totfact> 0.93656191E+01</totfact>
</mgrwt>
</event>
<event>
 6    1  0.9364335E-007  0.1905439E+04  0.7818608E-02  0.8652154E-01
         -2   -1    0    0    0  501 -0.00000000000E+00  0.00000000000E+00  0.73345179370E+03  0.73345179370E+03  0.00000000000E+00 0.  1.
          2   -1    0    0  501    0  0.00000000000E+00 -0.00000000000E+00 -0.12375381042E+04  0.12375381042E+04  0.00000000000E+00 0. -1.
         23    2    1    2    0    0 -0.44074824940E+03  0.28485913711E+03  0.56723198041E+03  0.77804118660E+03  0.90510889381E+02 0.  0.
         11    1    3    3    0    0 -0.31844372684E+03  0.15519458176E+03  0.38206742501E+03  0.52102522264E+03  0.00000000000E+00 0. -1.
        -11    1    3    3    0    0 -0.12230452256E+03  0.12966455535E+03  0.18516455540E+03  0.25701596396E+03  0.00000000000E+00 0.  1.
         22    1    1    2    0    0  0.44074824940E+03 -0.28485913711E+03 -0.10713182909E+04  0.11929487113E+04  0.00000000000E+00 0. -1.
<mgrwt>
<rscale>  0 0.19054391E+04</rscale>
<asrwt>0</asrwt>
<pdfrwt beam="1">  1        2 0.19039048E+00 0.19054391E+04</pdfrwt>
<pdfrwt beam="2">  1       -2 0.11283874E+00 0.19054391E+04</pdfrwt>
<totfact> 0.10403112E+01</totfact>
</mgrwt>
</event>
<event>
 6    1  0.9364335E-007  0.1600822E+04  0.7818608E-02  0.8820043E-01
         -2   -1    0    0    0  501 -0.00000000000E+00  0.00000000000E+00  0.51086114693E+03  0.51086114693E+03  0.00000000000E+00 0.  1.
          2   -1    0    0  501    0  0.00000000000E+00 -0.00000000000E+00 -0.12540740222E+04  0.12540740222E+04  0.00000000000E+00 0. -1.
         23    2    1    2    0    0  0.46811622091E+03 -0.63837098703E+03 -0.25851471612E+03  0.83672042089E+03  0.81368857167E+02 0.  0.
         13    1    3    3    0    0  0.18409262865E+03 -0.22582918496E+03 -0.57209933925E+02  0.29692068510E+03  0.00000000000E+00 0. -1.
        -13    1    3    3    0    0  0.28402359226E+03 -0.41254180207E+03 -0.20130478220E+03  0.53979973578E+03  0.00000000000E+00 0.  1.
         22    1    1    2    0    0 -0.46811622091E+03  0.63837098703E+03 -0.48469815912E+03  0.92821474822E+03  0.00000000000E+00 0. -1.
<mgrwt>
<rscale>  0 0.16008219E+04</rscale>
<asrwt>0</asrwt>
<pdfrwt beam="1">  1        2 0.19293446E+00 0.16008219E+04</pdfrwt>
<pdfrwt beam="2">  1       -2 0.78594024E-01 0.16008219E+04</pdfrwt>
<totfact> 0.24264478E+01</totfact>
</mgrwt>
</event>
<event>
 6    1  0.9364335E-007  0.2007202E+04  0.7818608E-02  0.8603261E-01
         -2   -1    0    0    0  501 -0.00000000000E+00  0.00000000000E+00  0.99239294719E+03  0.99239294719E+03  0.00000000000E+00 0.  1.
          2   -1    0    0  501    0  0.00000000000E+00 -0.00000000000E+00 -0.10149358825E+04  0.10149358825E+04  0.00000000000E+00 0. -1.
         23    2    1    2    0    0 -0.87482250220E+03  0.46990913232E+03  0.11986695675E+03  0.10041291584E+04  0.88194537807E+02 0.  0.
         13    1    3    3    0    0 -0.55963893238E+03  0.32608767670E+03  0.42202069938E+02  0.64908391001E+03  0.00000000000E+00 0. -1.
        -13    1    3    3    0    0 -0.31518356982E+03  0.14382145562E+03  0.77664886811E+02  0.35504524842E+03  0.00000000000E+00 0.  1.
         22    1    1    2    0    0  0.87482250220E+03 -0.46990913232E+03 -0.14240989203E+03  0.10031996712E+04  0.00000000000E+00 0.  1.
<mgrwt>
<rscale>  0 0.20072022E+04</rscale>
<asrwt>0</asrwt>
<pdfrwt beam="1">  1        2 0.15614398E+00 0.20072022E+04</pdfrwt>
<pdfrwt beam="2">  1       -2 0.15267584E+00 0.20072022E+04</pdfrwt>
<totfact> 0.65388375E+00</totfact>
</mgrwt>
</event>
<event>
 6    1  0.9364335E-007  0.5027859E+03  0.7818608E-02  0.1013054E+00
          2   -1    0    0  501    0  0.00000000000E+00  0.00000000000E+00  0.11137752237E+04  0.11137752237E+04  0.00000000000E+00 0. -1.
         -2   -1    0    0    0  501 -0.00000000000E+00 -0.00000000000E+00 -0.56742517500E+02  0.56742517500E+02  0.00000000000E+00 0.  1.
         23    2    1    2    0    0 -0.15768523478E+02 -0.15661093271E+03  0.11736682038E+03  0.21775984564E+03  0.94174037130E+02 0.  0.
         11    1    3    3    0    0 -0.17869489100E+02 -0.91610713331E+02  0.12077282557E+03  0.15263655144E+03  0.00000000000E+00 0. -1.
        -11    1    3    3    0    0  0.21009656214E+01 -0.65000219381E+02 -0.34060051971E+01  0.65123294200E+02  0.00000000000E+00 0.  1.
         22    1    1    2    0    0  0.15768523478E+02  0.15661093271E+03  0.93966588581E+03  0.95275789555E+03  0.00000000000E+00 0. -1.
<mgrwt>
<rscale>  0 0.50278588E+03</rscale>
<asrwt>0</asrwt>
<pdfrwt beam="1">  1        2 0.17135002E+00 0.50278588E+03</pdfrwt>
<pdfrwt beam="2">  1       -2 0.87296189E-02 0.50278588E+03</pdfrwt>
<totfact> 0.18436877E+03</totfact>
</mgrwt>
</event>
<event>
 6    1  0.9364335E-007  0.4309589E+04  0.7818608E-02  0.7944847E-01
         -2   -1    0    0    0  501 -0.00000000000E+00  0.00000000000E+00  0.18218401127E+04  0.18218401127E+04  0.00000000000E+00 0.  1.
          2   -1    0    0  501    0  0.00000000000E+00 -0.00000000000E+00 -0.25485985022E+04  0.25485985022E+04  0.00000000000E+00 0. -1.
         23    2    1    2    0    0 -0.15309309716E+04 -0.22256577370E+03 -0.18832230837E+04  0.24389377083E+04  0.92751272411E+02 0.  0.
         11    1    3    3    0    0 -0.55025550544E+03 -0.42256288232E+02 -0.63340776995E+03  0.84010244506E+03  0.00000000000E+00 0. -1.
        -11    1    3    3    0    0 -0.98067546615E+03 -0.18030948547E+03 -0.12498153138E+04  0.15988352632E+04  0.00000000000E+00 0.  1.
         22    1    1    2    0    0  0.15309309716E+04  0.22256577370E+03  0.11564646942E+04  0.19315009066E+04  0.00000000000E+00 0.  1.
<mgrwt>
<rscale>  0 0.43095888E+04</rscale>
<asrwt>0</asrwt>
<pdfrwt beam="1">  1        2 0.39209208E+00 0.43095888E+04</pdfrwt>
<pdfrwt beam="2">  1       -2 0.28028309E+00 0.43095888E+04</pdfrwt>
<totfact> 0.10526679E-01</totfact>
</mgrwt>
</event>
<event>
 6    1  0.9364335E-007  0.4192661E+04  0.7818608E-02  0.7966770E-01
          2   -1    0    0  501    0  0.00000000000E+00  0.00000000000E+00  0.24233826169E+04  0.24233826169E+04  0.00000000000E+00 0. -1.
         -2   -1    0    0    0  501 -0.00000000000E+00 -0.00000000000E+00 -0.18134161007E+04  0.18134161007E+04  0.00000000000E+00 0.  1.
         23    2    1    2    0    0 -0.13290651685E+04  0.12994492490E+04 -0.67219401300E+03  0.19787202877E+04  0.92231303276E+02 0.  0.
         11    1    3    3    0    0 -0.50606451735E+03  0.48142294305E+03 -0.20637808778E+03  0.72832771534E+03  0.00000000000E+00 0. -1.
        -11    1    3    3    0    0 -0.82300065111E+03  0.81802630592E+03 -0.46581592522E+03  0.12503925724E+04  0.00000000000E+00 0.  1.
         22    1    1    2    0    0  0.13290651685E+04 -0.12994492490E+04  0.12821605292E+04  0.22580784298E+04  0.00000000000E+00 0. -1.
<mgrwt>
<rscale>  0 0.41926608E+04</rscale>
<asrwt>0</asrwt>
<pdfrwt beam="1">  1        2 0.37282810E+00 0.41926608E+04</pdfrwt>
<pdfrwt beam="2">  1       -2 0.27898709E+00 0.41926608E+04</pdfrwt>
<totfact> 0.12789030E-01</totfact>
</mgrwt>
</event>
<event>
 6    1  0.9364335E-007  0.4824022E+03  0.7818608E-02  0.1018477E+00
         -1   -1    0    0    0  501 -0.00000000000E+00  0.00000000000E+00  0.46116063791E+02  0.46116063791E+02  0.00000000000E+00 0.  1.
          1   -1    0    0  501    0  0.00000000000E+00 -0.00000000000E+00 -0.12615556336E+04  0.12615556336E+04  0.00000000000E+00 0. -1.
         23    2    1    2    0    0  0.74938472906E+02 -0.18038561736E+03 -0.97169073927E+03  0.99531254822E+03  0.91156076088E+02 0.  0.
         13    1    3    3    0    0  0.65926443256E+02 -0.82873575435E+02 -0.34101257376E+03  0.35707688372E+03  0.00000000000E+00 0.  1.
        -13    1    3    3    0    0  0.90120296500E+01 -0.97512041924E+02 -0.63067816551E+03  0.63823566450E+03  0.00000000000E+00 0. -1.
         22    1    1    2    0    0 -0.74938472906E+02  0.18038561736E+03 -0.24374883051E+03  0.31235914913E+03  0.00000000000E+00 0.  1.
<mgrwt>
<rscale>  0 0.48240224E+03</rscale>
<asrwt>0</asrwt>
<pdfrwt beam="1">  1        1 0.19408548E+00 0.48240224E+03</pdfrwt>
<pdfrwt beam="2">  1       -1 0.70947792E-02 0.48240224E+03</pdfrwt>
<totfact> 0.10651214E+03</totfact>
</mgrwt>
</event>
<event>
 6    1  0.1008241E-006  0.2899368E+04  0.7818608E-02  0.8273066E-01
          2   -1    0    0  501    0  0.00000000000E+00  0.00000000000E+00  0.18823249578E+04  0.18823249578E+04  0.00000000000E+00 0. -1.
         -2   -1    0    0    0  501 -0.00000000000E+00 -0.00000000000E+00 -0.11164826939E+04  0.11164826939E+04  0.00000000000E+00 0.  1.
         23    2    1    2    0    0  0.55278019401E+03  0.11706571530E+04  0.10547773880E+04  0.16723508607E+04  0.90542532521E+02 0.  0.
         11    1    3    3    0    0  0.24369747911E+03  0.60499183519E+03  0.49869736831E+03  0.82103754307E+03  0.00000000000E+00 0. -1.
        -11    1    3    3    0    0  0.30908271490E+03  0.56566531776E+03  0.55608001974E+03  0.85131331759E+03  0.00000000000E+00 0.  1.
         22    1    1    2    0    0 -0.55278019401E+03 -0.11706571530E+04 -0.28893512417E+03  0.13264567911E+04  0.00000000000E+00 0.  1.
<mgrwt>
<rscale>  0 0.28993677E+04</rscale>
<asrwt>0</asrwt>
<pdfrwt beam="1">  1        2 0.28958846E+00 0.28993677E+04</pdfrwt>
<pdfrwt beam="2">  1       -2 0.17176657E+00 0.28993677E+04</pdfrwt>
<totfact> 0.13882931E+00</totfact>
</mgrwt>
</event>
<event>
 6    1  0.9364335E-007  0.1963139E+04  0.7818608E-02  0.8624051E-01
          2   -1    0    0  501    0  0.00000000000E+00  0.00000000000E+00  0.14072925785E+04  0.14072925785E+04  0.00000000000E+00 0. -1.
         -2   -1    0    0    0  501 -0.00000000000E+00 -0.00000000000E+00 -0.68463263303E+03  0.68463263303E+03  0.00000000000E+00 0.  1.
         23    2    1    2    0    0 -0.45609575398E+03  0.62032245466E+03  0.10079887559E+04  0.12708065754E+04  0.78004715280E+02 0.  0.
         13    1    3    3    0    0 -0.23176481518E+03  0.29991976142E+03  0.55844044546E+03  0.67492408756E+03  0.00000000000E+00 0. -1.
        -13    1    3    3    0    0 -0.22433093880E+03  0.32040269324E+03  0.44954831040E+03  0.59588248785E+03  0.00000000000E+00 0.  1.
         22    1    1    2    0    0  0.45609575398E+03 -0.62032245466E+03 -0.28532881038E+03  0.82111863612E+03  0.00000000000E+00 0. -1.
<mgrwt>
<rscale>  0 0.19631387E+04</rscale>
<asrwt>0</asrwt>
<pdfrwt beam="1">  1        2 0.21650655E+00 0.19631387E+04</pdfrwt>
<pdfrwt beam="2">  1       -2 0.10532810E+00 0.19631387E+04</pdfrwt>
<totfact> 0.97452471E+00</totfact>
</mgrwt>
</event>
<event>
 6    1  0.9364335E-007  0.3731228E+04  0.7818608E-02  0.8061076E-01
         -2   -1    0    0    0  501 -0.00000000000E+00  0.00000000000E+00  0.21235334786E+04  0.21235334786E+04  0.00000000000E+00 0.  1.
          2   -1    0    0  501    0  0.00000000000E+00 -0.00000000000E+00 -0.16390206184E+04  0.16390206184E+04  0.00000000000E+00 0. -1.
         23    2    1    2    0    0  0.53503329695E+03 -0.16228174382E+04 -0.50991682162E+03  0.17855140219E+04  0.90819001233E+02 0.  0.
         13    1    3    3    0    0  0.23834961682E+03 -0.78875876151E+03 -0.20365148575E+03  0.84877844656E+03  0.00000000000E+00 0. -1.
        -13    1    3    3    0    0  0.29668368013E+03 -0.83405867670E+03 -0.30626533587E+03  0.93673557538E+03  0.00000000000E+00 0.  1.
         22    1    1    2    0    0 -0.53503329695E+03  0.16228174382E+04  0.99442968182E+03  0.19770400751E+04  0.00000000000E+00 0.  1.
<mgrwt>
<rscale>  0 0.37312278E+04</rscale>
<asrwt>0</asrwt>
<pdfrwt beam="1">  1        2 0.25215702E+00 0.37312278E+04</pdfrwt>
<pdfrwt beam="2">  1       -2 0.32669746E+00 0.37312278E+04</pdfrwt>
<totfact> 0.18606963E-01</totfact>
</mgrwt>
</event>
<event>
 6    1  0.9364335E-007  0.4724140E+04  0.7818608E-02  0.7872530E-01
          1   -1    0    0  501    0  0.00000000000E+00  0.00000000000E+00  0.30458957938E+04  0.30458957938E+04  0.00000000000E+00 0. -1.
         -1   -1    0    0    0  501 -0.00000000000E+00 -0.00000000000E+00 -0.18317679159E+04  0.18317679159E+04  0.00000000000E+00 0.  1.
         23    2    1    2    0    0 -0.32026437886E+03  0.14668353652E+04 -0.12743184776E+04  0.19713704477E+04  0.90766726762E+02 0.  0.
         11    1    3    3    0    0 -0.12753558267E+03  0.76264619435E+03 -0.62311655605E+03  0.99306031288E+03  0.00000000000E+00 0.  1.
        -11    1    3    3    0    0 -0.19272879618E+03  0.70418917084E+03 -0.65120192156E+03  0.97831013480E+03  0.00000000000E+00 0. -1.
         22    1    1    2    0    0  0.32026437886E+03 -0.14668353652E+04  0.24884463555E+04  0.29062932621E+04  0.00000000000E+00 0. -1.
<mgrwt>
<rscale>  0 0.47241398E+04</rscale>
<asrwt>0</asrwt>
<pdfrwt beam="1">  1        1 0.46859935E+00 0.47241398E+04</pdfrwt>
<pdfrwt beam="2">  1       -1 0.28181045E+00 0.47241398E+04</pdfrwt>
<totfact> 0.17681002E-02</totfact>
</mgrwt>
</event>
<event>
 6    1  0.9364335E-007  0.9972435E+03  0.7818608E-02  0.9311573E-01
         -2   -1    0    0    0  501 -0.00000000000E+00  0.00000000000E+00  0.30505946679E+03  0.30505946679E+03  0.00000000000E+00 0.  1.
          2   -1    0    0  501    0  0.00000000000E+00 -0.00000000000E+00 -0.81500066908E+03  0.81500066908E+03  0.00000000000E+00 0. -1.
         23    2    1    2    0    0  0.37450604069E+03  0.32191079804E+03 -0.28735900976E+03  0.57837372397E+03  0.89775429158E+02 0.  0.
         11    1    3    3    0    0  0.36822893303E+03  0.31656608810E+03 -0.26213072154E+03  0.55183253840E+03  0.00000000000E+00 0.  1.
        -11    1    3    3    0    0  0.62771076538E+01  0.53447099356E+01 -0.25228288225E+02  0.26541185572E+02  0.00000000000E+00 0. -1.
         22    1    1    2    0    0 -0.37450604069E+03 -0.32191079804E+03 -0.22258219252E+03  0.54168641190E+03  0.00000000000E+00 0. -1.
<mgrwt>
<rscale>  0 0.99724354E+03</rscale>
<asrwt>0</asrwt>
<pdfrwt beam="1">  1        2 0.12538472E+00 0.99724354E+03</pdfrwt>
<pdfrwt beam="2">  1       -2 0.46932226E-01 0.99724354E+03</pdfrwt>
<totfact> 0.14435668E+02</totfact>
</mgrwt>
</event>
<event>
 6    1  0.9364335E-007  0.6948124E+03  0.7818608E-02  0.9726145E-01
          2   -1    0    0  501    0  0.00000000000E+00  0.00000000000E+00  0.17784832815E+03  0.17784832815E+03  0.00000000000E+00 0. -1.
         -2   -1    0    0    0  501 -0.00000000000E+00 -0.00000000000E+00 -0.67861792200E+03  0.67861792200E+03  0.00000000000E+00 0.  1.
         23    2    1    2    0    0  0.34154059043E+03  0.77361699506E+01 -0.25559541791E+03  0.43596630986E+03  0.89597893060E+02 0.  0.
         13    1    3    3    0    0  0.18596129534E+03  0.86688531750E+01 -0.19332161297E+03  0.26838405024E+03  0.00000000000E+00 0.  1.
        -13    1    3    3    0    0  0.15557929509E+03 -0.93268322442E+00 -0.62273804931E+02  0.16758225962E+03  0.00000000000E+00 0. -1.
         22    1    1    2    0    0 -0.34154059043E+03 -0.77361699506E+01 -0.24517417594E+03  0.42049994029E+03  0.00000000000E+00 0.  1.
<mgrwt>
<rscale>  0 0.69481239E+03</rscale>
<asrwt>0</asrwt>
<pdfrwt beam="1">  1        2 0.27361281E-01 0.69481239E+03</pdfrwt>
<pdfrwt beam="2">  1       -2 0.10440276E+00 0.69481239E+03</pdfrwt>
<totfact> 0.14882236E+02</totfact>
</mgrwt>
</event>
<event>
 6    1  0.9364335E-007  0.1784550E+04  0.7818608E-02  0.8714559E-01
         -2   -1    0    0    0  501 -0.00000000000E+00  0.00000000000E+00  0.38483562821E+03  0.38483562821E+03  0.00000000000E+00 0.  1.
          2   -1    0    0  501    0  0.00000000000E+00 -0.00000000000E+00 -0.20688169244E+04  0.20688169244E+04  0.00000000000E+00 0. -1.
         23    2    1    2    0    0 -0.24059797231E+03  0.85658049509E+03 -0.80477134704E+03  0.12028017767E+04  0.86357768765E+02 0.  0.
         13    1    3    3    0    0 -0.19299954458E+02  0.19806920016E+03 -0.18992807261E+03  0.27509374595E+03  0.00000000000E+00 0. -1.
        -13    1    3    3    0    0 -0.22129801786E+03  0.65851129493E+03 -0.61484327443E+03  0.92770803078E+03  0.00000000000E+00 0.  1.
         22    1    1    2    0    0  0.24059797231E+03 -0.85658049509E+03 -0.87920994913E+03  0.12508507759E+04  0.00000000000E+00 0.  1.
<mgrwt>
<rscale>  0 0.17845498E+04</rscale>
<asrwt>0</asrwt>
<pdfrwt beam="1">  1        2 0.31827952E+00 0.17845498E+04</pdfrwt>
<pdfrwt beam="2">  1       -2 0.59205482E-01 0.17845498E+04</pdfrwt>
<totfact> 0.15402993E+01</totfact>
</mgrwt>
</event>
<event>
 6    1  0.9364335E-007  0.6842925E+03  0.7818608E-02  0.9744478E-01
         -1   -1    0    0    0  501 -0.00000000000E+00  0.00000000000E+00  0.45871315583E+02  0.45871315583E+02  0.00000000000E+00 0.  1.
          1   -1    0    0  501    0  0.00000000000E+00 -0.00000000000E+00 -0.25520102731E+04  0.25520102731E+04  0.00000000000E+00 0. -1.
         23    2    1    2    0    0 -0.14602513348E+03 -0.24564778981E+03 -0.19470772065E+04  0.19700151876E+04  0.90465544526E+02 0.  0.
         13    1    3    3    0    0 -0.12493068277E+03 -0.13680185929E+03 -0.10644731227E+04  0.10804746426E+04  0.00000000000E+00 0.  1.
        -13    1    3    3    0    0 -0.21094450714E+02 -0.10884593052E+03 -0.88260408379E+03  0.88954054498E+03  0.00000000000E+00 0. -1.
         22    1    1    2    0    0  0.14602513348E+03  0.24564778981E+03 -0.55906175094E+03  0.62786640108E+03  0.00000000000E+00 0.  1.
<mgrwt>
<rscale>  0 0.68429254E+03</rscale>
<asrwt>0</asrwt>
<pdfrwt beam="1">  1        1 0.39261700E+00 0.68429254E+03</pdfrwt>
<pdfrwt beam="2">  1       -1 0.70571248E-02 0.68429254E+03</pdfrwt>
<totfact> 0.14288780E+02</totfact>
</mgrwt>
</event>
<event>
 6    1  0.9364335E-007  0.4059940E+04  0.7818608E-02  0.7992563E-01
          2   -1    0    0  501    0  0.00000000000E+00  0.00000000000E+00  0.21149252359E+04  0.21149252359E+04  0.00000000000E+00 0. -1.
         -2   -1    0    0    0  501 -0.00000000000E+00 -0.00000000000E+00 -0.19484275069E+04  0.19484275069E+04  0.00000000000E+00 0.  1.
         23    2    1    2    0    0  0.76522548537E+03 -0.18748594693E+04  0.20877450689E+03  0.20379008429E+04  0.93728211989E+02 0.  0.
         11    1    3    3    0    0  0.37144643346E+03 -0.10314200975E+04  0.10398142887E+03  0.11011866364E+04  0.00000000000E+00 0.  1.
        -11    1    3    3    0    0  0.39377905191E+03 -0.84343937173E+03  0.10479307802E+03  0.93671420653E+03  0.00000000000E+00 0. -1.
         22    1    1    2    0    0 -0.76522548537E+03  0.18748594693E+04 -0.42276777820E+02  0.20254518999E+04  0.00000000000E+00 0. -1.
<mgrwt>
<rscale>  0 0.40599401E+04</rscale>
<asrwt>0</asrwt>
<pdfrwt beam="1">  1        2 0.32537311E+00 0.40599401E+04</pdfrwt>
<pdfrwt beam="2">  1       -2 0.29975808E+00 0.40599401E+04</pdfrwt>
<totfact> 0.14432263E-01</totfact>
</mgrwt>
</event>
<event>
 6    1  0.9364335E-007  0.9933241E+03  0.7818608E-02  0.9315897E-01
         -2   -1    0    0    0  501 -0.00000000000E+00  0.00000000000E+00  0.39274652699E+03  0.39274652699E+03  0.00000000000E+00 0.  1.
          2   -1    0    0  501    0  0.00000000000E+00 -0.00000000000E+00 -0.62807229388E+03  0.62807229388E+03  0.00000000000E+00 0. -1.
         23    2    1    2    0    0 -0.16747478222E+03 -0.37911960976E+03  0.15496529346E+03  0.45151521736E+03  0.89845802027E+02 0.  0.
         13    1    3    3    0    0 -0.82900998104E+02 -0.95588264644E+02  0.65090136233E+02  0.14228990709E+03  0.00000000000E+00 0.  1.
        -13    1    3    3    0    0 -0.84573784118E+02 -0.28353134512E+03  0.89875157226E+02  0.30922531027E+03  0.00000000000E+00 0. -1.
         22    1    1    2    0    0  0.16747478222E+03  0.37911960976E+03 -0.39029106035E+03  0.56930360352E+03  0.00000000000E+00 0. -1.
<mgrwt>
<rscale>  0 0.99332414E+03</rscale>
<asrwt>0</asrwt>
<pdfrwt beam="1">  1        2 0.96626506E-01 0.99332414E+03</pdfrwt>
<pdfrwt beam="2">  1       -2 0.60422543E-01 0.99332414E+03</pdfrwt>
<totfact> 0.11961202E+02</totfact>
</mgrwt>
</event>
<event>
 6    1  0.9364335E-007  0.2402092E+04  0.7818608E-02  0.8438721E-01
         -2   -1    0    0    0  501 -0.00000000000E+00  0.00000000000E+00  0.82960773050E+03  0.82960773050E+03  0.00000000000E+00 0.  1.
          2   -1    0    0  501    0  0.00000000000E+00 -0.00000000000E+00 -0.17387881269E+04  0.17387881269E+04  0.00000000000E+00 0. -1.
         23    2    1    2    0    0  0.31748895107E+03  0.92317922366E+03 -0.11999761279E+04  0.15497588905E+04  0.93545699601E+02 0.  0.
         11    1    3    3    0    0  0.88322885282E+02  0.36137908538E+03 -0.50422415844E+03  0.62660815297E+03  0.00000000000E+00 0.  1.
        -11    1    3    3    0    0  0.22916606579E+03  0.56180013828E+03 -0.69575196948E+03  0.92315073748E+03  0.00000000000E+00 0. -1.
         22    1    1    2    0    0 -0.31748895107E+03 -0.92317922366E+03  0.29079573149E+03  0.10186369670E+04  0.00000000000E+00 0.  1.
<mgrwt>
<rscale>  0 0.24020925E+04</rscale>
<asrwt>0</asrwt>
<pdfrwt beam="1">  1        2 0.26750586E+00 0.24020925E+04</pdfrwt>
<pdfrwt beam="2">  1       -2 0.12763196E+00 0.24020925E+04</pdfrwt>
<totfact> 0.38175773E+00</totfact>
</mgrwt>
</event>
<event>
 6    1  0.9364335E-007  0.1873158E+04  0.7818608E-02  0.8668334E-01
         -2   -1    0    0    0  501 -0.00000000000E+00  0.00000000000E+00  0.24855979001E+03  0.24855979001E+03  0.00000000000E+00 0.  1.
          2   -1    0    0  501    0  0.00000000000E+00 -0.00000000000E+00 -0.35290520669E+04  0.35290520669E+04  0.00000000000E+00 0. -1.
         23    2    1    2    0    0  0.54422883595E+03 -0.52455788393E+03 -0.53569363760E+03  0.93063704674E+03  0.88156905140E+02 0.  0.
         11    1    3    3    0    0  0.33642898896E+03 -0.29139959976E+03 -0.35884322392E+03  0.57172252947E+03  0.00000000000E+00 0. -1.
        -11    1    3    3    0    0  0.20779984700E+03 -0.23315828416E+03 -0.17685041368E+03  0.35891451727E+03  0.00000000000E+00 0.  1.
         22    1    1    2    0    0 -0.54422883595E+03  0.52455788393E+03 -0.27447986393E+04  0.28469748102E+04  0.00000000000E+00 0. -1.
<mgrwt>
<rscale>  0 0.18731582E+04</rscale>
<asrwt>0</asrwt>
<pdfrwt beam="1">  1        2 0.54293111E+00 0.18731582E+04</pdfrwt>
<pdfrwt beam="2">  1       -2 0.38239966E-01 0.18731582E+04</pdfrwt>
<totfact> 0.47360865E+00</totfact>
</mgrwt>
</event>
<event>
 6    1  0.9364335E-007  0.2510261E+04  0.7818608E-02  0.8399339E-01
          1   -1    0    0  501    0  0.00000000000E+00  0.00000000000E+00  0.73109305070E+03  0.73109305070E+03  0.00000000000E+00 0. -1.
         -1   -1    0    0    0  501 -0.00000000000E+00 -0.00000000000E+00 -0.21547904734E+04  0.21547904734E+04  0.00000000000E+00 0.  1.
         23    2    1    2    0    0 -0.79350459435E+03  0.70461063808E+03 -0.14796746510E+04  0.18232174699E+04  0.92515821333E+02 0.  0.
         11    1    3    3    0    0 -0.59148799438E+03  0.52164245396E+03 -0.10278269214E+04  0.12955296514E+04  0.00000000000E+00 0. -1.
        -11    1    3    3    0    0 -0.20201659997E+03  0.18296818412E+03 -0.45184772963E+03  0.52768781854E+03  0.00000000000E+00 0.  1.
         22    1    1    2    0    0  0.79350459435E+03 -0.70461063808E+03  0.55977228358E+02  0.10626660541E+04  0.00000000000E+00 0.  1.
<mgrwt>
<rscale>  0 0.25102608E+04</rscale>
<asrwt>0</asrwt>
<pdfrwt beam="1">  1        1 0.11247586E+00 0.25102608E+04</pdfrwt>
<pdfrwt beam="2">  1       -1 0.33150622E+00 0.25102608E+04</pdfrwt>
<totfact> 0.46559198E-01</totfact>
</mgrwt>
</event>
<event>
 6    1  0.9364335E-007  0.2997689E+04  0.7818608E-02  0.8244391E-01
         -1   -1    0    0    0  501 -0.00000000000E+00  0.00000000000E+00  0.11459914058E+04  0.11459914058E+04  0.00000000000E+00 0.  1.
          1   -1    0    0  501    0  0.00000000000E+00 -0.00000000000E+00 -0.19603418734E+04  0.19603418734E+04  0.00000000000E+00 0. -1.
         23    2    1    2    0    0  0.89822293959E+03  0.75098779806E+03 -0.13751500921E+04  0.18081486463E+04  0.87043835131E+02 0.  0.
         13    1    3    3    0    0  0.54422878952E+03  0.40097964675E+03 -0.80956708969E+03  0.10546888286E+04  0.00000000000E+00 0.  1.
        -13    1    3    3    0    0  0.35399415006E+03  0.35000815131E+03 -0.56558300242E+03  0.75345981770E+03  0.00000000000E+00 0. -1.
         22    1    1    2    0    0 -0.89822293959E+03 -0.75098779806E+03  0.56079962451E+03  0.12981846328E+04  0.00000000000E+00 0.  1.
<mgrwt>
<rscale>  0 0.29976891E+04</rscale>
<asrwt>0</asrwt>
<pdfrwt beam="1">  1        1 0.30159106E+00 0.29976891E+04</pdfrwt>
<pdfrwt beam="2">  1       -1 0.17630637E+00 0.29976891E+04</pdfrwt>
<totfact> 0.59724567E-01</totfact>
</mgrwt>
</event>
<event>
 6    1  0.9364335E-007  0.1430561E+04  0.7818608E-02  0.8931989E-01
         -2   -1    0    0    0  501 -0.00000000000E+00  0.00000000000E+00  0.80122078981E+03  0.80122078981E+03  0.00000000000E+00 0.  1.
          2   -1    0    0  501    0  0.00000000000E+00 -0.00000000000E+00 -0.63855816537E+03  0.63855816537E+03  0.00000000000E+00 0. -1.
         23    2    1    2    0    0  0.48592854120E+03 -0.41322064327E+03  0.40072340993E+03  0.75893331571E+03  0.92318358171E+02 0.  0.
         13    1    3    3    0    0  0.74663137228E+02 -0.10542901167E+03  0.10284062312E+03  0.16512436019E+03  0.00000000000E+00 0.  1.
        -13    1    3    3    0    0  0.41126540398E+03 -0.30779163160E+03  0.29788278680E+03  0.59380895553E+03  0.00000000000E+00 0. -1.
         22    1    1    2    0    0 -0.48592854120E+03  0.41322064327E+03 -0.23806078549E+03  0.68084563946E+03  0.00000000000E+00 0. -1.
<mgrwt>
<rscale>  0 0.14305608E+04</rscale>
<asrwt>0</asrwt>
<pdfrwt beam="1">  1        2 0.98239718E-01 0.14305608E+04</pdfrwt>
<pdfrwt beam="2">  1       -2 0.12326474E+00 0.14305608E+04</pdfrwt>
<totfact> 0.22159920E+01</totfact>
</mgrwt>
</event>
<event>
 6    1  0.9364335E-007  0.3774972E+04  0.7818608E-02  0.8051547E-01
          2   -1    0    0  501    0  0.00000000000E+00  0.00000000000E+00  0.13313189385E+04  0.13313189385E+04  0.00000000000E+00 0. -1.
         -2   -1    0    0    0  501 -0.00000000000E+00 -0.00000000000E+00 -0.26759955257E+04  0.26759955257E+04  0.00000000000E+00 0.  1.
         23    2    1    2    0    0 -0.17969476648E+04 -0.47574613966E+03 -0.10137710164E+04  0.21192324225E+04  0.89772418926E+02 0.  0.
         11    1    3    3    0    0 -0.51274369228E+03 -0.10755137518E+03 -0.25192273841E+03  0.58132474436E+03  0.00000000000E+00 0.  1.
        -11    1    3    3    0    0 -0.12842039725E+04 -0.36819476448E+03 -0.76184827802E+03  0.15379076781E+04  0.00000000000E+00 0. -1.
         22    1    1    2    0    0  0.17969476648E+04  0.47574613966E+03 -0.33090557078E+03  0.18880820417E+04  0.00000000000E+00 0. -1.
<mgrwt>
<rscale>  0 0.37749721E+04</rscale>
<asrwt>0</asrwt>
<pdfrwt beam="1">  1        2 0.20481830E+00 0.37749721E+04</pdfrwt>
<pdfrwt beam="2">  1       -2 0.41169162E+00 0.37749721E+04</pdfrwt>
<totfact> 0.79167775E-02</totfact>
</mgrwt>
</event>
<event>
 6    1  0.9364335E-007  0.3259849E+04  0.7818608E-02  0.8173188E-01
         -2   -1    0    0    0  501 -0.00000000000E+00  0.00000000000E+00  0.12855732476E+04  0.12855732476E+04  0.00000000000E+00 0.  1.
          2   -1    0    0  501    0  0.00000000000E+00 -0.00000000000E+00 -0.20665132504E+04  0.20665132504E+04  0.00000000000E+00 0. -1.
         23    2    1    2    0    0  0.71388151578E+03  0.94627508263E+03  0.75773737084E+03  0.14097705064E+04  0.90684105915E+02 0.  0.
         11    1    3    3    0    0  0.49170415274E+03  0.59419563447E+03  0.52255374997E+03  0.93161357196E+03  0.00000000000E+00 0.  1.
        -11    1    3    3    0    0  0.22217736304E+03  0.35207944816E+03  0.23518362087E+03  0.47815693448E+03  0.00000000000E+00 0. -1.
         22    1    1    2    0    0 -0.71388151578E+03 -0.94627508263E+03 -0.15386773736E+04  0.19423159915E+04  0.00000000000E+00 0. -1.
<mgrwt>
<rscale>  0 0.32598492E+04</rscale>
<asrwt>0</asrwt>
<pdfrwt beam="1">  1        2 0.31792511E+00 0.32598492E+04</pdfrwt>
<pdfrwt beam="2">  1       -2 0.19778050E+00 0.32598492E+04</pdfrwt>
<totfact> 0.70712557E-01</totfact>
</mgrwt>
</event>
<event>
 6    1  0.9364335E-007  0.2990465E+04  0.7818608E-02  0.8246459E-01
          1   -1    0    0  501    0  0.00000000000E+00  0.00000000000E+00  0.28309414574E+04  0.28309414574E+04  0.00000000000E+00 0. -1.
         -1   -1    0    0    0  501 -0.00000000000E+00 -0.00000000000E+00 -0.78974425428E+03  0.78974425428E+03  0.00000000000E+00 0.  1.
         23    2    1    2    0    0 -0.13959349222E+03  0.69628930565E+03 -0.56966030095E+03  0.91497285797E+03  0.91418445078E+02 0.  0.
         11    1    3    3    0    0 -0.69895802554E+01  0.24598923932E+03 -0.21224675783E+03  0.32497422406E+03  0.00000000000E+00 0.  1.
        -11    1    3    3    0    0 -0.13260391196E+03  0.45030006633E+03 -0.35741354312E+03  0.58999863391E+03  0.00000000000E+00 0. -1.
         22    1    1    2    0    0  0.13959349222E+03 -0.69628930565E+03  0.26108575041E+04  0.27057128537E+04  0.00000000000E+00 0. -1.
<mgrwt>
<rscale>  0 0.29904647E+04</rscale>
<asrwt>0</asrwt>
<pdfrwt beam="1">  1        1 0.43552945E+00 0.29904647E+04</pdfrwt>
<pdfrwt beam="2">  1       -1 0.12149912E+00 0.29904647E+04</pdfrwt>
<totfact> 0.40480993E-01</totfact>
</mgrwt>
</event>
<event>
 6    1  0.9364335E-007  0.2108059E+04  0.7818608E-02  0.8557702E-01
         -2   -1    0    0    0  501 -0.00000000000E+00  0.00000000000E+00  0.48079597369E+03  0.48079597369E+03  0.00000000000E+00 0.  1.
          2   -1    0    0  501    0  0.00000000000E+00 -0.00000000000E+00 -0.23107056544E+04  0.23107056544E+04  0.00000000000E+00 0. -1.
         23    2    1    2    0    0  0.91116106568E+03  0.52429834155E+03 -0.86432718470E+03  0.13641079210E+04  0.92874642686E+02 0.  0.
         11    1    3    3    0    0  0.49263197736E+03  0.24280741630E+03 -0.41149248822E+03  0.68627091909E+03  0.00000000000E+00 0. -1.
        -11    1    3    3    0    0  0.41852908831E+03  0.28149092525E+03 -0.45283469648E+03  0.67783700187E+03  0.00000000000E+00 0.  1.
         22    1    1    2    0    0 -0.91116106568E+03 -0.52429834155E+03 -0.96558249601E+03  0.14273937071E+04  0.00000000000E+00 0. -1.
<mgrwt>
<rscale>  0 0.21080588E+04</rscale>
<asrwt>0</asrwt>
<pdfrwt beam="1">  1        2 0.35549318E+00 0.21080588E+04</pdfrwt>
<pdfrwt beam="2">  1       -2 0.73968611E-01 0.21080588E+04</pdfrwt>
<totfact> 0.67793072E+00</totfact>
</mgrwt>
</event>
<event>
 6    1  0.9364335E-007  0.1733092E+04  0.7818608E-02  0.8742713E-01
          2   -1    0    0  501    0  0.00000000000E+00  0.00000000000E+00  0.17593815767E+04  0.17593815767E+04  0.00000000000E+00 0. -1.
         -2   -1    0    0    0  501 -0.00000000000E+00 -0.00000000000E+00 -0.42679880184E+03  0.42679880184E+03  0.00000000000E+00 0.  1.
         23    2    1    2    0    0  0.30998949784E+03  0.57309924707E+03  0.13848688739E+04  0.15325213911E+04  0.78890940904E+02 0.  0.
         11    1    3    3    0    0  0.24178885973E+03  0.41243690056E+03  0.10829031991E+04  0.11837421122E+04  0.00000000000E+00 0. -1.
        -11    1    3    3    0    0  0.68200638114E+02  0.16066234651E+03  0.30196567481E+03  0.34877927890E+03  0.00000000000E+00 0.  1.
         22    1    1    2    0    0 -0.30998949784E+03 -0.57309924707E+03 -0.52286098990E+02  0.65365898748E+03  0.00000000000E+00 0.  1.
<mgrwt>
<rscale>  0 0.17330920E+04</rscale>
<asrwt>0</asrwt>
<pdfrwt beam="1">  1        2 0.27067409E+00 0.17330920E+04</pdfrwt>
<pdfrwt beam="2">  1       -2 0.65661355E-01 0.17330920E+04</pdfrwt>
<totfact> 0.18423768E+01</totfact>
</mgrwt>
</event>
<event>
 6    1  0.9364335E-007  0.1419228E+04  0.7818608E-02  0.8940016E-01
          1   -1    0    0  501    0  0.00000000000E+00  0.00000000000E+00  0.14823203968E+04  0.14823203968E+04  0.00000000000E+00 0. -1.
         -1   -1    0    0    0  501 -0.00000000000E+00 -0.00000000000E+00 -0.33970548585E+03  0.33970548585E+03  0.00000000000E+00 0.  1.
         23    2    1    2    0    0 -0.67153677591E+03 -0.11312765607E+03  0.81629319270E+03  0.10668799552E+04  0.90215044852E+02 0.  0.
         11    1    3    3    0    0 -0.12214470292E+03 -0.17942923018E+02  0.20657862997E+03  0.24065744804E+03  0.00000000000E+00 0. -1.
        -11    1    3    3    0    0 -0.54939207299E+03 -0.95184733048E+02  0.60971456272E+03  0.82622250712E+03  0.00000000000E+00 0.  1.
         22    1    1    2    0    0  0.67153677591E+03  0.11312765607E+03  0.32632171823E+03  0.75514592746E+03  0.00000000000E+00 0.  1.
<mgrwt>
<rscale>  0 0.14192285E+04</rscale>
<asrwt>0</asrwt>
<pdfrwt beam="1">  1        1 0.22804929E+00 0.14192285E+04</pdfrwt>
<pdfrwt beam="2">  1       -1 0.52262383E-01 0.14192285E+04</pdfrwt>
<totfact> 0.24158561E+01</totfact>
</mgrwt>
</event>
<event>
 6    1  0.9364335E-007  0.2572596E+04  0.7818608E-02  0.8377570E-01
          2   -1    0    0  501    0  0.00000000000E+00  0.00000000000E+00  0.13460356016E+04  0.13460356016E+04  0.00000000000E+00 0. -1.
         -2   -1    0    0    0  501 -0.00000000000E+00 -0.00000000000E+00 -0.12292119518E+04  0.12292119518E+04  0.00000000000E+00 0.  1.
         23    2    1    2    0    0 -0.11775551354E+04  0.40277788032E+03  0.37751132070E+03  0.13037035394E+04  0.90895563136E+02 0.  0.
         13    1    3    3    0    0 -0.66897522127E+03  0.23272236557E+03  0.26158089824E+03  0.75505768815E+03  0.00000000000E+00 0.  1.
        -13    1    3    3    0    0 -0.50857991418E+03  0.17005551475E+03  0.11593042246E+03  0.54864585121E+03  0.00000000000E+00 0. -1.
         22    1    1    2    0    0  0.11775551354E+04 -0.40277788032E+03 -0.26068767085E+03  0.12715440140E+04  0.00000000000E+00 0.  1.
<mgrwt>
<rscale>  0 0.25725964E+04</rscale>
<asrwt>0</asrwt>
<pdfrwt beam="1">  1        2 0.20708240E+00 0.25725964E+04</pdfrwt>
<pdfrwt beam="2">  1       -2 0.18910953E+00 0.25725964E+04</pdfrwt>
<totfact> 0.21658079E+00</totfact>
</mgrwt>
</event>
<event>
 6    1  0.9364335E-007  0.2884750E+04  0.7818608E-02  0.8277429E-01
         -2   -1    0    0    0  501 -0.00000000000E+00  0.00000000000E+00  0.12612146853E+04  0.12612146853E+04  0.00000000000E+00 0.  1.
          2   -1    0    0  501    0  0.00000000000E+00 -0.00000000000E+00 -0.16495572816E+04  0.16495572816E+04  0.00000000000E+00 0. -1.
         23    2    1    2    0    0 -0.30895932686E+03 -0.21380801039E+03  0.12092632464E+04  0.12695790594E+04  0.91343624974E+02 0.  0.
         11    1    3    3    0    0 -0.19376975465E+03 -0.78749744341E+02  0.65430803499E+03  0.68692593830E+03  0.00000000000E+00 0.  1.
        -11    1    3    3    0    0 -0.11518957220E+03 -0.13505826605E+03  0.55495521145E+03  0.58265312107E+03  0.00000000000E+00 0. -1.
         22    1    1    2    0    0  0.30895932686E+03  0.21380801039E+03 -0.15976058427E+04  0.16411929075E+04  0.00000000000E+00 0. -1.
<mgrwt>
<rscale>  0 0.28847502E+04</rscale>
<asrwt>0</asrwt>
<pdfrwt beam="1">  1        2 0.25377804E+00 0.28847502E+04</pdfrwt>
<pdfrwt beam="2">  1       -2 0.19403303E+00 0.28847502E+04</pdfrwt>
<totfact> 0.13171453E+00</totfact>
</mgrwt>
</event>
<event>
 6    1  0.9364335E-007  0.3084479E+04  0.7818608E-02  0.8220010E-01
         -2   -1    0    0    0  501 -0.00000000000E+00  0.00000000000E+00  0.19529848461E+04  0.19529848461E+04  0.00000000000E+00 0.  1.
          2   -1    0    0  501    0  0.00000000000E+00 -0.00000000000E+00 -0.12178809388E+04  0.12178809388E+04  0.00000000000E+00 0. -1.
         23    2    1    2    0    0  0.99834636693E+03  0.40893452473E+03  0.14988317018E+04  0.18490476969E+04  0.92509464196E+02 0.  0.
         11    1    3    3    0    0  0.68270892650E+03  0.27810157381E+03  0.94865387306E+03  0.12014058992E+04  0.00000000000E+00 0. -1.
        -11    1    3    3    0    0  0.31563744043E+03  0.13083295092E+03  0.55017782878E+03  0.64764179770E+03  0.00000000000E+00 0.  1.
         22    1    1    2    0    0 -0.99834636693E+03 -0.40893452473E+03 -0.76372779449E+03  0.13218180881E+04  0.00000000000E+00 0. -1.
<mgrwt>
<rscale>  0 0.30844792E+04</rscale>
<asrwt>0</asrwt>
<pdfrwt beam="1">  1        2 0.18736630E+00 0.30844792E+04</pdfrwt>
<pdfrwt beam="2">  1       -2 0.30045921E+00 0.30844792E+04</pdfrwt>
<totfact> 0.49607286E-01</totfact>
</mgrwt>
</event>
<event>
 6    1  0.1242047E-006  0.4103082E+04  0.7818608E-02  0.7984069E-01
         -2   -1    0    0    0  501 -0.00000000000E+00  0.00000000000E+00  0.16461018843E+04  0.16461018843E+04  0.00000000000E+00 0.  1.
          2   -1    0    0  501    0  0.00000000000E+00 -0.00000000000E+00 -0.25568403464E+04  0.25568403464E+04  0.00000000000E+00 0. -1.
         23    2    1    2    0    0 -0.15836182386E+04 -0.99464833774E+03  0.40600464722E+03  0.19158076790E+04  0.91144104747E+02 0.  0.
         13    1    3    3    0    0 -0.90140327405E+03 -0.57327852204E+03  0.27759604311E+03  0.11037371469E+04  0.00000000000E+00 0. -1.
        -13    1    3    3    0    0 -0.68221496459E+03 -0.42136981570E+03  0.12840860411E+03  0.81207053210E+03  0.00000000000E+00 0.  1.
         22    1    1    2    0    0  0.15836182386E+04  0.99464833774E+03 -0.13167431093E+04  0.22871345517E+04  0.00000000000E+00 0. -1.
<mgrwt>
<rscale>  0 0.41030816E+04</rscale>
<asrwt>0</asrwt>
<pdfrwt beam="1">  1        2 0.39336005E+00 0.41030816E+04</pdfrwt>
<pdfrwt beam="2">  1       -2 0.25324645E+00 0.41030816E+04</pdfrwt>
<totfact> 0.15488436E-01</totfact>
</mgrwt>
</event>
<event>
 6    1  0.9899241E-007  0.4446856E+04  0.7818608E-02  0.7920007E-01
         -2   -1    0    0    0  501 -0.00000000000E+00  0.00000000000E+00  0.18960055766E+04  0.18960055766E+04  0.00000000000E+00 0.  1.
          2   -1    0    0  501    0  0.00000000000E+00 -0.00000000000E+00 -0.26073926562E+04  0.26073926562E+04  0.00000000000E+00 0. -1.
         23    2    1    2    0    0 -0.14806108495E+03  0.21883978587E+04  0.68166422288E+01  0.21954069289E+04  0.93583354264E+02 0.  0.
         11    1    3    3    0    0 -0.10984718867E+03  0.10401501568E+04  0.28419826978E+02  0.10463204290E+04  0.00000000000E+00 0.  1.
        -11    1    3    3    0    0 -0.38213896276E+02  0.11482477018E+04 -0.21603184749E+02  0.11490864999E+04  0.00000000000E+00 0. -1.
         22    1    1    2    0    0  0.14806108495E+03 -0.21883978587E+04 -0.71820372188E+03  0.23079913039E+04  0.00000000000E+00 0. -1.
<mgrwt>
<rscale>  0 0.44468555E+04</rscale>
<asrwt>0</asrwt>
<pdfrwt beam="1">  1        2 0.40113733E+00 0.44468555E+04</pdfrwt>
<pdfrwt beam="2">  1       -2 0.29169317E+00 0.44468555E+04</pdfrwt>
<totfact> 0.81911900E-02</totfact>
</mgrwt>
</event>
<event>
 6    1  0.9364335E-007  0.1206080E+04  0.7818608E-02  0.9107551E-01
          1   -1    0    0  501    0  0.00000000000E+00  0.00000000000E+00  0.69756102063E+03  0.69756102063E+03  0.00000000000E+00 0. -1.
         -1   -1    0    0    0  501 -0.00000000000E+00 -0.00000000000E+00 -0.52132684009E+03  0.52132684009E+03  0.00000000000E+00 0.  1.
         23    2    1    2    0    0  0.19772380463E+03  0.45539566763E+03  0.42840508940E+03  0.66204849044E+03  0.91089878983E+02 0.  0.
         13    1    3    3    0    0  0.10779960751E+03  0.14267827028E+03  0.13740419394E+03  0.22551664396E+03  0.00000000000E+00 0.  1.
        -13    1    3    3    0    0  0.89924197122E+02  0.31271739735E+03  0.29100089546E+03  0.43653184648E+03  0.00000000000E+00 0. -1.
         22    1    1    2    0    0 -0.19772380463E+03 -0.45539566763E+03 -0.25217090887E+03  0.55683937028E+03  0.00000000000E+00 0.  1.
<mgrwt>
<rscale>  0 0.12060801E+04</rscale>
<asrwt>0</asrwt>
<pdfrwt beam="1">  1        1 0.10731708E+00 0.12060801E+04</pdfrwt>
<pdfrwt beam="2">  1       -1 0.80204129E-01 0.12060801E+04</pdfrwt>
<totfact> 0.42058374E+01</totfact>
</mgrwt>
</event>
<event>
 6    1  0.9364335E-007  0.1995815E+04  0.7818608E-02  0.8608580E-01
          2   -1    0    0  501    0  0.00000000000E+00  0.00000000000E+00  0.71779637444E+03  0.71779637444E+03  0.00000000000E+00 0. -1.
         -2   -1    0    0    0  501 -0.00000000000E+00 -0.00000000000E+00 -0.13873280802E+04  0.13873280802E+04  0.00000000000E+00 0.  1.
         23    2    1    2    0    0  0.50180213743E+03  0.15854628514E+03 -0.12272235424E+04  0.13383373300E+04  0.90149189041E+02 0.  0.
         13    1    3    3    0    0  0.42683415271E+03  0.16715242836E+03 -0.10465547848E+04  0.11425428857E+04  0.00000000000E+00 0.  1.
        -13    1    3    3    0    0  0.74967984724E+02 -0.86061432192E+01 -0.18066875766E+03  0.19579444432E+03  0.00000000000E+00 0. -1.
         22    1    1    2    0    0 -0.50180213743E+03 -0.15854628514E+03  0.55769183669E+03  0.76678712455E+03  0.00000000000E+00 0. -1.
<mgrwt>
<rscale>  0 0.19958147E+04</rscale>
<asrwt>0</asrwt>
<pdfrwt beam="1">  1        2 0.11043021E+00 0.19958147E+04</pdfrwt>
<pdfrwt beam="2">  1       -2 0.21343509E+00 0.19958147E+04</pdfrwt>
<totfact> 0.40115303E+00</totfact>
</mgrwt>
</event>
<event>
 6    1  0.9364335E-007  0.5164991E+04  0.7818608E-02  0.7803548E-01
         -2   -1    0    0    0  501 -0.00000000000E+00  0.00000000000E+00  0.17664275710E+04  0.17664275710E+04  0.00000000000E+00 0.  1.
          2   -1    0    0  501    0  0.00000000000E+00 -0.00000000000E+00 -0.37755763256E+04  0.37755763256E+04  0.00000000000E+00 0. -1.
         23    2    1    2    0    0 -0.46950337520E+03  0.25805096195E+03 -0.37147341028E+04  0.37542552850E+04  0.90330350461E+02 0.  0.
         11    1    3    3    0    0 -0.19594254268E+03  0.15376909616E+03 -0.15708970600E+04  0.15905206657E+04  0.00000000000E+00 0.  1.
        -11    1    3    3    0    0 -0.27356083252E+03  0.10428186579E+03 -0.21438370428E+04  0.21637346193E+04  0.00000000000E+00 0. -1.
         22    1    1    2    0    0  0.46950337520E+03 -0.25805096195E+03  0.17055853481E+04  0.17877486116E+04  0.00000000000E+00 0.  1.
<mgrwt>
<rscale>  0 0.51649907E+04</rscale>
<asrwt>0</asrwt>
<pdfrwt beam="1">  1        2 0.58085789E+00 0.51649907E+04</pdfrwt>
<pdfrwt beam="2">  1       -2 0.27175809E+00 0.51649907E+04</pdfrwt>
<totfact> 0.17355212E-02</totfact>
</mgrwt>
</event>
<event>
 6    1  0.9364335E-007  0.1341394E+04  0.7818608E-02  0.8997369E-01
          1   -1    0    0  501    0  0.00000000000E+00  0.00000000000E+00  0.30084370806E+03  0.30084370806E+03  0.00000000000E+00 0. -1.
         -1   -1    0    0    0  501 -0.00000000000E+00 -0.00000000000E+00 -0.14952419433E+04  0.14952419433E+04  0.00000000000E+00 0.  1.
         23    2    1    2    0    0  0.32674261880E+03 -0.28287380452E+03  0.80753650650E+02  0.44968650537E+03  0.94437666195E+02 0.  0.
         11    1    3    3    0    0  0.10198701401E+03 -0.13564686959E+03  0.20839227021E+01  0.16972261780E+03  0.00000000000E+00 0. -1.
        -11    1    3    3    0    0  0.22475560479E+03 -0.14722693492E+03  0.78669727948E+02  0.27996388758E+03  0.00000000000E+00 0.  1.
         22    1    1    2    0    0 -0.32674261880E+03  0.28287380452E+03 -0.12751518859E+04  0.13463991460E+04  0.00000000000E+00 0.  1.
<mgrwt>
<rscale>  0 0.13413935E+04</rscale>
<asrwt>0</asrwt>
<pdfrwt beam="1">  1        1 0.46283647E-01 0.13413935E+04</pdfrwt>
<pdfrwt beam="2">  1       -1 0.23003722E+00 0.13413935E+04</pdfrwt>
<totfact> 0.80763920E+00</totfact>
</mgrwt>
</event>
<event>
 6    1  0.9364335E-007  0.6365004E+03  0.7818608E-02  0.9832445E-01
          1   -1    0    0  501    0  0.00000000000E+00  0.00000000000E+00  0.25106179243E+03  0.25106179243E+03  0.00000000000E+00 0. -1.
         -1   -1    0    0    0  501 -0.00000000000E+00 -0.00000000000E+00 -0.40341932265E+03  0.40341932265E+03  0.00000000000E+00 0.  1.
         23    2    1    2    0    0 -0.36122278502E+02 -0.18506805815E+03 -0.33281065505E+03  0.39348621971E+03  0.92268455271E+02 0.  0.
         13    1    3    3    0    0  0.10972081564E+02 -0.13480122818E+02 -0.94455219712E+02  0.96041078793E+02  0.00000000000E+00 0.  1.
        -13    1    3    3    0    0 -0.47094360066E+02 -0.17158793533E+03 -0.23835543533E+03  0.29744514092E+03  0.00000000000E+00 0. -1.
         22    1    1    2    0    0  0.36122278502E+02  0.18506805815E+03  0.18045312482E+03  0.26099489537E+03  0.00000000000E+00 0. -1.
<mgrwt>
<rscale>  0 0.63650036E+03</rscale>
<asrwt>0</asrwt>
<pdfrwt beam="1">  1        1 0.38624892E-01 0.63650036E+03</pdfrwt>
<pdfrwt beam="2">  1       -1 0.62064510E-01 0.63650036E+03</pdfrwt>
<totfact> 0.29542081E+02</totfact>
</mgrwt>
</event>
<event>
 6    1  0.9364335E-007  0.2154569E+04  0.7818608E-02  0.8537579E-01
          1   -1    0    0  501    0  0.00000000000E+00  0.00000000000E+00  0.10984567157E+04  0.10984567157E+04  0.00000000000E+00 0. -1.
         -1   -1    0    0    0  501 -0.00000000000E+00 -0.00000000000E+00 -0.10565199141E+04  0.10565199141E+04  0.00000000000E+00 0.  1.
         23    2    1    2    0    0  0.43248631004E+03  0.61949355815E+03 -0.74435714402E+03  0.10645295445E+04  0.91317666984E+02 0.  0.
         11    1    3    3    0    0  0.27839085053E+03  0.44714830586E+03 -0.56038635038E+03  0.76907472640E+03  0.00000000000E+00 0.  1.
        -11    1    3    3    0    0  0.15409545951E+03  0.17234525229E+03 -0.18397079364E+03  0.29545481810E+03  0.00000000000E+00 0. -1.
         22    1    1    2    0    0 -0.43248631004E+03 -0.61949355815E+03  0.78629394558E+03  0.10904470853E+04  0.00000000000E+00 0. -1.
<mgrwt>
<rscale>  0 0.21545685E+04</rscale>
<asrwt>0</asrwt>
<pdfrwt beam="1">  1        1 0.16899334E+00 0.21545685E+04</pdfrwt>
<pdfrwt beam="2">  1       -1 0.16254153E+00 0.21545685E+04</pdfrwt>
<totfact> 0.32537828E+00</totfact>
</mgrwt>
</event>
<event>
 6    1  0.9364335E-007  0.3520897E+04  0.7818608E-02  0.8108855E-01
         -3   -1    0    0    0  501 -0.00000000000E+00  0.00000000000E+00  0.96686876597E+03  0.96686876597E+03  0.00000000000E+00 0.  1.
          3   -1    0    0  501    0  0.00000000000E+00 -0.00000000000E+00 -0.32053769909E+04  0.32053769909E+04  0.00000000000E+00 0. -1.
         23    2    1    2    0    0  0.12307577830E+04  0.20727960462E+03 -0.25895190710E+04  0.28757357612E+04  0.80731620256E+02 0.  0.
         11    1    3    3    0    0  0.75812506616E+03  0.16651101738E+03 -0.15882212060E+04  0.17677460604E+04  0.00000000000E+00 0.  1.
        -11    1    3    3    0    0  0.47263271680E+03  0.40768587238E+02 -0.10012978650E+04  0.11079897008E+04  0.00000000000E+00 0. -1.
         22    1    1    2    0    0 -0.12307577830E+04 -0.20727960462E+03  0.35101084607E+03  0.12965099957E+04  0.00000000000E+00 0.  1.
<mgrwt>
<rscale>  0 0.35208970E+04</rscale>
<asrwt>0</asrwt>
<pdfrwt beam="1">  1        3 0.49313492E+00 0.35208970E+04</pdfrwt>
<pdfrwt beam="2">  1       -3 0.14874904E+00 0.35208970E+04</pdfrwt>
<totfact> 0.25912063E-03</totfact>
</mgrwt>
</event>
<event>
 6    1  0.9364335E-007  0.3295447E+04  0.7818608E-02  0.8164055E-01
          2   -1    0    0  501    0  0.00000000000E+00  0.00000000000E+00  0.29703711953E+04  0.29703711953E+04  0.00000000000E+00 0. -1.
         -2   -1    0    0    0  501 -0.00000000000E+00 -0.00000000000E+00 -0.91402479056E+03  0.91402479056E+03  0.00000000000E+00 0.  1.
         23    2    1    2    0    0 -0.85236853313E+02 -0.97999051249E+03  0.25846402810E+04  0.27678203522E+04  0.11321393178E+03 0.  0.
         11    1    3    3    0    0 -0.67541872807E+02 -0.22863844734E+03  0.59793130707E+03  0.64370745853E+03  0.00000000000E+00 0. -1.
        -11    1    3    3    0    0 -0.17694980506E+02 -0.75135206515E+03  0.19867089739E+04  0.21241128937E+04  0.00000000000E+00 0.  1.
         22    1    1    2    0    0  0.85236853313E+02  0.97999051249E+03 -0.52829387631E+03  0.11165756336E+04  0.00000000000E+00 0.  1.
<mgrwt>
<rscale>  0 0.32954471E+04</rscale>
<asrwt>0</asrwt>
<pdfrwt beam="1">  1        2 0.45698018E+00 0.32954471E+04</pdfrwt>
<pdfrwt beam="2">  1       -2 0.14061920E+00 0.32954471E+04</pdfrwt>
<totfact> 0.53867801E-01</totfact>
</mgrwt>
</event>
<event>
 6    1  0.9364335E-007  0.3619329E+04  0.7818608E-02  0.8086078E-01
          1   -1    0    0  501    0  0.00000000000E+00  0.00000000000E+00  0.18674327392E+04  0.18674327392E+04  0.00000000000E+00 0. -1.
         -1   -1    0    0    0  501 -0.00000000000E+00 -0.00000000000E+00 -0.17536835212E+04  0.17536835212E+04  0.00000000000E+00 0.  1.
         23    2    1    2    0    0  0.11490343820E+04  0.18570433953E+03  0.14417575162E+04  0.18552249408E+04  0.91808129217E+02 0.  0.
         13    1    3    3    0    0  0.33611683835E+03  0.28351162694E+02  0.47063420898E+03  0.57902925324E+03  0.00000000000E+00 0.  1.
        -13    1    3    3    0    0  0.81291754364E+03  0.15735317684E+03  0.97112330724E+03  0.12761956875E+04  0.00000000000E+00 0. -1.
         22    1    1    2    0    0 -0.11490343820E+04 -0.18570433953E+03 -0.13280082982E+04  0.17658913196E+04  0.00000000000E+00 0.  1.
<mgrwt>
<rscale>  0 0.36193292E+04</rscale>
<asrwt>0</asrwt>
<pdfrwt beam="1">  1        1 0.28729734E+00 0.36193292E+04</pdfrwt>
<pdfrwt beam="2">  1       -1 0.26979746E+00 0.36193292E+04</pdfrwt>
<totfact> 0.15347311E-01</totfact>
</mgrwt>
</event>
<event>
 6    1  0.9364335E-007  0.1217720E+04  0.7818608E-02  0.9097486E-01
         -1   -1    0    0    0  501 -0.00000000000E+00  0.00000000000E+00  0.20621654892E+03  0.20621654892E+03  0.00000000000E+00 0.  1.
          1   -1    0    0  501    0  0.00000000000E+00 -0.00000000000E+00 -0.17976748104E+04  0.17976748104E+04  0.00000000000E+00 0. -1.
         23    2    1    2    0    0 -0.51347842226E+03  0.27938283594E+03 -0.10629884664E+04  0.12158588832E+04  0.81568897141E+02 0.  0.
         11    1    3    3    0    0 -0.20171846134E+03  0.10014693159E+03 -0.49151426238E+03  0.54065332300E+03  0.00000000000E+00 0. -1.
        -11    1    3    3    0    0 -0.31175996092E+03  0.17923590435E+03 -0.57147420400E+03  0.67520556017E+03  0.00000000000E+00 0.  1.
         22    1    1    2    0    0  0.51347842226E+03 -0.27938283594E+03 -0.52846979512E+03  0.78803247617E+03  0.00000000000E+00 0.  1.
<mgrwt>
<rscale>  0 0.12177197E+04</rscale>
<asrwt>0</asrwt>
<pdfrwt beam="1">  1        1 0.27656537E+00 0.12177197E+04</pdfrwt>
<pdfrwt beam="2">  1       -1 0.31725621E-01 0.12177197E+04</pdfrwt>
<totfact> 0.37391824E+01</totfact>
</mgrwt>
</event>
<event>
 6    1  0.9364335E-007  0.4881871E+04  0.7818608E-02  0.7846993E-01
          1   -1    0    0  501    0  0.00000000000E+00  0.00000000000E+00  0.36065505610E+04  0.36065505610E+04  0.00000000000E+00 0. -1.
         -1   -1    0    0    0  501 -0.00000000000E+00 -0.00000000000E+00 -0.16520401681E+04  0.16520401681E+04  0.00000000000E+00 0.  1.
         23    2    1    2    0    0 -0.59664490147E+03  0.22564382342E+04  0.21093115798E+03  0.23452477710E+04  0.90534585295E+02 0.  0.
         11    1    3    3    0    0 -0.50638982502E+03  0.18278150990E+04  0.14377086569E+03  0.19021063990E+04  0.00000000000E+00 0. -1.
        -11    1    3    3    0    0 -0.90255076453E+02  0.42862313511E+03  0.67160292284E+02  0.44314137207E+03  0.00000000000E+00 0.  1.
         22    1    1    2    0    0  0.59664490147E+03 -0.22564382342E+04  0.17435792349E+04  0.29133429581E+04  0.00000000000E+00 0. -1.
<mgrwt>
<rscale>  0 0.48818711E+04</rscale>
<asrwt>0</asrwt>
<pdfrwt beam="1">  1        1 0.55485393E+00 0.48818711E+04</pdfrwt>
<pdfrwt beam="2">  1       -1 0.25416003E+00 0.48818711E+04</pdfrwt>
<totfact> 0.97929836E-03</totfact>
</mgrwt>
</event>
<event>
 6    1  0.9364335E-007  0.2594649E+04  0.7818608E-02  0.8370021E-01
          1   -1    0    0  501    0  0.00000000000E+00  0.00000000000E+00  0.10629442455E+04  0.10629442455E+04  0.00000000000E+00 0. -1.
         -1   -1    0    0    0  501 -0.00000000000E+00 -0.00000000000E+00 -0.15833858651E+04  0.15833858651E+04  0.00000000000E+00 0.  1.
         23    2    1    2    0    0 -0.96287727539E+03 -0.18030647710E+03 -0.11255455454E+04  0.14948988994E+04  0.90702102993E+02 0.  0.
         11    1    3    3    0    0 -0.56819364616E+03 -0.64053182077E+02 -0.67937761898E+03  0.88797566343E+03  0.00000000000E+00 0. -1.
        -11    1    3    3    0    0 -0.39468362922E+03 -0.11625329502E+03 -0.44616792639E+03  0.60692323594E+03  0.00000000000E+00 0.  1.
         22    1    1    2    0    0  0.96287727539E+03  0.18030647710E+03  0.60510392582E+03  0.11514312112E+04  0.00000000000E+00 0. -1.
<mgrwt>
<rscale>  0 0.25946490E+04</rscale>
<asrwt>0</asrwt>
<pdfrwt beam="1">  1        1 0.16352988E+00 0.25946490E+04</pdfrwt>
<pdfrwt beam="2">  1       -1 0.24359782E+00 0.25946490E+04</pdfrwt>
<totfact> 0.91514461E-01</totfact>
</mgrwt>
</event>
<event>
 6    1  0.9364335E-007  0.4347480E+04  0.7818608E-02  0.7937897E-01
          2   -1    0    0  501    0  0.00000000000E+00  0.00000000000E+00  0.21293574627E+04  0.21293574627E+04  0.00000000000E+00 0. -1.
         -2   -1    0    0    0  501 -0.00000000000E+00 -0.00000000000E+00 -0.22190473171E+04  0.22190473171E+04  0.00000000000E+00 0.  1.
         23    2    1    2    0    0 -0.65768675904E+03  0.20511394025E+04 -0.33000605304E+03  0.21810384987E+04  0.91105523960E+02 0.  0.
         11    1    3    3    0    0 -0.28659062012E+03  0.76016412425E+03 -0.10732302833E+03  0.81945220223E+03  0.00000000000E+00 0. -1.
        -11    1    3    3    0    0 -0.37109613892E+03  0.12909752782E+04 -0.22268302471E+03  0.13615862965E+04  0.00000000000E+00 0.  1.
         22    1    1    2    0    0  0.65768675904E+03 -0.20511394025E+04  0.24031619862E+03  0.21673662812E+04  0.00000000000E+00 0. -1.
<mgrwt>
<rscale>  0 0.43474797E+04</rscale>
<asrwt>0</asrwt>
<pdfrwt beam="1">  1        2 0.32759346E+00 0.43474797E+04</pdfrwt>
<pdfrwt beam="2">  1       -2 0.34139189E+00 0.43474797E+04</pdfrwt>
<totfact> 0.76480459E-02</totfact>
</mgrwt>
</event>
<event>
 6    1  0.9364335E-007  0.2859113E+04  0.7818608E-02  0.8285148E-01
          2   -1    0    0  501    0  0.00000000000E+00  0.00000000000E+00  0.30991540974E+04  0.30991540974E+04  0.00000000000E+00 0. -1.
         -2   -1    0    0    0  501 -0.00000000000E+00 -0.00000000000E+00 -0.65941598858E+03  0.65941598858E+03  0.00000000000E+00 0.  1.
         23    2    1    2    0    0  0.26442839832E+03  0.13441935536E+04  0.69182762869E+03  0.15377662374E+04  0.96544526218E+02 0.  0.
         11    1    3    3    0    0  0.41218141386E+02  0.38935037726E+03  0.22720648465E+03  0.45267586430E+03  0.00000000000E+00 0. -1.
        -11    1    3    3    0    0  0.22321025694E+03  0.95484317635E+03  0.46462114404E+03  0.10850903731E+04  0.00000000000E+00 0.  1.
         22    1    1    2    0    0 -0.26442839832E+03 -0.13441935536E+04  0.17479104801E+04  0.22208038486E+04  0.00000000000E+00 0. -1.
<mgrwt>
<rscale>  0 0.28591130E+04</rscale>
<asrwt>0</asrwt>
<pdfrwt beam="1">  1        2 0.47679293E+00 0.28591130E+04</pdfrwt>
<pdfrwt beam="2">  1       -2 0.10144862E+00 0.28591130E+04</pdfrwt>
<totfact> 0.10409552E+00</totfact>
</mgrwt>
</event>
<event>
 6    1  0.9364335E-007  0.8223603E+03  0.7818608E-02  0.9528204E-01
         -1   -1    0    0    0  501 -0.00000000000E+00  0.00000000000E+00  0.13235945183E+03  0.13235945183E+03  0.00000000000E+00 0.  1.
          1   -1    0    0  501    0  0.00000000000E+00 -0.00000000000E+00 -0.12773481177E+04  0.12773481177E+04  0.00000000000E+00 0. -1.
         23    2    1    2    0    0 -0.20580692858E+03 -0.18611784315E+03 -0.10878753353E+04  0.11264086533E+04  0.91254401581E+02 0.  0.
         11    1    3    3    0    0 -0.16312611505E+03 -0.12803759460E+03 -0.63965294129E+03  0.67242816743E+03  0.00000000000E+00 0. -1.
        -11    1    3    3    0    0 -0.42680813527E+02 -0.58080248544E+02 -0.44822239398E+03  0.45398048590E+03  0.00000000000E+00 0.  1.
         22    1    1    2    0    0  0.20580692858E+03  0.18611784315E+03 -0.57113330599E+02  0.28329891620E+03  0.00000000000E+00 0.  1.
<mgrwt>
<rscale>  0 0.82236025E+03</rscale>
<asrwt>0</asrwt>
<pdfrwt beam="1">  1        1 0.19651510E+00 0.82236025E+03</pdfrwt>
<pdfrwt beam="2">  1       -1 0.20362993E-01 0.82236025E+03</pdfrwt>
<totfact> 0.18838133E+02</totfact>
</mgrwt>
</event>
<event>
 6    1  0.9364335E-007  0.1304216E+04  0.7818608E-02  0.9026229E-01
          2   -1    0    0  501    0  0.00000000000E+00  0.00000000000E+00  0.95450419040E+03  0.95450419040E+03  0.00000000000E+00 0. -1.
         -2   -1    0    0    0  501 -0.00000000000E+00 -0.00000000000E+00 -0.44551365290E+03  0.44551365290E+03  0.00000000000E+00 0.  1.
         23    2    1    2    0    0  0.49264756925E+03  0.32190485077E+03 -0.37940399743E+02  0.59661395325E+03  0.90467534758E+02 0.  0.
         13    1    3    3    0    0  0.40858048752E+03  0.28737773097E+03 -0.59942238826E+02  0.50310739115E+03  0.00000000000E+00 0.  1.
        -13    1    3    3    0    0  0.84067081730E+02  0.34527119805E+02  0.22001839083E+02  0.93506562099E+02  0.00000000000E+00 0. -1.
         22    1    1    2    0    0 -0.49264756925E+03 -0.32190485077E+03  0.54693093724E+03  0.80340389005E+03  0.00000000000E+00 0. -1.
<mgrwt>
<rscale>  0 0.13042157E+04</rscale>
<asrwt>0</asrwt>
<pdfrwt beam="1">  1        2 0.14684680E+00 0.13042157E+04</pdfrwt>
<pdfrwt beam="2">  1       -2 0.68540562E-01 0.13042157E+04</pdfrwt>
<totfact> 0.51442412E+01</totfact>
</mgrwt>
</event>
<event>
 6    1  0.9364335E-007  0.1183900E+04  0.7818608E-02  0.9127066E-01
          3   -1    0    0  501    0  0.00000000000E+00  0.00000000000E+00  0.14051837334E+04  0.14051837334E+04  0.00000000000E+00 0. -1.
         -3   -1    0    0    0  501 -0.00000000000E+00 -0.00000000000E+00 -0.24936595492E+03  0.24936595492E+03  0.00000000000E+00 0.  1.
         23    2    1    2    0    0 -0.21333904410E+03  0.37427282081E+03  0.11417337548E+04  0.12235136667E+04  0.88521374516E+02 0.  0.
         11    1    3    3    0    0 -0.12069014891E+03  0.29177357289E+03  0.81888571087E+03  0.87765126180E+03  0.00000000000E+00 0.  1.
        -11    1    3    3    0    0 -0.92648895183E+02  0.82499247921E+02  0.32284804392E+03  0.34586240494E+03  0.00000000000E+00 0. -1.
         22    1    1    2    0    0  0.21333904410E+03 -0.37427282081E+03  0.14084023650E+02  0.43103602153E+03  0.00000000000E+00 0.  1.
<mgrwt>
<rscale>  0 0.11839003E+04</rscale>
<asrwt>0</asrwt>
<pdfrwt beam="1">  1        3 0.21618211E+00 0.11839003E+04</pdfrwt>
<pdfrwt beam="2">  1       -3 0.38363994E-01 0.11839003E+04</pdfrwt>
<totfact> 0.20492921E+00</totfact>
</mgrwt>
</event>
<event>
 6    1  0.9364335E-007  0.2632909E+04  0.7818608E-02  0.8357108E-01
          2   -1    0    0  501    0  0.00000000000E+00  0.00000000000E+00  0.21062765526E+04  0.21062765526E+04  0.00000000000E+00 0. -1.
         -2   -1    0    0    0  501 -0.00000000000E+00 -0.00000000000E+00 -0.82280383166E+03  0.82280383166E+03  0.00000000000E+00 0.  1.
         23    2    1    2    0    0  0.91417039777E+03  0.83108945347E+03  0.14194660955E+03  0.12469688960E+04  0.91462516499E+02 0.  0.
         11    1    3    3    0    0  0.71539043968E+03  0.59945103971E+03  0.11848142754E+03  0.94083095127E+03  0.00000000000E+00 0.  1.
        -11    1    3    3    0    0  0.19877995809E+03  0.23163841375E+03  0.23465182007E+02  0.30613794477E+03  0.00000000000E+00 0. -1.
         22    1    1    2    0    0 -0.91417039777E+03 -0.83108945347E+03  0.11415261114E+04  0.16821114883E+04  0.00000000000E+00 0. -1.
<mgrwt>
<rscale>  0 0.26329090E+04</rscale>
<asrwt>0</asrwt>
<pdfrwt beam="1">  1        2 0.32404254E+00 0.26329090E+04</pdfrwt>
<pdfrwt beam="2">  1       -2 0.12658521E+00 0.26329090E+04</pdfrwt>
<totfact> 0.23883574E+00</totfact>
</mgrwt>
</event>
<event>
 6    1  0.9364335E-007  0.1558553E+04  0.7818608E-02  0.8846423E-01
         -2   -1    0    0    0  501 -0.00000000000E+00  0.00000000000E+00  0.73006723124E+03  0.73006723124E+03  0.00000000000E+00 0.  1.
          2   -1    0    0  501    0  0.00000000000E+00 -0.00000000000E+00 -0.83180281761E+03  0.83180281761E+03  0.00000000000E+00 0. -1.
         23    2    1    2    0    0 -0.76463580672E+03 -0.70238854122E+01  0.85396009881E+02  0.77463724580E+03  0.89739245629E+02 0.  0.
         11    1    3    3    0    0 -0.42284293429E+03  0.33007556947E+02  0.21862274401E+02  0.42469236505E+03  0.00000000000E+00 0. -1.
        -11    1    3    3    0    0 -0.34179287243E+03 -0.40031442359E+02  0.63533735480E+02  0.34994488075E+03  0.00000000000E+00 0.  1.
         22    1    1    2    0    0  0.76463580672E+03  0.70238854122E+01 -0.18713159625E+03  0.78723280305E+03  0.00000000000E+00 0.  1.
<mgrwt>
<rscale>  0 0.15585531E+04</rscale>
<asrwt>0</asrwt>
<pdfrwt beam="1">  1        2 0.12796966E+00 0.15585531E+04</pdfrwt>
<pdfrwt beam="2">  1       -2 0.11231804E+00 0.15585531E+04</pdfrwt>
<totfact> 0.19640517E+01</totfact>
</mgrwt>
</event>
<event>
 6    1  0.9364335E-007  0.7613225E+03  0.7818608E-02  0.9617753E-01
         -1   -1    0    0    0  501 -0.00000000000E+00  0.00000000000E+00  0.46277333051E+02  0.46277333051E+02  0.00000000000E+00 0.  1.
          1   -1    0    0  501    0  0.00000000000E+00 -0.00000000000E+00 -0.31311867002E+04  0.31311867002E+04  0.00000000000E+00 0. -1.
         23    2    1    2    0    0  0.34525699424E+03  0.14298246424E+03 -0.14257342097E+04  0.14767263756E+04  0.91413207171E+02 0.  0.
         11    1    3    3    0    0  0.13115005016E+03  0.21406493260E+02 -0.38587537640E+03  0.40811564503E+03  0.00000000000E+00 0.  1.
        -11    1    3    3    0    0  0.21410694408E+03  0.12157597098E+03 -0.10398588333E+04  0.10686107305E+04  0.00000000000E+00 0. -1.
         22    1    1    2    0    0 -0.34525699424E+03 -0.14298246424E+03 -0.16591751574E+04  0.17007376576E+04  0.00000000000E+00 0. -1.
<mgrwt>
<rscale>  0 0.76132245E+03</rscale>
<asrwt>0</asrwt>
<pdfrwt beam="1">  1        1 0.48172110E+00 0.76132245E+03</pdfrwt>
<pdfrwt beam="2">  1       -1 0.71195886E-02 0.76132245E+03</pdfrwt>
<totfact> 0.54584944E+01</totfact>
</mgrwt>
</event>
<event>
 6    1  0.9364335E-007  0.2212628E+04  0.7818608E-02  0.8513190E-01
         -1   -1    0    0    0  501 -0.00000000000E+00  0.00000000000E+00  0.80014043703E+03  0.80014043703E+03  0.00000000000E+00 0.  1.
          1   -1    0    0  501    0  0.00000000000E+00 -0.00000000000E+00 -0.15296445197E+04  0.15296445197E+04  0.00000000000E+00 0. -1.
         23    2    1    2    0    0  0.36898310140E+03 -0.70929598151E+03 -0.11675754804E+04  0.14181074545E+04  0.92449617049E+02 0.  0.
         13    1    3    3    0    0  0.27105594767E+03 -0.53129043258E+03 -0.79661201916E+03  0.99515403813E+03  0.00000000000E+00 0.  1.
        -13    1    3    3    0    0  0.97927153730E+02 -0.17800554893E+03 -0.37096346123E+03  0.42295341641E+03  0.00000000000E+00 0. -1.
         22    1    1    2    0    0 -0.36898310140E+03  0.70929598151E+03  0.43807139772E+03  0.91167750219E+03  0.00000000000E+00 0.  1.
<mgrwt>
<rscale>  0 0.22126278E+04</rscale>
<asrwt>0</asrwt>
<pdfrwt beam="1">  1        1 0.23532992E+00 0.22126278E+04</pdfrwt>
<pdfrwt beam="2">  1       -1 0.12309853E+00 0.22126278E+04</pdfrwt>
<totfact> 0.33035031E+00</totfact>
</mgrwt>
</event>
<event>
 6    1  0.9364335E-007  0.1584565E+04  0.7818608E-02  0.8830087E-01
         -2   -1    0    0    0  501 -0.00000000000E+00  0.00000000000E+00  0.31449324253E+03  0.31449324253E+03  0.00000000000E+00 0.  1.
          2   -1    0    0  501    0  0.00000000000E+00 -0.00000000000E+00 -0.19959449996E+04  0.19959449996E+04  0.00000000000E+00 0. -1.
         23    2    1    2    0    0 -0.68961217839E+02 -0.78426446634E+03 -0.92892244701E+03  0.12213437718E+04  0.94642980253E+02 0.  0.
         13    1    3    3    0    0  0.16778288614E+02 -0.69013960346E+02 -0.10686713504E+03  0.12831610282E+03  0.00000000000E+00 0. -1.
        -13    1    3    3    0    0 -0.85739506452E+02 -0.71525050599E+03 -0.82205531197E+03  0.10930276690E+04  0.00000000000E+00 0.  1.
         22    1    1    2    0    0  0.68961217839E+02  0.78426446634E+03 -0.75252931004E+03  0.10890944703E+04  0.00000000000E+00 0. -1.
<mgrwt>
<rscale>  0 0.15845646E+04</rscale>
<asrwt>0</asrwt>
<pdfrwt beam="1">  1        2 0.30706847E+00 0.15845646E+04</pdfrwt>
<pdfrwt beam="2">  1       -2 0.48383574E-01 0.15845646E+04</pdfrwt>
<totfact> 0.26095338E+01</totfact>
</mgrwt>
</event>
<event>
 6    1  0.9364335E-007  0.2168075E+04  0.7818608E-02  0.8531835E-01
          2   -1    0    0  501    0  0.00000000000E+00  0.00000000000E+00  0.15673689304E+04  0.15673689304E+04  0.00000000000E+00 0. -1.
         -2   -1    0    0    0  501 -0.00000000000E+00 -0.00000000000E+00 -0.74975158247E+03  0.74975158247E+03  0.00000000000E+00 0.  1.
         23    2    1    2    0    0 -0.36466910327E+03 -0.52564416675E+02  0.14969465762E+04  0.15443108511E+04  0.91106422019E+02 0.  0.
         13    1    3    3    0    0 -0.10420441960E+03  0.14036683842E+02  0.54900585722E+03  0.55898391821E+03  0.00000000000E+00 0.  1.
        -13    1    3    3    0    0 -0.26046468367E+03 -0.66601100517E+02  0.94794071899E+03  0.98532693292E+03  0.00000000000E+00 0. -1.
         22    1    1    2    0    0  0.36466910327E+03  0.52564416675E+02 -0.67932922831E+03  0.77280966170E+03  0.00000000000E+00 0.  1.
<mgrwt>
<rscale>  0 0.21680750E+04</rscale>
<asrwt>0</asrwt>
<pdfrwt beam="1">  1        2 0.24113368E+00 0.21680750E+04</pdfrwt>
<pdfrwt beam="2">  1       -2 0.11534640E+00 0.21680750E+04</pdfrwt>
<totfact> 0.62403583E+00</totfact>
</mgrwt>
</event>
<event>
 6    1  0.9364335E-007  0.4474139E+03  0.7818608E-02  0.1028496E+00
         -1   -1    0    0    0  501 -0.00000000000E+00  0.00000000000E+00  0.80432027923E+02  0.80432027923E+02  0.00000000000E+00 0.  1.
          1   -1    0    0  501    0  0.00000000000E+00 -0.00000000000E+00 -0.62219986402E+03  0.62219986402E+03  0.00000000000E+00 0. -1.
         23    2    1    2    0    0 -0.21205082704E+03 -0.34710782494E+02 -0.29952583394E+03  0.37882395615E+03  0.87301047451E+02 0.  0.
         13    1    3    3    0    0 -0.88680742943E+02  0.18042708489E+02 -0.16861269882E+03  0.19136367393E+03  0.00000000000E+00 0. -1.
        -13    1    3    3    0    0 -0.12337008410E+03 -0.52753490983E+02 -0.13091313512E+03  0.18746028222E+03  0.00000000000E+00 0.  1.
         22    1    1    2    0    0  0.21205082704E+03  0.34710782494E+02 -0.24224200216E+03  0.32380793579E+03  0.00000000000E+00 0.  1.
<mgrwt>
<rscale>  0 0.44741389E+03</rscale>
<asrwt>0</asrwt>
<pdfrwt beam="1">  1        1 0.95723056E-01 0.44741389E+03</pdfrwt>
<pdfrwt beam="2">  1       -1 0.12374158E-01 0.44741389E+03</pdfrwt>
<totfact> 0.14618635E+03</totfact>
</mgrwt>
</event>
<event>
 6    1  0.9364335E-007  0.1051211E+04  0.7818608E-02  0.9254095E-01
         -1   -1    0    0    0  501 -0.00000000000E+00  0.00000000000E+00  0.39412699596E+03  0.39412699596E+03  0.00000000000E+00 0.  1.
          1   -1    0    0  501    0  0.00000000000E+00 -0.00000000000E+00 -0.70094444464E+03  0.70094444464E+03  0.00000000000E+00 0. -1.
         23    2    1    2    0    0  0.17041268270E+03 -0.41395811133E+03  0.12396801140E+03  0.47380023333E+03  0.93363766475E+02 0.  0.
         13    1    3    3    0    0  0.16010263860E+03 -0.30466049099E+03  0.11808038949E+03  0.36385965432E+03  0.00000000000E+00 0.  1.
        -13    1    3    3    0    0  0.10310044098E+02 -0.10929762034E+03  0.58876219085E+01  0.10994057901E+03  0.00000000000E+00 0. -1.
         22    1    1    2    0    0 -0.17041268270E+03  0.41395811133E+03 -0.43078546008E+03  0.62127120727E+03  0.00000000000E+00 0.  1.
<mgrwt>
<rscale>  0 0.10512110E+04</rscale>
<asrwt>0</asrwt>
<pdfrwt beam="1">  1        1 0.10783761E+00 0.10512110E+04</pdfrwt>
<pdfrwt beam="2">  1       -1 0.60634923E-01 0.10512110E+04</pdfrwt>
<totfact> 0.74970845E+01</totfact>
</mgrwt>
</event>
<event>
 6    1  0.9364335E-007  0.1494111E+04  0.7818608E-02  0.8888378E-01
         -1   -1    0    0    0  501 -0.00000000000E+00  0.00000000000E+00  0.18794619770E+03  0.18794619770E+03  0.00000000000E+00 0.  1.
          1   -1    0    0  501    0  0.00000000000E+00 -0.00000000000E+00 -0.29694248892E+04  0.29694248892E+04  0.00000000000E+00 0. -1.
         23    2    1    2    0    0  0.40466690448E+03  0.18639866500E+03 -0.26559761990E+04  0.26944989215E+04  0.87264552586E+02 0.  0.
         11    1    3    3    0    0  0.14391928136E+03  0.73053211844E+02 -0.72839774361E+03  0.74606487935E+03  0.00000000000E+00 0. -1.
        -11    1    3    3    0    0  0.26074762312E+03  0.11334545316E+03 -0.19275784554E+04  0.19484340421E+04  0.00000000000E+00 0.  1.
         22    1    1    2    0    0 -0.40466690448E+03 -0.18639866500E+03 -0.12550249246E+03  0.46287216541E+03  0.00000000000E+00 0.  1.
<mgrwt>
<rscale>  0 0.14941113E+04</rscale>
<asrwt>0</asrwt>
<pdfrwt beam="1">  1        1 0.45683460E+00 0.14941113E+04</pdfrwt>
<pdfrwt beam="2">  1       -1 0.28914800E-01 0.14941113E+04</pdfrwt>
<totfact> 0.66688120E+00</totfact>
</mgrwt>
</event>
<event>
 6    1  0.9364335E-007  0.5458113E+04  0.7818608E-02  0.7761479E-01
          2   -1    0    0  501    0  0.00000000000E+00  0.00000000000E+00  0.31081063825E+04  0.31081063825E+04  0.00000000000E+00 0. -1.
         -2   -1    0    0    0  501 -0.00000000000E+00 -0.00000000000E+00 -0.23962334163E+04  0.23962334163E+04  0.00000000000E+00 0.  1.
         23    2    1    2    0    0 -0.93700173813E+03  0.13978312331E+04 -0.18096272264E+04  0.24728603523E+04  0.91559870489E+02 0.  0.
         11    1    3    3    0    0 -0.60754900888E+03  0.83994328381E+03 -0.11498672143E+04  0.15481650845E+04  0.00000000000E+00 0. -1.
        -11    1    3    3    0    0 -0.32945272925E+03  0.55788794929E+03 -0.65976001202E+03  0.92469526777E+03  0.00000000000E+00 0.  1.
         22    1    1    2    0    0  0.93700173813E+03 -0.13978312331E+04  0.25215001926E+04  0.30314794465E+04  0.00000000000E+00 0. -1.
<mgrwt>
<rscale>  0 0.54581126E+04</rscale>
<asrwt>0</asrwt>
<pdfrwt beam="1">  1        2 0.47817021E+00 0.54581126E+04</pdfrwt>
<pdfrwt beam="2">  1       -2 0.36865129E+00 0.54581126E+04</pdfrwt>
<totfact> 0.12359811E-02</totfact>
</mgrwt>
</event>
<event>
 6    1  0.9364335E-007  0.2886727E+04  0.7818608E-02  0.8276838E-01
         -2   -1    0    0    0  501 -0.00000000000E+00  0.00000000000E+00  0.10408325235E+04  0.10408325235E+04  0.00000000000E+00 0.  1.
          2   -1    0    0  501    0  0.00000000000E+00 -0.00000000000E+00 -0.20015692922E+04  0.20015692922E+04  0.00000000000E+00 0. -1.
         23    2    1    2    0    0 -0.92689033973E+03 -0.81317976756E+03 -0.12690224423E+04  0.17714072867E+04  0.84135486370E+02 0.  0.
         11    1    3    3    0    0 -0.83821456437E+03 -0.71068246061E+03 -0.11552524030E+04  0.15944533014E+04  0.00000000000E+00 0.  1.
        -11    1    3    3    0    0 -0.88675775361E+02 -0.10249730695E+03 -0.11377003928E+03  0.17695398528E+03  0.00000000000E+00 0. -1.
         22    1    1    2    0    0  0.92689033973E+03  0.81317976756E+03  0.30828567359E+03  0.12709945290E+04  0.00000000000E+00 0. -1.
<mgrwt>
<rscale>  0 0.28867272E+04</rscale>
<asrwt>0</asrwt>
<pdfrwt beam="1">  1        2 0.30793373E+00 0.28867272E+04</pdfrwt>
<pdfrwt beam="2">  1       -2 0.16012808E+00 0.28867272E+04</pdfrwt>
<totfact> 0.14480974E+00</totfact>
</mgrwt>
</event>
<event>
 6    1  0.9364335E-007  0.1038120E+04  0.7818608E-02  0.9267696E-01
         -1   -1    0    0    0  501 -0.00000000000E+00  0.00000000000E+00  0.15784959425E+03  0.15784959425E+03  0.00000000000E+00 0.  1.
          1   -1    0    0  501    0  0.00000000000E+00 -0.00000000000E+00 -0.17068342357E+04  0.17068342357E+04  0.00000000000E+00 0. -1.
         23    2    1    2    0    0 -0.48588971977E+03 -0.14582522239E+03 -0.94051892331E+03  0.10724816175E+04  0.91033837144E+02 0.  0.
         13    1    3    3    0    0 -0.28428139033E+03 -0.54751285142E+02 -0.60340753974E+03  0.66926397716E+03  0.00000000000E+00 0. -1.
        -13    1    3    3    0    0 -0.20160832944E+03 -0.91073937246E+02 -0.33711138357E+03  0.40321764034E+03  0.00000000000E+00 0.  1.
         22    1    1    2    0    0  0.48588971977E+03  0.14582522239E+03 -0.60846571811E+03  0.79220221243E+03  0.00000000000E+00 0.  1.
<mgrwt>
<rscale>  0 0.10381196E+04</rscale>
<asrwt>0</asrwt>
<pdfrwt beam="1">  1        1 0.26258988E+00 0.10381196E+04</pdfrwt>
<pdfrwt beam="2">  1       -1 0.24284553E-01 0.10381196E+04</pdfrwt>
<totfact> 0.69520502E+01</totfact>
</mgrwt>
</event>
<event>
 6    1  0.9364335E-007  0.2145534E+04  0.7818608E-02  0.8541446E-01
          1   -1    0    0  501    0  0.00000000000E+00  0.00000000000E+00  0.37180164838E+03  0.37180164838E+03  0.00000000000E+00 0. -1.
         -1   -1    0    0    0  501 -0.00000000000E+00 -0.00000000000E+00 -0.30952772056E+04  0.30952772056E+04  0.00000000000E+00 0.  1.
         23    2    1    2    0    0  0.69557838693E+03 -0.80289796389E+03 -0.15829051599E+04  0.19084335242E+04  0.89751536273E+02 0.  0.
         13    1    3    3    0    0  0.49872097236E+03 -0.62981698522E+03 -0.12204539201E+04  0.14611296363E+04  0.00000000000E+00 0. -1.
        -13    1    3    3    0    0  0.19685741457E+03 -0.17308097867E+03 -0.36245123978E+03  0.44730388783E+03  0.00000000000E+00 0.  1.
         22    1    1    2    0    0 -0.69557838693E+03  0.80289796389E+03 -0.11405703973E+04  0.15586453298E+04  0.00000000000E+00 0. -1.
<mgrwt>
<rscale>  0 0.21455341E+04</rscale>
<asrwt>0</asrwt>
<pdfrwt beam="1">  1        1 0.57200252E-01 0.21455341E+04</pdfrwt>
<pdfrwt beam="2">  1       -1 0.47619651E+00 0.21455341E+04</pdfrwt>
<totfact> 0.12953377E-01</totfact>
</mgrwt>
</event>
<event>
 6    1  0.9364335E-007  0.2117897E+04  0.7818608E-02  0.8553400E-01
         -2   -1    0    0    0  501 -0.00000000000E+00  0.00000000000E+00  0.92935163853E+03  0.92935163853E+03  0.00000000000E+00 0.  1.
          2   -1    0    0  501    0  0.00000000000E+00 -0.00000000000E+00 -0.12066170590E+04  0.12066170590E+04  0.00000000000E+00 0. -1.
         23    2    1    2    0    0  0.33031107439E+03 -0.46520523924E+03  0.75842492648E+03  0.95352385092E+03  0.92076298237E+02 0.  0.
         11    1    3    3    0    0  0.88503548168E+02 -0.15286621302E+03  0.30242221781E+03  0.35022871805E+03  0.00000000000E+00 0.  1.
        -11    1    3    3    0    0  0.24180752622E+03 -0.31233902622E+03  0.45600270867E+03  0.60329513287E+03  0.00000000000E+00 0. -1.
         22    1    1    2    0    0 -0.33031107439E+03  0.46520523924E+03 -0.10356903469E+04  0.11824448466E+04  0.00000000000E+00 0. -1.
<mgrwt>
<rscale>  0 0.21178966E+04</rscale>
<asrwt>0</asrwt>
<pdfrwt beam="1">  1        2 0.18563339E+00 0.21178966E+04</pdfrwt>
<pdfrwt beam="2">  1       -2 0.14297718E+00 0.21178966E+04</pdfrwt>
<totfact> 0.58724341E+00</totfact>
</mgrwt>
</event>
<event>
 6    1  0.9364335E-007  0.9440204E+03  0.7818608E-02  0.9372167E-01
          3   -1    0    0  501    0  0.00000000000E+00  0.00000000000E+00  0.10854315187E+03  0.10854315187E+03  0.00000000000E+00 0. -1.
         -3   -1    0    0    0  501 -0.00000000000E+00 -0.00000000000E+00 -0.20525813644E+04  0.20525813644E+04  0.00000000000E+00 0.  1.
         23    2    1    2    0    0 -0.46442935473E+03 -0.47405925308E+02 -0.91777768533E+03  0.10336704742E+04  0.90646689165E+02 0.  0.
         11    1    3    3    0    0 -0.32005708803E+03 -0.19765518883E+02 -0.71102444660E+03  0.77998908903E+03  0.00000000000E+00 0.  1.
        -11    1    3    3    0    0 -0.14437226670E+03 -0.27640406425E+02 -0.20675323873E+03  0.25368138518E+03  0.00000000000E+00 0. -1.
         22    1    1    2    0    0  0.46442935473E+03  0.47405925308E+02 -0.10262605272E+04  0.11274540421E+04  0.00000000000E+00 0.  1.
<mgrwt>
<rscale>  0 0.94402045E+03</rscale>
<asrwt>0</asrwt>
<pdfrwt beam="1">  1        3 0.16698947E-01 0.94402045E+03</pdfrwt>
<pdfrwt beam="2">  1       -3 0.31578173E+00 0.94402045E+03</pdfrwt>
<totfact> 0.26317740E+00</totfact>
</mgrwt>
</event>
<event>
 6    1  0.9364335E-007  0.2067376E+04  0.7818608E-02  0.8575752E-01
          2   -1    0    0  501    0  0.00000000000E+00  0.00000000000E+00  0.22788572648E+04  0.22788572648E+04  0.00000000000E+00 0. -1.
         -2   -1    0    0    0  501 -0.00000000000E+00 -0.00000000000E+00 -0.46887993226E+03  0.46887993226E+03  0.00000000000E+00 0.  1.
         23    2    1    2    0    0 -0.65269693769E+03  0.63334792234E+03  0.25941184819E+03  0.95012872900E+03  0.91143905439E+02 0.  0.
         13    1    3    3    0    0 -0.40716167571E+03  0.33379649588E+03  0.15948330827E+03  0.55012331022E+03  0.00000000000E+00 0.  1.
        -13    1    3    3    0    0 -0.24553526199E+03  0.29955142645E+03  0.99928539920E+02  0.40000541879E+03  0.00000000000E+00 0. -1.
         22    1    1    2    0    0  0.65269693769E+03 -0.63334792234E+03  0.15505654844E+04  0.17976084681E+04  0.00000000000E+00 0. -1.
<mgrwt>
<rscale>  0 0.20673756E+04</rscale>
<asrwt>0</asrwt>
<pdfrwt beam="1">  1        2 0.35059342E+00 0.20673756E+04</pdfrwt>
<pdfrwt beam="2">  1       -2 0.72135375E-01 0.20673756E+04</pdfrwt>
<totfact> 0.74947389E+00</totfact>
</mgrwt>
</event>
<event>
 6    1  0.9364335E-007  0.2893020E+04  0.7818608E-02  0.8274957E-01
         -1   -1    0    0    0  501 -0.00000000000E+00  0.00000000000E+00  0.11802917237E+04  0.11802917237E+04  0.00000000000E+00 0.  1.
          1   -1    0    0  501    0  0.00000000000E+00 -0.00000000000E+00 -0.17727748702E+04  0.17727748702E+04  0.00000000000E+00 0. -1.
         23    2    1    2    0    0  0.13371667858E+04  0.50310502838E+02  0.26039654874E+03  0.13662616487E+04  0.91205099439E+02 0.  0.
         11    1    3    3    0    0  0.75136907929E+03  0.57118519636E+02  0.18197705652E+03  0.77519911487E+03  0.00000000000E+00 0. -1.
        -11    1    3    3    0    0  0.58579770655E+03 -0.68080167986E+01  0.78419492220E+02  0.59106253379E+03  0.00000000000E+00 0.  1.
         22    1    1    2    0    0 -0.13371667858E+04 -0.50310502838E+02 -0.85287969520E+03  0.15868049453E+04  0.00000000000E+00 0.  1.
<mgrwt>
<rscale>  0 0.28930202E+04</rscale>
<asrwt>0</asrwt>
<pdfrwt beam="1">  1        1 0.27273459E+00 0.28930202E+04</pdfrwt>
<pdfrwt beam="2">  1       -1 0.18158334E+00 0.28930202E+04</pdfrwt>
<totfact> 0.74032279E-01</totfact>
</mgrwt>
</event>
<event>
 6    1  0.9364335E-007  0.3744388E+04  0.7818608E-02  0.8058195E-01
          2   -1    0    0  501    0  0.00000000000E+00  0.00000000000E+00  0.18352488604E+04  0.18352488604E+04  0.00000000000E+00 0. -1.
         -2   -1    0    0    0  501 -0.00000000000E+00 -0.00000000000E+00 -0.19098830811E+04  0.19098830811E+04  0.00000000000E+00 0.  1.
         23    2    1    2    0    0  0.83817056995E+03 -0.31424358785E+03  0.16060718661E+04  0.18409124459E+04  0.90624817969E+02 0.  0.
         13    1    3    3    0    0  0.68132286624E+03 -0.29171606888E+03  0.13341726662E+04  0.15262096239E+04  0.00000000000E+00 0. -1.
        -13    1    3    3    0    0  0.15684770371E+03 -0.22527518969E+02  0.27189919988E+03  0.31470282198E+03  0.00000000000E+00 0.  1.
         22    1    1    2    0    0 -0.83817056995E+03  0.31424358785E+03 -0.16807060869E+04  0.19042194956E+04  0.00000000000E+00 0.  1.
<mgrwt>
<rscale>  0 0.37443882E+04</rscale>
<asrwt>0</asrwt>
<pdfrwt beam="1">  1        2 0.28234598E+00 0.37443882E+04</pdfrwt>
<pdfrwt beam="2">  1       -2 0.29382817E+00 0.37443882E+04</pdfrwt>
<totfact> 0.23035108E-01</totfact>
</mgrwt>
</event>
<event>
 6    1  0.9364335E-007  0.1576261E+04  0.7818608E-02  0.8835266E-01
         -1   -1    0    0    0  501 -0.00000000000E+00  0.00000000000E+00  0.22223640851E+03  0.22223640851E+03  0.00000000000E+00 0.  1.
          1   -1    0    0  501    0  0.00000000000E+00 -0.00000000000E+00 -0.27949936279E+04  0.27949936279E+04  0.00000000000E+00 0. -1.
         23    2    1    2    0    0 -0.27335721853E+02  0.76492741211E+03 -0.95277146647E+03  0.12255227425E+04  0.90946893944E+02 0.  0.
         13    1    3    3    0    0  0.22302415752E+02  0.42015031384E+03 -0.56184133887E+03  0.70191835283E+03  0.00000000000E+00 0. -1.
        -13    1    3    3    0    0 -0.49638137605E+02  0.34477709827E+03 -0.39093012760E+03  0.52360438965E+03  0.00000000000E+00 0.  1.
         22    1    1    2    0    0  0.27335721853E+02 -0.76492741211E+03 -0.16199857529E+04  0.17917072940E+04  0.00000000000E+00 0. -1.
<mgrwt>
<rscale>  0 0.15762606E+04</rscale>
<asrwt>0</asrwt>
<pdfrwt beam="1">  1        1 0.42999902E+00 0.15762606E+04</pdfrwt>
<pdfrwt beam="2">  1       -1 0.34190217E-01 0.15762606E+04</pdfrwt>
<totfact> 0.65621070E+00</totfact>
</mgrwt>
</event>
<event>
 6    1  0.9364335E-007  0.1244345E+04  0.7818608E-02  0.9074903E-01
          2   -1    0    0  501    0  0.00000000000E+00  0.00000000000E+00  0.15414683372E+04  0.15414683372E+04  0.00000000000E+00 0. -1.
         -2   -1    0    0    0  501 -0.00000000000E+00 -0.00000000000E+00 -0.25112316678E+03  0.25112316678E+03  0.00000000000E+00 0.  1.
         23    2    1    2    0    0  0.38211056035E+03 -0.42216426647E+03  0.99781144006E+03  0.11524297028E+04  0.90749114820E+02 0.  0.
         11    1    3    3    0    0  0.17018919335E+03 -0.25345393641E+03  0.50642742547E+03  0.59133069993E+03  0.00000000000E+00 0. -1.
        -11    1    3    3    0    0  0.21192136700E+03 -0.16871033006E+03  0.49138401460E+03  0.56109900291E+03  0.00000000000E+00 0.  1.
         22    1    1    2    0    0 -0.38211056035E+03  0.42216426647E+03  0.29253373030E+03  0.64016180110E+03  0.00000000000E+00 0.  1.
<mgrwt>
<rscale>  0 0.12443447E+04</rscale>
<asrwt>0</asrwt>
<pdfrwt beam="1">  1        2 0.23714897E+00 0.12443447E+04</pdfrwt>
<pdfrwt beam="2">  1       -2 0.38634334E-01 0.12443447E+04</pdfrwt>
<totfact> 0.74874541E+01</totfact>
</mgrwt>
</event>
<event>
 6    1  0.9364335E-007  0.2235668E+04  0.7818608E-02  0.8503727E-01
         -2   -1    0    0    0  501 -0.00000000000E+00  0.00000000000E+00  0.57631627673E+03  0.57631627673E+03  0.00000000000E+00 0.  1.
          2   -1    0    0  501    0  0.00000000000E+00 -0.00000000000E+00 -0.21681713096E+04  0.21681713096E+04  0.00000000000E+00 0. -1.
         23    2    1    2    0    0  0.75591638171E+03  0.42673913191E+03 -0.16581863397E+04  0.18739040435E+04  0.91752734520E+02 0.  0.
         11    1    3    3    0    0  0.47244783344E+03  0.26503353861E+03 -0.11279081574E+04  0.12512499924E+04  0.00000000000E+00 0.  1.
        -11    1    3    3    0    0  0.28346854828E+03  0.16170559329E+03 -0.53027818223E+03  0.62265405107E+03  0.00000000000E+00 0. -1.
         22    1    1    2    0    0 -0.75591638171E+03 -0.42673913191E+03  0.66331306780E+02  0.87058354286E+03  0.00000000000E+00 0.  1.
<mgrwt>
<rscale>  0 0.22356676E+04</rscale>
<asrwt>0</asrwt>
<pdfrwt beam="1">  1        2 0.33356482E+00 0.22356676E+04</pdfrwt>
<pdfrwt beam="2">  1       -2 0.88664042E-01 0.22356676E+04</pdfrwt>
<totfact> 0.53639291E+00</totfact>
</mgrwt>
</event>
<event>
 6    1  0.9364335E-007  0.2480161E+04  0.7818608E-02  0.8410088E-01
          2   -1    0    0  501    0  0.00000000000E+00  0.00000000000E+00  0.29485342895E+04  0.29485342895E+04  0.00000000000E+00 0. -1.
         -2   -1    0    0    0  501 -0.00000000000E+00 -0.00000000000E+00 -0.52154700303E+03  0.52154700303E+03  0.00000000000E+00 0.  1.
         23    2    1    2    0    0 -0.78368286386E+03  0.88444798000E+03  0.17329476980E+04  0.20996441321E+04  0.94819285262E+02 0.  0.
         13    1    3    3    0    0 -0.14432464834E+03  0.21386237450E+03  0.34342992387E+03  0.42954724066E+03  0.00000000000E+00 0. -1.
        -13    1    3    3    0    0 -0.63935821552E+03  0.67058560550E+03  0.13895177741E+04  0.16700968914E+04  0.00000000000E+00 0.  1.
         22    1    1    2    0    0  0.78368286386E+03 -0.88444798000E+03  0.69403958849E+03  0.13704371605E+04  0.00000000000E+00 0.  1.
<mgrwt>
<rscale>  0 0.24801607E+04</rscale>
<asrwt>0</asrwt>
<pdfrwt beam="1">  1        2 0.45362065E+00 0.24801607E+04</pdfrwt>
<pdfrwt beam="2">  1       -2 0.80238002E-01 0.24801607E+04</pdfrwt>
<totfact> 0.23000854E+00</totfact>
</mgrwt>
</event>
<event>
 6    1  0.9364335E-007  0.8067909E+03  0.7818608E-02  0.9550239E-01
          1   -1    0    0  501    0  0.00000000000E+00  0.00000000000E+00  0.37916790940E+03  0.37916790940E+03  0.00000000000E+00 0. -1.
         -1   -1    0    0    0  501 -0.00000000000E+00 -0.00000000000E+00 -0.42917100831E+03  0.42917100831E+03  0.00000000000E+00 0.  1.
         23    2    1    2    0    0  0.28557504704E+03  0.13397582826E+03  0.21808962361E+03  0.39436266486E+03  0.91957585128E+02 0.  0.
         11    1    3    3    0    0  0.10484942984E+03  0.24010399024E+01  0.75159901115E+02  0.12902782129E+03  0.00000000000E+00 0.  1.
        -11    1    3    3    0    0  0.18072561719E+03  0.13157478836E+03  0.14292972250E+03  0.26533484358E+03  0.00000000000E+00 0. -1.
         22    1    1    2    0    0 -0.28557504704E+03 -0.13397582826E+03 -0.26809272253E+03  0.41397625285E+03  0.00000000000E+00 0.  1.
<mgrwt>
<rscale>  0 0.80679086E+03</rscale>
<asrwt>0</asrwt>
<pdfrwt beam="1">  1        1 0.58333525E-01 0.80679086E+03</pdfrwt>
<pdfrwt beam="2">  1       -1 0.66026309E-01 0.80679086E+03</pdfrwt>
<totfact> 0.15158031E+02</totfact>
</mgrwt>
</event>
<event>
 6    1  0.9364335E-007  0.5002934E+04  0.7818608E-02  0.7828055E-01
          1   -1    0    0  501    0  0.00000000000E+00  0.00000000000E+00  0.14426880762E+04  0.14426880762E+04  0.00000000000E+00 0. -1.
         -1   -1    0    0    0  501 -0.00000000000E+00 -0.00000000000E+00 -0.43372764555E+04  0.43372764555E+04  0.00000000000E+00 0.  1.
         23    2    1    2    0    0  0.86687843917E+03 -0.18213214263E+04  0.25991621290E+03  0.20356903445E+04  0.88254035062E+02 0.  0.
         13    1    3    3    0    0  0.50429986670E+03 -0.11090966742E+04  0.19477348884E+03  0.12338356861E+04  0.00000000000E+00 0.  1.
        -13    1    3    3    0    0  0.36257857247E+03 -0.71222475213E+03  0.65142724064E+02  0.80185465844E+03  0.00000000000E+00 0. -1.
         22    1    1    2    0    0 -0.86687843917E+03  0.18213214263E+04 -0.31545045922E+04  0.37442741871E+04  0.00000000000E+00 0.  1.
<mgrwt>
<rscale>  0 0.50029339E+04</rscale>
<asrwt>0</asrwt>
<pdfrwt beam="1">  1        1 0.22195201E+00 0.50029339E+04</pdfrwt>
<pdfrwt beam="2">  1       -1 0.66727330E+00 0.50029339E+04</pdfrwt>
<totfact> 0.13456072E-03</totfact>
</mgrwt>
</event>
<event>
 6    1  0.9364335E-007  0.1356499E+04  0.7818608E-02  0.8985923E-01
         -1   -1    0    0    0  501 -0.00000000000E+00  0.00000000000E+00  0.64353972869E+03  0.64353972869E+03  0.00000000000E+00 0.  1.
          1   -1    0    0  501    0  0.00000000000E+00 -0.00000000000E+00 -0.71483185874E+03  0.71483185874E+03  0.00000000000E+00 0. -1.
         23    2    1    2    0    0  0.33613428998E+02  0.21725469040E+03  0.60378105080E+03  0.64840450185E+03  0.86875644507E+02 0.  0.
         11    1    3    3    0    0  0.10044882239E+02  0.56700035337E+01  0.11105847738E+03  0.11165587310E+03  0.00000000000E+00 0.  1.
        -11    1    3    3    0    0  0.23568546758E+02  0.21158468687E+03  0.49272257341E+03  0.53674862875E+03  0.00000000000E+00 0. -1.
         22    1    1    2    0    0 -0.33613428998E+02 -0.21725469040E+03 -0.67507318084E+03  0.70996708558E+03  0.00000000000E+00 0. -1.
<mgrwt>
<rscale>  0 0.13564995E+04</rscale>
<asrwt>0</asrwt>
<pdfrwt beam="1">  1        1 0.10997413E+00 0.13564995E+04</pdfrwt>
<pdfrwt beam="2">  1       -1 0.99006112E-01 0.13564995E+04</pdfrwt>
<totfact> 0.25182761E+01</totfact>
</mgrwt>
</event>
<event>
 6    1  0.9364335E-007  0.4468329E+04  0.7818608E-02  0.7916205E-01
          2   -1    0    0  501    0  0.00000000000E+00  0.00000000000E+00  0.20417847378E+04  0.20417847378E+04  0.00000000000E+00 0. -1.
         -2   -1    0    0    0  501 -0.00000000000E+00 -0.00000000000E+00 -0.24446700436E+04  0.24446700436E+04  0.00000000000E+00 0.  1.
         23    2    1    2    0    0 -0.19719780535E+04  0.10117281450E+04 -0.47615596279E+03  0.22688750484E+04  0.93692055649E+02 0.  0.
         11    1    3    3    0    0 -0.45665370909E+03  0.26551837541E+03 -0.84244851169E+02  0.53491103247E+03  0.00000000000E+00 0. -1.
        -11    1    3    3    0    0 -0.15153243444E+04  0.74620976955E+03 -0.39191111163E+03  0.17339640159E+04  0.00000000000E+00 0.  1.
         22    1    1    2    0    0  0.19719780535E+04 -0.10117281450E+04  0.73270656962E+02  0.22175797330E+04  0.00000000000E+00 0. -1.
<mgrwt>
<rscale>  0 0.44683285E+04</rscale>
<asrwt>0</asrwt>
<pdfrwt beam="1">  1        2 0.31412073E+00 0.44683285E+04</pdfrwt>
<pdfrwt beam="2">  1       -2 0.37610308E+00 0.44683285E+04</pdfrwt>
<totfact> 0.51029917E-02</totfact>
</mgrwt>
</event>
<event>
 6    1  0.9364335E-007  0.1136273E+04  0.7818608E-02  0.9170542E-01
         -2   -1    0    0    0  501 -0.00000000000E+00  0.00000000000E+00  0.72428153336E+03  0.72428153336E+03  0.00000000000E+00 0.  1.
          2   -1    0    0  501    0  0.00000000000E+00 -0.00000000000E+00 -0.44565406036E+03  0.44565406036E+03  0.00000000000E+00 0. -1.
         23    2    1    2    0    0 -0.52368615122E+03  0.17045173087E+03  0.12985728878E+02  0.55848934607E+03  0.91873516194E+02 0.  0.
         13    1    3    3    0    0 -0.29061841133E+03  0.10378746055E+03  0.52031069399E+02  0.31295068326E+03  0.00000000000E+00 0.  1.
        -13    1    3    3    0    0 -0.23306773990E+03  0.66664270317E+02 -0.39045340520E+02  0.24553866281E+03  0.00000000000E+00 0. -1.
         22    1    1    2    0    0  0.52368615122E+03 -0.17045173087E+03  0.26564174412E+03  0.61144624765E+03  0.00000000000E+00 0.  1.
<mgrwt>
<rscale>  0 0.11362729E+04</rscale>
<asrwt>0</asrwt>
<pdfrwt beam="1">  1        2 0.68562163E-01 0.11362729E+04</pdfrwt>
<pdfrwt beam="2">  1       -2 0.11142793E+00 0.11362729E+04</pdfrwt>
<totfact> 0.44361149E+01</totfact>
</mgrwt>
</event>
<event>
 6    1  0.9364335E-007  0.2373574E+04  0.7818608E-02  0.8449464E-01
         -2   -1    0    0    0  501 -0.00000000000E+00  0.00000000000E+00  0.89949984367E+03  0.89949984367E+03  0.00000000000E+00 0.  1.
          2   -1    0    0  501    0  0.00000000000E+00 -0.00000000000E+00 -0.15658289733E+04  0.15658289733E+04  0.00000000000E+00 0. -1.
         23    2    1    2    0    0  0.50968986841E+03  0.10095233940E+04 -0.70121758846E+03  0.13338967822E+04  0.93022976722E+02 0.  0.
         13    1    3    3    0    0  0.20384652258E+03  0.50642624866E+03 -0.34246567983E+03  0.64444060391E+03  0.00000000000E+00 0. -1.
        -13    1    3    3    0    0  0.30584334583E+03  0.50309714529E+03 -0.35875190864E+03  0.68945617826E+03  0.00000000000E+00 0.  1.
         22    1    1    2    0    0 -0.50968986841E+03 -0.10095233940E+04  0.34888458791E+02  0.11314320348E+04  0.00000000000E+00 0. -1.
<mgrwt>
<rscale>  0 0.23735736E+04</rscale>
<asrwt>0</asrwt>
<pdfrwt beam="1">  1        2 0.24089676E+00 0.23735736E+04</pdfrwt>
<pdfrwt beam="2">  1       -2 0.13838459E+00 0.23735736E+04</pdfrwt>
<totfact> 0.38884139E+00</totfact>
</mgrwt>
</event>
<event>
 6    1  0.9364335E-007  0.1238253E+04  0.7818608E-02  0.9080018E-01
          1   -1    0    0  501    0  0.00000000000E+00  0.00000000000E+00  0.84556048617E+03  0.84556048617E+03  0.00000000000E+00 0. -1.
         -1   -1    0    0    0  501 -0.00000000000E+00 -0.00000000000E+00 -0.45332939804E+03  0.45332939804E+03  0.00000000000E+00 0.  1.
         23    2    1    2    0    0 -0.28144356420E+02  0.37721513000E+03 -0.31246608460E+03  0.49908899377E+03  0.91495412854E+02 0.  0.
         11    1    3    3    0    0 -0.41332375181E+02  0.26462638534E+03 -0.26311725153E+03  0.37545462723E+03  0.00000000000E+00 0. -1.
        -11    1    3    3    0    0  0.13188018761E+02  0.11258874466E+03 -0.49348833069E+02  0.12363436653E+03  0.00000000000E+00 0.  1.
         22    1    1    2    0    0  0.28144356420E+02 -0.37721513000E+03  0.70469717273E+03  0.79980089045E+03  0.00000000000E+00 0. -1.
<mgrwt>
<rscale>  0 0.12382527E+04</rscale>
<asrwt>0</asrwt>
<pdfrwt beam="1">  1        1 0.13008623E+00 0.12382527E+04</pdfrwt>
<pdfrwt beam="2">  1       -1 0.69742984E-01 0.12382527E+04</pdfrwt>
<totfact> 0.41463022E+01</totfact>
</mgrwt>
</event>
<event>
 6    1  0.9364335E-007  0.2577015E+04  0.7818608E-02  0.8376051E-01
         -2   -1    0    0    0  501 -0.00000000000E+00  0.00000000000E+00  0.11839199959E+04  0.11839199959E+04  0.00000000000E+00 0.  1.
          2   -1    0    0  501    0  0.00000000000E+00 -0.00000000000E+00 -0.14023341003E+04  0.14023341003E+04  0.00000000000E+00 0. -1.
         23    2    1    2    0    0  0.14825431578E+03 -0.11952513341E+04 -0.56478151303E+03  0.13330280688E+04  0.85910308309E+02 0.  0.
         11    1    3    3    0    0  0.11599360337E+03 -0.71242170109E+03 -0.30265945605E+03  0.78268891811E+03  0.00000000000E+00 0.  1.
        -11    1    3    3    0    0  0.32260712417E+02 -0.48282963299E+03 -0.26212205698E+03  0.55033915072E+03  0.00000000000E+00 0. -1.
         22    1    1    2    0    0 -0.14825431578E+03  0.11952513341E+04  0.34636740866E+03  0.12532260273E+04  0.00000000000E+00 0.  1.
<mgrwt>
<rscale>  0 0.25770148E+04</rscale>
<asrwt>0</asrwt>
<pdfrwt beam="1">  1        2 0.21574371E+00 0.25770148E+04</pdfrwt>
<pdfrwt beam="2">  1       -2 0.18214154E+00 0.25770148E+04</pdfrwt>
<totfact> 0.22410545E+00</totfact>
</mgrwt>
</event>
<event>
 6    1  0.9364335E-007  0.1153132E+04  0.7818608E-02  0.9154899E-01
         -1   -1    0    0    0  501 -0.00000000000E+00  0.00000000000E+00  0.18114578257E+03  0.18114578257E+03  0.00000000000E+00 0.  1.
          1   -1    0    0  501    0  0.00000000000E+00 -0.00000000000E+00 -0.18351415661E+04  0.18351415661E+04  0.00000000000E+00 0. -1.
         23    2    1    2    0    0 -0.15487320943E+03 -0.41435485618E+03 -0.14689335470E+04  0.15367837624E+04  0.90900545167E+02 0.  0.
         13    1    3    3    0    0 -0.11897414794E+03 -0.23132827429E+03 -0.74092439145E+03  0.78526210414E+03  0.00000000000E+00 0. -1.
        -13    1    3    3    0    0 -0.35899061480E+02 -0.18302658188E+03 -0.72800915555E+03  0.75152165827E+03  0.00000000000E+00 0.  1.
         22    1    1    2    0    0  0.15487320943E+03  0.41435485618E+03 -0.18506223652E+03  0.47950358624E+03  0.00000000000E+00 0.  1.
<mgrwt>
<rscale>  0 0.11531317E+04</rscale>
<asrwt>0</asrwt>
<pdfrwt beam="1">  1        1 0.28232947E+00 0.11531317E+04</pdfrwt>
<pdfrwt beam="2">  1       -1 0.27868582E-01 0.11531317E+04</pdfrwt>
<totfact> 0.44498502E+01</totfact>
</mgrwt>
</event>
<event>
 6    1  0.9364335E-007  0.3515370E+04  0.7818608E-02  0.8110157E-01
          2   -1    0    0  501    0  0.00000000000E+00  0.00000000000E+00  0.25440188121E+04  0.25440188121E+04  0.00000000000E+00 0. -1.
         -2   -1    0    0    0  501 -0.00000000000E+00 -0.00000000000E+00 -0.12144003426E+04  0.12144003426E+04  0.00000000000E+00 0.  1.
         23    2    1    2    0    0 -0.38193727807E+03 -0.66220957457E+03  0.23560080016E+04  0.24786250007E+04  0.91709246337E+02 0.  0.
         13    1    3    3    0    0 -0.31382777281E+03 -0.46712074025E+03  0.16808595952E+04  0.17725627311E+04  0.00000000000E+00 0. -1.
        -13    1    3    3    0    0 -0.68109505258E+02 -0.19508883432E+03  0.67514840638E+03  0.70606226965E+03  0.00000000000E+00 0.  1.
         22    1    1    2    0    0  0.38193727807E+03  0.66220957457E+03 -0.10263895320E+04  0.12797941539E+04  0.00000000000E+00 0.  1.
<mgrwt>
<rscale>  0 0.35153704E+04</rscale>
<asrwt>0</asrwt>
<pdfrwt beam="1">  1        2 0.39138751E+00 0.35153704E+04</pdfrwt>
<pdfrwt beam="2">  1       -2 0.18683082E+00 0.35153704E+04</pdfrwt>
<totfact> 0.43846505E-01</totfact>
</mgrwt>
</event>
<event>
 6    1  0.9364335E-007  0.3491437E+04  0.7818608E-02  0.8115822E-01
         -1   -1    0    0    0  501 -0.00000000000E+00  0.00000000000E+00  0.85746482794E+03  0.85746482794E+03  0.00000000000E+00 0.  1.
          1   -1    0    0  501    0  0.00000000000E+00 -0.00000000000E+00 -0.35541210258E+04  0.35541210258E+04  0.00000000000E+00 0. -1.
         23    2    1    2    0    0  0.57107582255E+03 -0.73989160799E+03  0.51240304011E+03  0.10691872570E+04  0.83888785624E+02 0.  0.
         11    1    3    3    0    0  0.20934380478E+03 -0.24377639505E+03  0.13537826402E+03  0.34868185176E+03  0.00000000000E+00 0.  1.
        -11    1    3    3    0    0  0.36173201777E+03 -0.49611521294E+03  0.37702477609E+03  0.72050540524E+03  0.00000000000E+00 0. -1.
         22    1    1    2    0    0 -0.57107582255E+03  0.73989160799E+03 -0.32090592379E+04  0.33423985967E+04  0.00000000000E+00 0. -1.
<mgrwt>
<rscale>  0 0.34914374E+04</rscale>
<asrwt>0</asrwt>
<pdfrwt beam="1">  1        1 0.54678785E+00 0.34914374E+04</pdfrwt>
<pdfrwt beam="2">  1       -1 0.13191767E+00 0.34914374E+04</pdfrwt>
<totfact> 0.90167537E-02</totfact>
</mgrwt>
</event>
<event>
 6    1  0.9364335E-007  0.1438746E+04  0.7818608E-02  0.8926240E-01
          1   -1    0    0  501    0  0.00000000000E+00  0.00000000000E+00  0.12876629895E+04  0.12876629895E+04  0.00000000000E+00 0. -1.
         -1   -1    0    0    0  501 -0.00000000000E+00 -0.00000000000E+00 -0.40188877655E+03  0.40188877655E+03  0.00000000000E+00 0.  1.
         23    2    1    2    0    0  0.14892288477E+03 -0.57292210866E+03 -0.31040232552E+02  0.59823765193E+03  0.80666126432E+02 0.  0.
         11    1    3    3    0    0  0.14468969371E+03 -0.41595857798E+03 -0.21688544402E+02  0.44093881550E+03  0.00000000000E+00 0. -1.
        -11    1    3    3    0    0  0.42331910588E+01 -0.15696353068E+03 -0.93516881494E+01  0.15729883643E+03  0.00000000000E+00 0.  1.
         22    1    1    2    0    0 -0.14892288477E+03  0.57292210866E+03  0.91681444549E+03  0.10913141141E+04  0.00000000000E+00 0. -1.
<mgrwt>
<rscale>  0 0.14387457E+04</rscale>
<asrwt>0</asrwt>
<pdfrwt beam="1">  1        1 0.19810200E+00 0.14387457E+04</pdfrwt>
<pdfrwt beam="2">  1       -1 0.61829043E-01 0.14387457E+04</pdfrwt>
<totfact> 0.23809119E+01</totfact>
</mgrwt>
</event>
<event>
 6    1  0.9364335E-007  0.1325191E+04  0.7818608E-02  0.9009824E-01
         -1   -1    0    0    0  501 -0.00000000000E+00  0.00000000000E+00  0.24388915664E+03  0.24388915664E+03  0.00000000000E+00 0.  1.
          1   -1    0    0  501    0  0.00000000000E+00 -0.00000000000E+00 -0.18001324217E+04  0.18001324217E+04  0.00000000000E+00 0. -1.
         23    2    1    2    0    0 -0.31683331153E+03 -0.44870251388E+03 -0.21953914336E+03  0.59885888778E+03  0.93366154164E+02 0.  0.
         13    1    3    3    0    0 -0.25905080942E+03 -0.39179269343E+03 -0.15308469127E+03  0.49400785336E+03  0.00000000000E+00 0.  1.
        -13    1    3    3    0    0 -0.57782502113E+02 -0.56909820451E+02 -0.66454452098E+02  0.10485103441E+03  0.00000000000E+00 0. -1.
         22    1    1    2    0    0  0.31683331153E+03  0.44870251388E+03 -0.13367041217E+04  0.14451626906E+04  0.00000000000E+00 0. -1.
<mgrwt>
<rscale>  0 0.13251910E+04</rscale>
<asrwt>0</asrwt>
<pdfrwt beam="1">  1        1 0.27694345E+00 0.13251910E+04</pdfrwt>
<pdfrwt beam="2">  1       -1 0.37521408E-01 0.13251910E+04</pdfrwt>
<totfact> 0.27351704E+01</totfact>
</mgrwt>
</event>
<event>
 6    1  0.9364335E-007  0.2697099E+04  0.7818608E-02  0.8335947E-01
         -2   -1    0    0    0  501 -0.00000000000E+00  0.00000000000E+00  0.81941623030E+03  0.81941623030E+03  0.00000000000E+00 0.  1.
          2   -1    0    0  501    0  0.00000000000E+00 -0.00000000000E+00 -0.22193677179E+04  0.22193677179E+04  0.00000000000E+00 0. -1.
         23    2    1    2    0    0 -0.11328635555E+04  0.36239871636E+03 -0.14130663564E+04  0.18492947029E+04  0.91769850346E+02 0.  0.
         11    1    3    3    0    0 -0.93650977450E+03  0.30280463467E+03 -0.11129155677E+04  0.14857059821E+04  0.00000000000E+00 0. -1.
        -11    1    3    3    0    0 -0.19635378105E+03  0.59594081693E+02 -0.30015078870E+03  0.36358872076E+03  0.00000000000E+00 0.  1.
         22    1    1    2    0    0  0.11328635555E+04 -0.36239871636E+03  0.13114868726E+02  0.11894892454E+04  0.00000000000E+00 0. -1.
<mgrwt>
<rscale>  0 0.26970991E+04</rscale>
<asrwt>0</asrwt>
<pdfrwt beam="1">  1        2 0.34144119E+00 0.26970991E+04</pdfrwt>
<pdfrwt beam="2">  1       -2 0.12606404E+00 0.26970991E+04</pdfrwt>
<totfact> 0.20738898E+00</totfact>
</mgrwt>
</event>
<event>
 6    1  0.9364335E-007  0.2882254E+03  0.7818608E-02  0.1091279E+00
          2   -1    0    0  501    0  0.00000000000E+00  0.00000000000E+00  0.20513153953E+04  0.20513153953E+04  0.00000000000E+00 0. -1.
         -2   -1    0    0    0  501 -0.00000000000E+00 -0.00000000000E+00 -0.10124467411E+02  0.10124467411E+02  0.00000000000E+00 0.  1.
         23    2    1    2    0    0 -0.36200524349E+02  0.12188086017E+03  0.13852717827E+04  0.13933116213E+04  0.78574422489E+02 0.  0.
         11    1    3    3    0    0  0.14807094188E+02  0.83261664008E+02  0.86379431206E+03  0.86792417197E+03  0.00000000000E+00 0.  1.
        -11    1    3    3    0    0 -0.51007618538E+02  0.38619196163E+02  0.52147747068E+03  0.52538744931E+03  0.00000000000E+00 0. -1.
         22    1    1    2    0    0  0.36200524349E+02 -0.12188086017E+03  0.65591914515E+03  0.66812824145E+03  0.00000000000E+00 0.  1.
<mgrwt>
<rscale>  0 0.28822544E+03</rscale>
<asrwt>0</asrwt>
<pdfrwt beam="1">  1        2 0.31558665E+00 0.28822544E+03</pdfrwt>
<pdfrwt beam="2">  1       -2 0.15576120E-02 0.28822544E+03</pdfrwt>
<totfact> 0.77965472E+03</totfact>
</mgrwt>
</event>
<event>
 6    1  0.9364335E-007  0.5475352E+04  0.7818608E-02  0.7759090E-01
          2   -1    0    0  501    0  0.00000000000E+00  0.00000000000E+00  0.33474973042E+04  0.33474973042E+04  0.00000000000E+00 0. -1.
         -2   -1    0    0    0  501 -0.00000000000E+00 -0.00000000000E+00 -0.22389472307E+04  0.22389472307E+04  0.00000000000E+00 0.  1.
         23    2    1    2    0    0 -0.22265760654E+04  0.56051398802E+03 -0.96531255755E+03  0.24924627770E+04  0.93410144754E+02 0.  0.
         11    1    3    3    0    0 -0.99374952209E+03  0.27175490875E+03 -0.47811277322E+03  0.11357731583E+04  0.00000000000E+00 0. -1.
        -11    1    3    3    0    0 -0.12328265433E+04  0.28875907927E+03 -0.48719978433E+03  0.13566896187E+04  0.00000000000E+00 0.  1.
         22    1    1    2    0    0  0.22265760654E+04 -0.56051398802E+03  0.20738626311E+04  0.30939817579E+04  0.00000000000E+00 0. -1.
<mgrwt>
<rscale>  0 0.54753520E+04</rscale>
<asrwt>0</asrwt>
<pdfrwt beam="1">  1        2 0.51499959E+00 0.54753520E+04</pdfrwt>
<pdfrwt beam="2">  1       -2 0.34445342E+00 0.54753520E+04</pdfrwt>
<totfact> 0.12219387E-02</totfact>
</mgrwt>
</event>
<event>
 6    1  0.9364335E-007  0.3489352E+04  0.7818608E-02  0.8116318E-01
          2   -1    0    0  501    0  0.00000000000E+00  0.00000000000E+00  0.24041249990E+04  0.24041249990E+04  0.00000000000E+00 0. -1.
         -2   -1    0    0    0  501 -0.00000000000E+00 -0.00000000000E+00 -0.12661130917E+04  0.12661130917E+04  0.00000000000E+00 0.  1.
         23    2    1    2    0    0 -0.10447151048E+04 -0.66022585274E+03  0.18629033999E+04  0.22374800850E+04  0.92629512788E+02 0.  0.
         13    1    3    3    0    0 -0.66474358895E+03 -0.39573029084E+03  0.12363163240E+04  0.14584116549E+04  0.00000000000E+00 0.  1.
        -13    1    3    3    0    0 -0.37997151583E+03 -0.26449556190E+03  0.62658707591E+03  0.77906843011E+03  0.00000000000E+00 0. -1.
         22    1    1    2    0    0  0.10447151048E+04  0.66022585274E+03 -0.72489149268E+03  0.14327580057E+04  0.00000000000E+00 0.  1.
<mgrwt>
<rscale>  0 0.34893519E+04</rscale>
<asrwt>0</asrwt>
<pdfrwt beam="1">  1        2 0.36986538E+00 0.34893519E+04</pdfrwt>
<pdfrwt beam="2">  1       -2 0.19478663E+00 0.34893519E+04</pdfrwt>
<totfact> 0.46819228E-01</totfact>
</mgrwt>
</event>
<event>
 6    1  0.9505743E-007  0.4096407E+04  0.7818608E-02  0.7985376E-01
          2   -1    0    0  501    0  0.00000000000E+00  0.00000000000E+00  0.25830236740E+04  0.25830236740E+04  0.00000000000E+00 0. -1.
         -2   -1    0    0    0  501 -0.00000000000E+00 -0.00000000000E+00 -0.16241188414E+04  0.16241188414E+04  0.00000000000E+00 0.  1.
         23    2    1    2    0    0 -0.87688225486E+03  0.18325319988E+04  0.21977378616E+03  0.20453352345E+04  0.89440979515E+02 0.  0.
         13    1    3    3    0    0 -0.32561638467E+03  0.59277762882E+03  0.91737163881E+02  0.68251524118E+03  0.00000000000E+00 0. -1.
        -13    1    3    3    0    0 -0.55126587019E+03  0.12397543700E+04  0.12803662228E+03  0.13628199933E+04  0.00000000000E+00 0.  1.
         22    1    1    2    0    0  0.87688225486E+03 -0.18325319988E+04  0.73913104645E+03  0.21618072808E+04  0.00000000000E+00 0.  1.
<mgrwt>
<rscale>  0 0.40964069E+04</rscale>
<asrwt>0</asrwt>
<pdfrwt beam="1">  1        2 0.39738826E+00 0.40964069E+04</pdfrwt>
<pdfrwt beam="2">  1       -2 0.24986444E+00 0.40964069E+04</pdfrwt>
<totfact> 0.15692995E-01</totfact>
</mgrwt>
</event>
<event>
 6    1  0.9364335E-007  0.1511504E+04  0.7818608E-02  0.8876839E-01
          2   -1    0    0  501    0  0.00000000000E+00  0.00000000000E+00  0.48150721383E+03  0.48150721383E+03  0.00000000000E+00 0. -1.
         -2   -1    0    0    0  501 -0.00000000000E+00 -0.00000000000E+00 -0.11861939890E+04  0.11861939890E+04  0.00000000000E+00 0.  1.
         23    2    1    2    0    0  0.50097651337E+03  0.42883878979E+03  0.47282295218E+02  0.66753238838E+03  0.92107000338E+02 0.  0.
         11    1    3    3    0    0  0.19445807241E+03  0.20064194690E+03 -0.17435679643E+02  0.27995559595E+03  0.00000000000E+00 0.  1.
        -11    1    3    3    0    0  0.30651844096E+03  0.22819684290E+03  0.64717974862E+02  0.38757679243E+03  0.00000000000E+00 0. -1.
         22    1    1    2    0    0 -0.50097651337E+03 -0.42883878979E+03 -0.75196907041E+03  0.10001688145E+04  0.00000000000E+00 0.  1.
<mgrwt>
<rscale>  0 0.15115038E+04</rscale>
<asrwt>0</asrwt>
<pdfrwt beam="1">  1        2 0.74078034E-01 0.15115038E+04</pdfrwt>
<pdfrwt beam="2">  1       -2 0.18249138E+00 0.15115038E+04</pdfrwt>
<totfact> 0.10813209E+01</totfact>
</mgrwt>
</event>
<event>
 6    1  0.9364335E-007  0.1451873E+04  0.7818608E-02  0.8917103E-01
         -1   -1    0    0    0  501 -0.00000000000E+00  0.00000000000E+00  0.30609776269E+03  0.30609776269E+03  0.00000000000E+00 0.  1.
          1   -1    0    0  501    0  0.00000000000E+00 -0.00000000000E+00 -0.17216188731E+04  0.17216188731E+04  0.00000000000E+00 0. -1.
         23    2    1    2    0    0 -0.35434347674E+03 -0.34205295022E+03 -0.14503276469E+04  0.15339849118E+04  0.84260941028E+02 0.  0.
         13    1    3    3    0    0 -0.22621885192E+03 -0.25687744890E+03 -0.91256614716E+03  0.97464761101E+03  0.00000000000E+00 0.  1.
        -13    1    3    3    0    0 -0.12812462482E+03 -0.85175501318E+02 -0.53776149971E+03  0.55933730082E+03  0.00000000000E+00 0. -1.
         22    1    1    2    0    0  0.35434347674E+03  0.34205295022E+03  0.34806536456E+02  0.49373172396E+03  0.00000000000E+00 0.  1.
<mgrwt>
<rscale>  0 0.14518728E+04</rscale>
<asrwt>0</asrwt>
<pdfrwt beam="1">  1        1 0.26486444E+00 0.14518728E+04</pdfrwt>
<pdfrwt beam="2">  1       -1 0.47091963E-01 0.14518728E+04</pdfrwt>
<totfact> 0.20119817E+01</totfact>
</mgrwt>
</event>
<event>
 6    1  0.9364335E-007  0.1423311E+04  0.7818608E-02  0.8937116E-01
          2   -1    0    0  501    0  0.00000000000E+00  0.00000000000E+00  0.11684797148E+04  0.11684797148E+04  0.00000000000E+00 0. -1.
         -2   -1    0    0    0  501 -0.00000000000E+00 -0.00000000000E+00 -0.43342919218E+03  0.43342919218E+03  0.00000000000E+00 0.  1.
         23    2    1    2    0    0 -0.42728426132E+03 -0.51497788986E+03  0.63162324230E+03  0.92480384179E+03  0.92412978269E+02 0.  0.
         11    1    3    3    0    0 -0.12858457365E+03 -0.11152145991E+03  0.20126225411E+03  0.26358589403E+03  0.00000000000E+00 0. -1.
        -11    1    3    3    0    0 -0.29869968767E+03 -0.40345642995E+03  0.43036098820E+03  0.66121794776E+03  0.00000000000E+00 0.  1.
         22    1    1    2    0    0  0.42728426132E+03  0.51497788986E+03  0.10342728033E+03  0.67710506521E+03  0.00000000000E+00 0.  1.
<mgrwt>
<rscale>  0 0.14233105E+04</rscale>
<asrwt>0</asrwt>
<pdfrwt beam="1">  1        2 0.17976611E+00 0.14233105E+04</pdfrwt>
<pdfrwt beam="2">  1       -2 0.66681415E-01 0.14233105E+04</pdfrwt>
<totfact> 0.39723899E+01</totfact>
</mgrwt>
</event>
<event>
 6    1  0.9364335E-007  0.8104867E+03  0.7818608E-02  0.9544961E-01
          2   -1    0    0  501    0  0.00000000000E+00  0.00000000000E+00  0.13154032924E+04  0.13154032924E+04  0.00000000000E+00 0. -1.
         -2   -1    0    0    0  501 -0.00000000000E+00 -0.00000000000E+00 -0.12484549559E+03  0.12484549559E+03  0.00000000000E+00 0.  1.
         23    2    1    2    0    0  0.57376789451E+02 -0.30911560217E+03  0.16300763810E+03  0.36567730124E+03  0.91125446985E+02 0.  0.
         11    1    3    3    0    0  0.73086757081E+02 -0.16145497574E+03  0.70556266378E+02  0.19075526199E+03  0.00000000000E+00 0. -1.
        -11    1    3    3    0    0 -0.15709967631E+02 -0.14766062643E+03  0.92451371725E+02  0.17492203924E+03  0.00000000000E+00 0.  1.
         22    1    1    2    0    0 -0.57376789451E+02  0.30911560217E+03  0.10275501587E+04  0.10745714867E+04  0.00000000000E+00 0. -1.
<mgrwt>
<rscale>  0 0.81048671E+03</rscale>
<asrwt>0</asrwt>
<pdfrwt beam="1">  1        2 0.20236973E+00 0.81048671E+03</pdfrwt>
<pdfrwt beam="2">  1       -2 0.19207000E-01 0.81048671E+03</pdfrwt>
<totfact> 0.37342134E+02</totfact>
</mgrwt>
</event>
<event>
 6    1  0.9364335E-007  0.2855617E+04  0.7818608E-02  0.8286207E-01
         -2   -1    0    0    0  501 -0.00000000000E+00  0.00000000000E+00  0.20397748977E+04  0.20397748977E+04  0.00000000000E+00 0.  1.
          2   -1    0    0  501    0  0.00000000000E+00 -0.00000000000E+00 -0.99944223775E+03  0.99944223775E+03  0.00000000000E+00 0. -1.
         23    2    1    2    0    0  0.10093375673E+03  0.13738574490E+04  0.12736898628E+03  0.13865905645E+04  0.93480594839E+02 0.  0.
         13    1    3    3    0    0  0.53914080201E+02  0.65559002316E+03  0.14294732779E+02  0.65795846822E+03  0.00000000000E+00 0. -1.
        -13    1    3    3    0    0  0.47019676532E+02  0.71826742583E+03  0.11307425350E+03  0.72863209633E+03  0.00000000000E+00 0.  1.
         22    1    1    2    0    0 -0.10093375673E+03 -0.13738574490E+04  0.91296367367E+03  0.16526265709E+04  0.00000000000E+00 0.  1.
<mgrwt>
<rscale>  0 0.28556171E+04</rscale>
<asrwt>0</asrwt>
<pdfrwt beam="1">  1        2 0.15376035E+00 0.28556171E+04</pdfrwt>
<pdfrwt beam="2">  1       -2 0.31381152E+00 0.28556171E+04</pdfrwt>
<totfact> 0.57087382E-01</totfact>
</mgrwt>
</event>
<event>
 6    1  0.9364335E-007  0.2687683E+04  0.7818608E-02  0.8339013E-01
          3   -1    0    0  501    0  0.00000000000E+00  0.00000000000E+00  0.17846933430E+04  0.17846933430E+04  0.00000000000E+00 0. -1.
         -3   -1    0    0    0  501 -0.00000000000E+00 -0.00000000000E+00 -0.10118878442E+04  0.10118878442E+04  0.00000000000E+00 0.  1.
         23    2    1    2    0    0 -0.24977377366E+03  0.56352341488E+03  0.16276227043E+04  0.17427035700E+04  0.88963408819E+02 0.  0.
         13    1    3    3    0    0 -0.21556745450E+03  0.43409355922E+03  0.11852314612E+04  0.12804999657E+04  0.00000000000E+00 0. -1.
        -13    1    3    3    0    0 -0.34206319160E+02  0.12942985565E+03  0.44239124317E+03  0.46220360431E+03  0.00000000000E+00 0.  1.
         22    1    1    2    0    0  0.24977377366E+03 -0.56352341488E+03 -0.85481720550E+03  0.10538776172E+04  0.00000000000E+00 0.  1.
<mgrwt>
<rscale>  0 0.26876826E+04</rscale>
<asrwt>0</asrwt>
<pdfrwt beam="1">  1        3 0.27456821E+00 0.26876826E+04</pdfrwt>
<pdfrwt beam="2">  1       -3 0.15567505E+00 0.26876826E+04</pdfrwt>
<totfact> 0.35820208E-02</totfact>
</mgrwt>
</event>
<event>
 6    1  0.9364335E-007  0.3096082E+04  0.7818608E-02  0.8216814E-01
         -2   -1    0    0    0  501 -0.00000000000E+00  0.00000000000E+00  0.10441908432E+04  0.10441908432E+04  0.00000000000E+00 0.  1.
          2   -1    0    0  501    0  0.00000000000E+00 -0.00000000000E+00 -0.22950120091E+04  0.22950120091E+04  0.00000000000E+00 0. -1.
         23    2    1    2    0    0  0.50409887118E+03  0.10747457754E+04  0.44336799672E+03  0.12705146031E+04  0.91858709898E+02 0.  0.
         13    1    3    3    0    0  0.15090835874E+03  0.25499645545E+03  0.14053953749E+03  0.32794494451E+03  0.00000000000E+00 0. -1.
        -13    1    3    3    0    0  0.35319051244E+03  0.81974931996E+03  0.30282845923E+03  0.94256965863E+03  0.00000000000E+00 0.  1.
         22    1    1    2    0    0 -0.50409887118E+03 -0.10747457754E+04 -0.16941891626E+04  0.20686882492E+04  0.00000000000E+00 0. -1.
<mgrwt>
<rscale>  0 0.30960817E+04</rscale>
<asrwt>0</asrwt>
<pdfrwt beam="1">  1        2 0.35307877E+00 0.30960817E+04</pdfrwt>
<pdfrwt beam="2">  1       -2 0.16064475E+00 0.30960817E+04</pdfrwt>
<totfact> 0.96550381E-01</totfact>
</mgrwt>
</event>
<event>
 6    1  0.9364335E-007  0.3032438E+04  0.7818608E-02  0.8234528E-01
         -1   -1    0    0    0  501 -0.00000000000E+00  0.00000000000E+00  0.23591328603E+04  0.23591328603E+04  0.00000000000E+00 0.  1.
          1   -1    0    0  501    0  0.00000000000E+00 -0.00000000000E+00 -0.97447646271E+03  0.97447646271E+03  0.00000000000E+00 0. -1.
         23    2    1    2    0    0 -0.19770796265E+03 -0.12353022568E+04  0.16320322756E+04  0.20583623159E+04  0.90917383389E+02 0.  0.
         13    1    3    3    0    0 -0.38234950780E+02 -0.32822354515E+03  0.49430754227E+03  0.59458603532E+03  0.00000000000E+00 0. -1.
        -13    1    3    3    0    0 -0.15947301187E+03 -0.90707871165E+03  0.11377247333E+04  0.14637762806E+04  0.00000000000E+00 0.  1.
         22    1    1    2    0    0  0.19770796265E+03  0.12353022568E+04 -0.24737587804E+03  0.12752470071E+04  0.00000000000E+00 0. -1.
<mgrwt>
<rscale>  0 0.30324376E+04</rscale>
<asrwt>0</asrwt>
<pdfrwt beam="1">  1        1 0.14991946E+00 0.30324376E+04</pdfrwt>
<pdfrwt beam="2">  1       -1 0.36294352E+00 0.30324376E+04</pdfrwt>
<totfact> 0.17129171E-01</totfact>
</mgrwt>
</event>
<event>
 6    1  0.9364335E-007  0.6996980E+03  0.7818608E-02  0.9717749E-01
         -1   -1    0    0    0  501 -0.00000000000E+00  0.00000000000E+00  0.32761789440E+03  0.32761789440E+03  0.00000000000E+00 0.  1.
          1   -1    0    0  501    0  0.00000000000E+00 -0.00000000000E+00 -0.37358864871E+03  0.37358864871E+03  0.00000000000E+00 0. -1.
         23    2    1    2    0    0  0.27567101468E+03 -0.76322095968E+02 -0.21467042745E+03  0.36912349569E+03  0.91373913014E+02 0.  0.
         13    1    3    3    0    0  0.23101717009E+03 -0.96605422557E+02 -0.18930633698E+03  0.31390831426E+03  0.00000000000E+00 0.  1.
        -13    1    3    3    0    0  0.44653844586E+02  0.20283326590E+02 -0.25364090471E+02  0.55215181421E+02  0.00000000000E+00 0. -1.
         22    1    1    2    0    0 -0.27567101468E+03  0.76322095968E+02  0.16869967315E+03  0.33208304742E+03  0.00000000000E+00 0.  1.
<mgrwt>
<rscale>  0 0.69969801E+03</rscale>
<asrwt>0</asrwt>
<pdfrwt beam="1">  1        1 0.57475177E-01 0.69969801E+03</pdfrwt>
<pdfrwt beam="2">  1       -1 0.50402753E-01 0.69969801E+03</pdfrwt>
<totfact> 0.26326812E+02</totfact>
</mgrwt>
</event>
<event>
 6    1  0.9364335E-007  0.4280165E+04  0.7818608E-02  0.7950296E-01
         -2   -1    0    0    0  501 -0.00000000000E+00  0.00000000000E+00  0.12593726751E+04  0.12593726751E+04  0.00000000000E+00 0.  1.
          2   -1    0    0  501    0  0.00000000000E+00 -0.00000000000E+00 -0.36366939618E+04  0.36366939618E+04  0.00000000000E+00 0. -1.
         23    2    1    2    0    0  0.14950499788E+04  0.13122067926E+04 -0.20892227280E+04  0.28860761182E+04  0.86733197246E+02 0.  0.
         11    1    3    3    0    0  0.62290262671E+03  0.55273186991E+03 -0.93662265269E+03  0.12533084999E+04  0.00000000000E+00 0. -1.
        -11    1    3    3    0    0  0.87214735213E+03  0.75947492265E+03 -0.11526000753E+04  0.16327676183E+04  0.00000000000E+00 0.  1.
         22    1    1    2    0    0 -0.14950499788E+04 -0.13122067926E+04 -0.28809855867E+03  0.20099905187E+04  0.00000000000E+00 0.  1.
<mgrwt>
<rscale>  0 0.42801650E+04</rscale>
<asrwt>0</asrwt>
<pdfrwt beam="1">  1        2 0.55949137E+00 0.42801650E+04</pdfrwt>
<pdfrwt beam="2">  1       -2 0.19374965E+00 0.42801650E+04</pdfrwt>
<totfact> 0.73112735E-02</totfact>
</mgrwt>
</event>
<event>
 6    1  0.9364335E-007  0.1829838E+04  0.7818608E-02  0.8690591E-01
         -2   -1    0    0    0  501 -0.00000000000E+00  0.00000000000E+00  0.28652429797E+03  0.28652429797E+03  0.00000000000E+00 0.  1.
          2   -1    0    0  501    0  0.00000000000E+00 -0.00000000000E+00 -0.29214863315E+04  0.29214863315E+04  0.00000000000E+00 0. -1.
         23    2    1    2    0    0 -0.19060657234E+03  0.10298745505E+03 -0.28749886023E+04  0.28846686510E+04  0.93896119926E+02 0.  0.
         13    1    3    3    0    0 -0.18639650395E+03  0.11321285192E+03 -0.24931978994E+04  0.25027178371E+04  0.00000000000E+00 0.  1.
        -13    1    3    3    0    0 -0.42100683940E+01 -0.10225396879E+02 -0.38179070288E+03  0.38195081388E+03  0.00000000000E+00 0. -1.
         22    1    1    2    0    0  0.19060657234E+03 -0.10298745505E+03  0.24002656878E+03  0.32334197846E+03  0.00000000000E+00 0.  1.
<mgrwt>
<rscale>  0 0.18298380E+04</rscale>
<asrwt>0</asrwt>
<pdfrwt beam="1">  1        2 0.44945941E+00 0.18298380E+04</pdfrwt>
<pdfrwt beam="2">  1       -2 0.44080663E-01 0.18298380E+04</pdfrwt>
<totfact> 0.89847386E+00</totfact>
</mgrwt>
</event>
<event>
 6    1  0.9364335E-007  0.2107558E+04  0.7818608E-02  0.8557921E-01
         -2   -1    0    0    0  501 -0.00000000000E+00  0.00000000000E+00  0.79724151970E+03  0.79724151970E+03  0.00000000000E+00 0.  1.
          2   -1    0    0  501    0  0.00000000000E+00 -0.00000000000E+00 -0.13928651876E+04  0.13928651876E+04  0.00000000000E+00 0. -1.
         23    2    1    2    0    0 -0.88647894348E+03 -0.55027600599E+02  0.28708191291E+03  0.93789183098E+03  0.91389867197E+02 0.  0.
         11    1    3    3    0    0 -0.76202446807E+03 -0.67937515395E+02  0.22066630609E+03  0.79623515030E+03  0.00000000000E+00 0. -1.
        -11    1    3    3    0    0 -0.12445447542E+03  0.12909914796E+02  0.66415606817E+02  0.14165668068E+03  0.00000000000E+00 0.  1.
         22    1    1    2    0    0  0.88647894348E+03  0.55027600599E+02 -0.88270558076E+03  0.12522148763E+04  0.00000000000E+00 0. -1.
<mgrwt>
<rscale>  0 0.21075578E+04</rscale>
<asrwt>0</asrwt>
<pdfrwt beam="1">  1        2 0.21428695E+00 0.21075578E+04</pdfrwt>
<pdfrwt beam="2">  1       -2 0.12265254E+00 0.21075578E+04</pdfrwt>
<totfact> 0.67657744E+00</totfact>
</mgrwt>
</event>
<event>
 6    1  0.9364335E-007  0.1971757E+04  0.7818608E-02  0.8619940E-01
         -2   -1    0    0    0  501 -0.00000000000E+00  0.00000000000E+00  0.51010832916E+03  0.51010832916E+03  0.00000000000E+00 0.  1.
          2   -1    0    0  501    0  0.00000000000E+00 -0.00000000000E+00 -0.19053913903E+04  0.19053913903E+04  0.00000000000E+00 0. -1.
         23    2    1    2    0    0  0.68023507147E+03 -0.68757122388E+03 -0.47863475020E+03  0.10829390018E+04  0.90508105216E+02 0.  0.
         11    1    3    3    0    0  0.62427244388E+03 -0.60507941726E+03 -0.40550511265E+03  0.95930786600E+03  0.00000000000E+00 0.  1.
        -11    1    3    3    0    0  0.55962627584E+02 -0.82491806613E+02 -0.73129637551E+02  0.12363113577E+03  0.00000000000E+00 0. -1.
         22    1    1    2    0    0 -0.68023507147E+03  0.68757122388E+03 -0.91664831091E+03  0.13325607177E+04  0.00000000000E+00 0.  1.
<mgrwt>
<rscale>  0 0.19717566E+04</rscale>
<asrwt>0</asrwt>
<pdfrwt beam="1">  1        2 0.29313714E+00 0.19717566E+04</pdfrwt>
<pdfrwt beam="2">  1       -2 0.78478204E-01 0.19717566E+04</pdfrwt>
<totfact> 0.10133983E+01</totfact>
</mgrwt>
</event>
<event>
 6    1  0.9364335E-007  0.1275285E+04  0.7818608E-02  0.9049398E-01
          1   -1    0    0  501    0  0.00000000000E+00  0.00000000000E+00  0.61423794892E+03  0.61423794892E+03  0.00000000000E+00 0. -1.
         -1   -1    0    0    0  501 -0.00000000000E+00 -0.00000000000E+00 -0.66193835532E+03  0.66193835532E+03  0.00000000000E+00 0.  1.
         23    2    1    2    0    0 -0.58415607187E+02  0.62007336282E+03  0.96585246531E+02  0.63686283802E+03  0.91445099187E+02 0.  0.
         11    1    3    3    0    0 -0.53818983994E+02  0.18964502687E+03  0.74283095967E+01  0.19727366534E+03  0.00000000000E+00 0.  1.
        -11    1    3    3    0    0 -0.45966231938E+01  0.43042833595E+03  0.89156936934E+02  0.43958917268E+03  0.00000000000E+00 0. -1.
         22    1    1    2    0    0  0.58415607187E+02 -0.62007336282E+03 -0.14428565293E+03  0.63931346621E+03  0.00000000000E+00 0.  1.
<mgrwt>
<rscale>  0 0.12752845E+04</rscale>
<asrwt>0</asrwt>
<pdfrwt beam="1">  1        1 0.94498147E-01 0.12752845E+04</pdfrwt>
<pdfrwt beam="2">  1       -1 0.10183667E+00 0.12752845E+04</pdfrwt>
<totfact> 0.29795815E+01</totfact>
</mgrwt>
</event>
<event>
 6    1  0.9364335E-007  0.1874043E+04  0.7818608E-02  0.8667886E-01
          2   -1    0    0  501    0  0.00000000000E+00  0.00000000000E+00  0.15720812854E+04  0.15720812854E+04  0.00000000000E+00 0. -1.
         -2   -1    0    0    0  501 -0.00000000000E+00 -0.00000000000E+00 -0.55850144193E+03  0.55850144193E+03  0.00000000000E+00 0.  1.
         23    2    1    2    0    0  0.56272025774E+03 -0.19463745985E+03  0.13272936831E+04  0.14575640037E+04  0.90810100605E+02 0.  0.
         11    1    3    3    0    0  0.40153628029E+03 -0.13207981903E+03  0.83706069704E+03  0.93773507640E+03  0.00000000000E+00 0. -1.
        -11    1    3    3    0    0  0.16118397745E+03 -0.62557640818E+02  0.49023298607E+03  0.51982892728E+03  0.00000000000E+00 0.  1.
         22    1    1    2    0    0 -0.56272025774E+03  0.19463745985E+03 -0.31371383961E+03  0.67301872367E+03  0.00000000000E+00 0.  1.
<mgrwt>
<rscale>  0 0.18740434E+04</rscale>
<asrwt>0</asrwt>
<pdfrwt beam="1">  1        2 0.24185866E+00 0.18740434E+04</pdfrwt>
<pdfrwt beam="2">  1       -2 0.85923299E-01 0.18740434E+04</pdfrwt>
<totfact> 0.12755107E+01</totfact>
</mgrwt>
</event>
<event>
 6    1  0.9364335E-007  0.1430444E+04  0.7818608E-02  0.8932072E-01
         -2   -1    0    0    0  501 -0.00000000000E+00  0.00000000000E+00  0.44042554174E+03  0.44042554174E+03  0.00000000000E+00 0.  1.
          2   -1    0    0  501    0  0.00000000000E+00 -0.00000000000E+00 -0.11614731583E+04  0.11614731583E+04  0.00000000000E+00 0. -1.
         23    2    1    2    0    0  0.41431020564E+03  0.22514061136E+02 -0.10103801459E+04  0.10960596525E+04  0.91207966568E+02 0.  0.
         13    1    3    3    0    0  0.30157331956E+03  0.28806357532E+02 -0.82658730216E+03  0.88035381603E+03  0.00000000000E+00 0. -1.
        -13    1    3    3    0    0  0.11273688608E+03 -0.62922963966E+01 -0.18379284371E+03  0.21570583645E+03  0.00000000000E+00 0.  1.
         22    1    1    2    0    0 -0.41431020564E+03 -0.22514061136E+02  0.28933252936E+03  0.50583904752E+03  0.00000000000E+00 0.  1.
<mgrwt>
<rscale>  0 0.14304439E+04</rscale>
<asrwt>0</asrwt>
<pdfrwt beam="1">  1        2 0.17868817E+00 0.14304439E+04</pdfrwt>
<pdfrwt beam="2">  1       -2 0.67757777E-01 0.14304439E+04</pdfrwt>
<totfact> 0.38725245E+01</totfact>
</mgrwt>
</event>
<event>
 6    1  0.9364335E-007  0.2529953E+04  0.7818608E-02  0.8392392E-01
         -1   -1    0    0    0  501 -0.00000000000E+00  0.00000000000E+00  0.86564469438E+03  0.86564469438E+03  0.00000000000E+00 0.  1.
          1   -1    0    0  501    0  0.00000000000E+00 -0.00000000000E+00 -0.18485244735E+04  0.18485244735E+04  0.00000000000E+00 0. -1.
         23    2    1    2    0    0 -0.14668884622E+03  0.51921522122E+03 -0.17175195006E+04  0.18026881840E+04  0.93324112821E+02 0.  0.
         11    1    3    3    0    0 -0.10396924563E+03  0.36207610298E+03 -0.10479567189E+04  0.11136076478E+04  0.00000000000E+00 0. -1.
        -11    1    3    3    0    0 -0.42719600587E+02  0.15713911824E+03 -0.66956278167E+03  0.68908053619E+03  0.00000000000E+00 0.  1.
         22    1    1    2    0    0  0.14668884622E+03 -0.51921522122E+03  0.73463972153E+03  0.91148098389E+03  0.00000000000E+00 0.  1.
<mgrwt>
<rscale>  0 0.25299529E+04</rscale>
<asrwt>0</asrwt>
<pdfrwt beam="1">  1        1 0.28438838E+00 0.25299529E+04</pdfrwt>
<pdfrwt beam="2">  1       -1 0.13317611E+00 0.25299529E+04</pdfrwt>
<totfact> 0.15957981E+00</totfact>
</mgrwt>
</event>
<event>
 6    1  0.9364335E-007  0.2492895E+04  0.7818608E-02  0.8405521E-01
         -2   -1    0    0    0  501 -0.00000000000E+00  0.00000000000E+00  0.19407644282E+04  0.19407644282E+04  0.00000000000E+00 0.  1.
          2   -1    0    0  501    0  0.00000000000E+00 -0.00000000000E+00 -0.80052577506E+03  0.80052577506E+03  0.00000000000E+00 0. -1.
         23    2    1    2    0    0 -0.44580196986E+03  0.94751138071E+03  0.13109618412E+04  0.16803172442E+04  0.91257214788E+02 0.  0.
         13    1    3    3    0    0 -0.21267434361E+03  0.40254222428E+03  0.50601162196E+03  0.68067494468E+03  0.00000000000E+00 0. -1.
        -13    1    3    3    0    0 -0.23312762625E+03  0.54496915643E+03  0.80495021927E+03  0.99964229957E+03  0.00000000000E+00 0.  1.
         22    1    1    2    0    0  0.44580196986E+03 -0.94751138071E+03 -0.17072318805E+03  0.10609729591E+04  0.00000000000E+00 0. -1.
<mgrwt>
<rscale>  0 0.24928955E+04</rscale>
<asrwt>0</asrwt>
<pdfrwt beam="1">  1        2 0.12315781E+00 0.24928955E+04</pdfrwt>
<pdfrwt beam="2">  1       -2 0.29857914E+00 0.24928955E+04</pdfrwt>
<totfact> 0.99608531E-01</totfact>
</mgrwt>
</event>
<event>
 6    1  0.9364335E-007  0.2951547E+04  0.7818608E-02  0.8257704E-01
          2   -1    0    0  501    0  0.00000000000E+00  0.00000000000E+00  0.10883486930E+04  0.10883486930E+04  0.00000000000E+00 0. -1.
         -2   -1    0    0    0  501 -0.00000000000E+00 -0.00000000000E+00 -0.20011113024E+04  0.20011113024E+04  0.00000000000E+00 0.  1.
         23    2    1    2    0    0  0.75786082149E+03  0.11893236490E+04 -0.66921771536E+01  0.14132119842E+04  0.90992087642E+02 0.  0.
         13    1    3    3    0    0  0.37169548561E+03  0.55898107408E+03 -0.46708414877E+02  0.67290344867E+03  0.00000000000E+00 0.  1.
        -13    1    3    3    0    0  0.38616533587E+03  0.63034257497E+03  0.40016237724E+02  0.74030853549E+03  0.00000000000E+00 0. -1.
         22    1    1    2    0    0 -0.75786082149E+03 -0.11893236490E+04 -0.90607043222E+03  0.16762480112E+04  0.00000000000E+00 0.  1.
<mgrwt>
<rscale>  0 0.29515466E+04</rscale>
<asrwt>0</asrwt>
<pdfrwt beam="1">  1        2 0.16743826E+00 0.29515466E+04</pdfrwt>
<pdfrwt beam="2">  1       -2 0.30786327E+00 0.29515466E+04</pdfrwt>
<totfact> 0.54142789E-01</totfact>
</mgrwt>
</event>
<event>
 6    1  0.9364335E-007  0.2516690E+04  0.7818608E-02  0.8397064E-01
         -1   -1    0    0    0  501 -0.00000000000E+00  0.00000000000E+00  0.76637906829E+03  0.76637906829E+03  0.00000000000E+00 0.  1.
          1   -1    0    0  501    0  0.00000000000E+00 -0.00000000000E+00 -0.20661213601E+04  0.20661213601E+04  0.00000000000E+00 0. -1.
         23    2    1    2    0    0  0.17088295516E+03 -0.70259252140E+03 -0.18075248798E+04  0.19489392294E+04  0.91546127430E+02 0.  0.
         11    1    3    3    0    0  0.54635228814E+02 -0.41602072661E+03 -0.10427347404E+04  0.11239902099E+04  0.00000000000E+00 0. -1.
        -11    1    3    3    0    0  0.11624772634E+03 -0.28657179480E+03 -0.76479013941E+03  0.82494901951E+03  0.00000000000E+00 0.  1.
         22    1    1    2    0    0 -0.17088295516E+03  0.70259252140E+03  0.50778258804E+03  0.88356119890E+03  0.00000000000E+00 0.  1.
<mgrwt>
<rscale>  0 0.25166900E+04</rscale>
<asrwt>0</asrwt>
<pdfrwt beam="1">  1        1 0.31786482E+00 0.25166900E+04</pdfrwt>
<pdfrwt beam="2">  1       -1 0.11790447E+00 0.25166900E+04</pdfrwt>
<totfact> 0.15404280E+00</totfact>
</mgrwt>
</event>
<event>
 6    1  0.9364335E-007  0.1779898E+04  0.7818608E-02  0.8717063E-01
         -1   -1    0    0    0  501 -0.00000000000E+00  0.00000000000E+00  0.93550849508E+03  0.93550849508E+03  0.00000000000E+00 0.  1.
          1   -1    0    0  501    0  0.00000000000E+00 -0.00000000000E+00 -0.84660846681E+03  0.84660846681E+03  0.00000000000E+00 0. -1.
         23    2    1    2    0    0 -0.41233375916E+03  0.21869815879E+03  0.80052460504E+03  0.93108373582E+03  0.90715303224E+02 0.  0.
         13    1    3    3    0    0 -0.11392569091E+03  0.17746412821E+02  0.21130532334E+03  0.24071547082E+03  0.00000000000E+00 0. -1.
        -13    1    3    3    0    0 -0.29840806825E+03  0.20095174597E+03  0.58921928169E+03  0.69036826501E+03  0.00000000000E+00 0.  1.
         22    1    1    2    0    0  0.41233375916E+03 -0.21869815879E+03 -0.71162457677E+03  0.85103322607E+03  0.00000000000E+00 0. -1.
<mgrwt>
<rscale>  0 0.17798982E+04</rscale>
<asrwt>0</asrwt>
<pdfrwt beam="1">  1        1 0.13024746E+00 0.17798982E+04</pdfrwt>
<pdfrwt beam="2">  1       -1 0.14392438E+00 0.17798982E+04</pdfrwt>
<totfact> 0.74272448E+00</totfact>
</mgrwt>
</event>
<event>
 6    1  0.9364335E-007  0.2946734E+04  0.7818608E-02  0.8259107E-01
         -2   -1    0    0    0  501 -0.00000000000E+00  0.00000000000E+00  0.13535567894E+04  0.13535567894E+04  0.00000000000E+00 0.  1.
          2   -1    0    0  501    0  0.00000000000E+00 -0.00000000000E+00 -0.16037826393E+04  0.16037826393E+04  0.00000000000E+00 0. -1.
         23    2    1    2    0    0 -0.27313508365E+03  0.14463190580E+04 -0.11346146074E+03  0.14791154640E+04  0.92018810059E+02 0.  0.
         13    1    3    3    0    0 -0.19818689437E+03  0.11856917590E+04 -0.11773111042E+03  0.12078922166E+04  0.00000000000E+00 0. -1.
        -13    1    3    3    0    0 -0.74948189280E+02  0.26062729896E+03  0.42696496811E+01  0.27122324743E+03  0.00000000000E+00 0.  1.
         22    1    1    2    0    0  0.27313508365E+03 -0.14463190580E+04 -0.13676438921E+03  0.14782239646E+04  0.00000000000E+00 0. -1.
<mgrwt>
<rscale>  0 0.29467344E+04</rscale>
<asrwt>0</asrwt>
<pdfrwt beam="1">  1        2 0.24673579E+00 0.29467344E+04</pdfrwt>
<pdfrwt beam="2">  1       -2 0.20823951E+00 0.29467344E+04</pdfrwt>
<totfact> 0.11216143E+00</totfact>
</mgrwt>
</event>
<event>
 6    1  0.9364335E-007  0.3792969E+04  0.7818608E-02  0.8047665E-01
          1   -1    0    0  501    0  0.00000000000E+00  0.00000000000E+00  0.21860677451E+04  0.21860677451E+04  0.00000000000E+00 0. -1.
         -1   -1    0    0    0  501 -0.00000000000E+00 -0.00000000000E+00 -0.16452618750E+04  0.16452618750E+04  0.00000000000E+00 0.  1.
         23    2    1    2    0    0  0.11637143541E+04  0.14814447100E+04  0.48147500856E+03  0.19465405926E+04  0.91063538971E+02 0.  0.
         13    1    3    3    0    0  0.41283065059E+03  0.59639331219E+03  0.19225851356E+03  0.75038487787E+03  0.00000000000E+00 0. -1.
        -13    1    3    3    0    0  0.75088370355E+03  0.88505139780E+03  0.28921649500E+03  0.11961557148E+04  0.00000000000E+00 0.  1.
         22    1    1    2    0    0 -0.11637143541E+04 -0.14814447100E+04  0.59330861473E+02  0.18847890274E+04  0.00000000000E+00 0.  1.
<mgrwt>
<rscale>  0 0.37929692E+04</rscale>
<asrwt>0</asrwt>
<pdfrwt beam="1">  1        1 0.33631811E+00 0.37929692E+04</pdfrwt>
<pdfrwt beam="2">  1       -1 0.25311721E+00 0.37929692E+04</pdfrwt>
<totfact> 0.11794534E-01</totfact>
</mgrwt>
</event>
<event>
 6    1  0.9364335E-007  0.1530559E+04  0.7818608E-02  0.8864382E-01
         -2   -1    0    0    0  501 -0.00000000000E+00  0.00000000000E+00  0.25318437622E+03  0.25318437622E+03  0.00000000000E+00 0.  1.
          2   -1    0    0  501    0  0.00000000000E+00 -0.00000000000E+00 -0.23131483225E+04  0.23131483225E+04  0.00000000000E+00 0. -1.
         23    2    1    2    0    0  0.43422698532E+03 -0.56246734511E+03 -0.56993359926E+03  0.91554106312E+03  0.92024679324E+02 0.  0.
         11    1    3    3    0    0  0.29385857910E+03 -0.39956343211E+03 -0.44787069195E+03  0.66827536054E+03  0.00000000000E+00 0. -1.
        -11    1    3    3    0    0  0.14036840622E+03 -0.16290391300E+03 -0.12206290731E+03  0.24726570259E+03  0.00000000000E+00 0.  1.
         22    1    1    2    0    0 -0.43422698532E+03  0.56246734511E+03 -0.14900303471E+04  0.16507916356E+04  0.00000000000E+00 0. -1.
<mgrwt>
<rscale>  0 0.15305594E+04</rscale>
<asrwt>0</asrwt>
<pdfrwt beam="1">  1        2 0.35586899E+00 0.15305594E+04</pdfrwt>
<pdfrwt beam="2">  1       -2 0.38951441E-01 0.15305594E+04</pdfrwt>
<totfact> 0.26800967E+01</totfact>
</mgrwt>
</event>
<event>
 6    1  0.9364335E-007  0.1662229E+04  0.7818608E-02  0.8783205E-01
          1   -1    0    0  501    0  0.00000000000E+00  0.00000000000E+00  0.67128804646E+03  0.67128804646E+03  0.00000000000E+00 0. -1.
         -1   -1    0    0    0  501 -0.00000000000E+00 -0.00000000000E+00 -0.10289936165E+04  0.10289936165E+04  0.00000000000E+00 0.  1.
         23    2    1    2    0    0 -0.17559583180E+03  0.80328484417E+03 -0.73874951801E+02  0.83041945726E+03  0.89657846646E+02 0.  0.
         13    1    3    3    0    0 -0.77294538136E+02  0.47298241532E+03 -0.66421654252E+01  0.47930254453E+03  0.00000000000E+00 0.  1.
        -13    1    3    3    0    0 -0.98301293668E+02  0.33030242885E+03 -0.67232786376E+02  0.35111691273E+03  0.00000000000E+00 0. -1.
         22    1    1    2    0    0  0.17559583180E+03 -0.80328484417E+03 -0.28383061821E+03  0.86986220567E+03  0.00000000000E+00 0.  1.
<mgrwt>
<rscale>  0 0.16622288E+04</rscale>
<asrwt>0</asrwt>
<pdfrwt beam="1">  1        1 0.10327508E+00 0.16622288E+04</pdfrwt>
<pdfrwt beam="2">  1       -1 0.15830671E+00 0.16622288E+04</pdfrwt>
<totfact> 0.83412489E+00</totfact>
</mgrwt>
</event>
<event>
 6    1  0.9364335E-007  0.1916161E+04  0.7818608E-02  0.8646853E-01
          2   -1    0    0  501    0  0.00000000000E+00  0.00000000000E+00  0.85747819711E+03  0.85747819711E+03  0.00000000000E+00 0. -1.
         -2   -1    0    0    0  501 -0.00000000000E+00 -0.00000000000E+00 -0.10704860245E+04  0.10704860245E+04  0.00000000000E+00 0.  1.
         23    2    1    2    0    0  0.62659117272E+03  0.72210838395E+02 -0.82943669873E+03  0.10460257564E+04  0.91508157895E+02 0.  0.
         13    1    3    3    0    0  0.31770820924E+03  0.32846296608E+02 -0.49471892146E+03  0.58886687517E+03  0.00000000000E+00 0. -1.
        -13    1    3    3    0    0  0.30888296348E+03  0.39364541787E+02 -0.33471777727E+03  0.45715888124E+03  0.00000000000E+00 0.  1.
         22    1    1    2    0    0 -0.62659117272E+03 -0.72210838395E+02  0.61642887136E+03  0.88193846517E+03  0.00000000000E+00 0. -1.
<mgrwt>
<rscale>  0 0.19161612E+04</rscale>
<asrwt>0</asrwt>
<pdfrwt beam="1">  1        2 0.13191972E+00 0.19161612E+04</pdfrwt>
<pdfrwt beam="2">  1       -2 0.16469016E+00 0.19161612E+04</pdfrwt>
<totfact> 0.68237120E+00</totfact>
</mgrwt>
</event>
<event>
 6    1  0.9364335E-007  0.2792217E+04  0.7818608E-02  0.8305689E-01
          2   -1    0    0  501    0  0.00000000000E+00  0.00000000000E+00  0.13547050156E+04  0.13547050156E+04  0.00000000000E+00 0. -1.
         -2   -1    0    0    0  501 -0.00000000000E+00 -0.00000000000E+00 -0.14387776639E+04  0.14387776639E+04  0.00000000000E+00 0.  1.
         23    2    1    2    0    0 -0.27066950380E+03  0.12193049847E+03 -0.14054659834E+04  0.14391528183E+04  0.87733557971E+02 0.  0.
         13    1    3    3    0    0 -0.11314514897E+03  0.74020124908E+02 -0.81592358766E+03  0.82705024305E+03  0.00000000000E+00 0. -1.
        -13    1    3    3    0    0 -0.15752435484E+03  0.47910373565E+02 -0.58954239577E+03  0.61210257528E+03  0.00000000000E+00 0.  1.
         22    1    1    2    0    0  0.27066950380E+03 -0.12193049847E+03  0.13213933351E+04  0.13543298612E+04  0.00000000000E+00 0. -1.
<mgrwt>
<rscale>  0 0.27922173E+04</rscale>
<asrwt>0</asrwt>
<pdfrwt beam="1">  1        2 0.20841616E+00 0.27922173E+04</pdfrwt>
<pdfrwt beam="2">  1       -2 0.22135041E+00 0.27922173E+04</pdfrwt>
<totfact> 0.12965669E+00</totfact>
</mgrwt>
</event>
<event>
 6    1  0.9364335E-007  0.3215365E+04  0.7818608E-02  0.8184771E-01
         -1   -1    0    0    0  501 -0.00000000000E+00  0.00000000000E+00  0.13801858077E+04  0.13801858077E+04  0.00000000000E+00 0.  1.
          1   -1    0    0  501    0  0.00000000000E+00 -0.00000000000E+00 -0.18726771691E+04  0.18726771691E+04  0.00000000000E+00 0. -1.
         23    2    1    2    0    0  0.15899791381E+04  0.17881922216E+03 -0.39122429080E+03  0.16496583755E+04  0.91139105449E+02 0.  0.
         11    1    3    3    0    0  0.13611918802E+04  0.12067876054E+03 -0.33528568717E+03  0.14070618999E+04  0.00000000000E+00 0.  1.
        -11    1    3    3    0    0  0.22878725786E+03  0.58140461620E+02 -0.55938603629E+02  0.24259647568E+03  0.00000000000E+00 0. -1.
         22    1    1    2    0    0 -0.15899791381E+04 -0.17881922216E+03 -0.10126707061E+03  0.16032046012E+04  0.00000000000E+00 0.  1.
<mgrwt>
<rscale>  0 0.32153646E+04</rscale>
<asrwt>0</asrwt>
<pdfrwt beam="1">  1        1 0.28810418E+00 0.32153646E+04</pdfrwt>
<pdfrwt beam="2">  1       -1 0.21233628E+00 0.32153646E+04</pdfrwt>
<totfact> 0.37661194E-01</totfact>
</mgrwt>
</event>
<event>
 6    1  0.9364335E-007  0.1434161E+04  0.7818608E-02  0.8929456E-01
         -1   -1    0    0    0  501 -0.00000000000E+00  0.00000000000E+00  0.26406629322E+03  0.26406629322E+03  0.00000000000E+00 0.  1.
          1   -1    0    0  501    0  0.00000000000E+00 -0.00000000000E+00 -0.19472554467E+04  0.19472554467E+04  0.00000000000E+00 0. -1.
         23    2    1    2    0    0  0.34659870887E+03  0.33966000018E+03 -0.36323624319E+02  0.49444502569E+03  0.87503697251E+02 0.  0.
         13    1    3    3    0    0  0.93586658301E+02  0.66587338796E+02  0.23951131213E+02  0.11732856850E+03  0.00000000000E+00 0. -1.
        -13    1    3    3    0    0  0.25301205057E+03  0.27307266139E+03 -0.60274755532E+02  0.37711645719E+03  0.00000000000E+00 0.  1.
         22    1    1    2    0    0 -0.34659870887E+03 -0.33966000018E+03 -0.16468655291E+04  0.17168767142E+04  0.00000000000E+00 0. -1.
<mgrwt>
<rscale>  0 0.14341611E+04</rscale>
<asrwt>0</asrwt>
<pdfrwt beam="1">  1        1 0.29957776E+00 0.14341611E+04</pdfrwt>
<pdfrwt beam="2">  1       -1 0.40625583E-01 0.14341611E+04</pdfrwt>
<totfact> 0.18641393E+01</totfact>
</mgrwt>
</event>
<event>
 6    1  0.9364335E-007  0.6278835E+03  0.7818608E-02  0.9849188E-01
         -1   -1    0    0    0  501 -0.00000000000E+00  0.00000000000E+00  0.30747443239E+03  0.30747443239E+03  0.00000000000E+00 0.  1.
          1   -1    0    0  501    0  0.00000000000E+00 -0.00000000000E+00 -0.32054514616E+03  0.32054514616E+03  0.00000000000E+00 0. -1.
         23    2    1    2    0    0  0.10118538234E+03 -0.19490520454E+03 -0.22191492476E+03  0.32496442710E+03  0.90161658673E+02 0.  0.
         13    1    3    3    0    0  0.93955520812E+01 -0.96114339101E+02 -0.57782153043E+02  0.11253897009E+03  0.00000000000E+00 0. -1.
        -13    1    3    3    0    0  0.91789830262E+02 -0.98790865439E+02 -0.16413277172E+03  0.21242545701E+03  0.00000000000E+00 0.  1.
         22    1    1    2    0    0 -0.10118538234E+03  0.19490520454E+03  0.20884421099E+03  0.30305515145E+03  0.00000000000E+00 0.  1.
<mgrwt>
<rscale>  0 0.62788355E+03</rscale>
<asrwt>0</asrwt>
<pdfrwt beam="1">  1        1 0.49314638E-01 0.62788355E+03</pdfrwt>
<pdfrwt beam="2">  1       -1 0.47303759E-01 0.62788355E+03</pdfrwt>
<totfact> 0.36323003E+02</totfact>
</mgrwt>
</event>
<event>
 6    1  0.9364335E-007  0.2137524E+04  0.7818608E-02  0.8544892E-01
          2   -1    0    0  501    0  0.00000000000E+00  0.00000000000E+00  0.98168818765E+03  0.98168818765E+03  0.00000000000E+00 0. -1.
         -2   -1    0    0    0  501 -0.00000000000E+00 -0.00000000000E+00 -0.11635585792E+04  0.11635585792E+04  0.00000000000E+00 0.  1.
         23    2    1    2    0    0 -0.49487238760E+03 -0.86878769501E+03 -0.46437636272E+03  0.11062566982E+04  0.92020307704E+02 0.  0.
         11    1    3    3    0    0 -0.18575140816E+03 -0.41380515216E+03 -0.22596445411E+03  0.50675262615E+03  0.00000000000E+00 0. -1.
        -11    1    3    3    0    0 -0.30912097944E+03 -0.45498254285E+03 -0.23841190860E+03  0.59950407204E+03  0.00000000000E+00 0.  1.
         22    1    1    2    0    0  0.49487238760E+03  0.86878769501E+03  0.28250597118E+03  0.10389900686E+04  0.00000000000E+00 0. -1.
<mgrwt>
<rscale>  0 0.21375235E+04</rscale>
<asrwt>0</asrwt>
<pdfrwt beam="1">  1        2 0.15102895E+00 0.21375235E+04</pdfrwt>
<pdfrwt beam="2">  1       -2 0.17900901E+00 0.21375235E+04</pdfrwt>
<totfact> 0.43797892E+00</totfact>
</mgrwt>
</event>
<event>
 6    1  0.9364335E-007  0.4264998E+04  0.7818608E-02  0.7953122E-01
          2   -1    0    0  501    0  0.00000000000E+00  0.00000000000E+00  0.41132459457E+04  0.41132459457E+04  0.00000000000E+00 0. -1.
         -2   -1    0    0    0  501 -0.00000000000E+00 -0.00000000000E+00 -0.11055871522E+04  0.11055871522E+04  0.00000000000E+00 0.  1.
         23    2    1    2    0    0 -0.35361701130E+03  0.14042354067E+04 -0.40941178099E+03  0.15075943048E+04  0.91107152819E+02 0.  0.
         13    1    3    3    0    0 -0.27405429304E+03  0.11251652706E+04 -0.29016584322E+03  0.11938588100E+04  0.00000000000E+00 0.  1.
        -13    1    3    3    0    0 -0.79562718266E+02  0.27907013612E+03 -0.11924593776E+03  0.31373549478E+03  0.00000000000E+00 0. -1.
         22    1    1    2    0    0  0.35361701130E+03 -0.14042354067E+04  0.34170705746E+04  0.37112387931E+04  0.00000000000E+00 0. -1.
<mgrwt>
<rscale>  0 0.42649979E+04</rscale>
<asrwt>0</asrwt>
<pdfrwt beam="1">  1        2 0.63280706E+00 0.42649979E+04</pdfrwt>
<pdfrwt beam="2">  1       -2 0.17009033E+00 0.42649979E+04</pdfrwt>
<totfact> 0.45119860E-02</totfact>
</mgrwt>
</event>
<event>
 6    1  0.9364335E-007  0.1556199E+04  0.7818608E-02  0.8847918E-01
         -2   -1    0    0    0  501 -0.00000000000E+00  0.00000000000E+00  0.14453582077E+04  0.14453582077E+04  0.00000000000E+00 0.  1.
          2   -1    0    0  501    0  0.00000000000E+00 -0.00000000000E+00 -0.41888483344E+03  0.41888483344E+03  0.00000000000E+00 0. -1.
         23    2    1    2    0    0 -0.82254949263E+02  0.60336096666E+03 -0.60079961994E+02  0.61868754848E+03  0.91402122748E+02 0.  0.
         13    1    3    3    0    0 -0.25923922090E+02  0.44772546321E+03 -0.22975725401E+02  0.44906349674E+03  0.00000000000E+00 0. -1.
        -13    1    3    3    0    0 -0.56331027173E+02  0.15563550344E+03 -0.37104236593E+02  0.16962405174E+03  0.00000000000E+00 0.  1.
         22    1    1    2    0    0  0.82254949263E+02 -0.60336096666E+03  0.10865533362E+04  0.12455554926E+04  0.00000000000E+00 0.  1.
<mgrwt>
<rscale>  0 0.15561987E+04</rscale>
<asrwt>0</asrwt>
<pdfrwt beam="1">  1        2 0.64443821E-01 0.15561987E+04</pdfrwt>
<pdfrwt beam="2">  1       -2 0.22236280E+00 0.15561987E+04</pdfrwt>
<totfact> 0.69296281E+00</totfact>
</mgrwt>
</event>
<event>
 6    1  0.9364335E-007  0.3269875E+04  0.7818608E-02  0.8170603E-01
          1   -1    0    0  501    0  0.00000000000E+00  0.00000000000E+00  0.29985450235E+04  0.29985450235E+04  0.00000000000E+00 0. -1.
         -1   -1    0    0    0  501 -0.00000000000E+00 -0.00000000000E+00 -0.89143942142E+03  0.89143942142E+03  0.00000000000E+00 0.  1.
         23    2    1    2    0    0  0.60429325664E+03 -0.84345118417E+02 -0.74855018009E+03  0.96987239479E+03  0.89669677318E+02 0.  0.
         11    1    3    3    0    0  0.16400498123E+03 -0.15937453284E+02 -0.14378878949E+03  0.21869351218E+03  0.00000000000E+00 0. -1.
        -11    1    3    3    0    0  0.44028827541E+03 -0.68407665134E+02 -0.60476139061E+03  0.75117888261E+03  0.00000000000E+00 0.  1.
         22    1    1    2    0    0 -0.60429325664E+03  0.84345118417E+02  0.28556557822E+04  0.29201120501E+04  0.00000000000E+00 0. -1.
<mgrwt>
<rscale>  0 0.32698754E+04</rscale>
<asrwt>0</asrwt>
<pdfrwt beam="1">  1        1 0.46131461E+00 0.32698754E+04</pdfrwt>
<pdfrwt beam="2">  1       -1 0.13714453E+00 0.32698754E+04</pdfrwt>
<totfact> 0.22024738E-01</totfact>
</mgrwt>
</event>
<event>
 6    1  0.9364335E-007  0.1794915E+04  0.7818608E-02  0.8709008E-01
          2   -1    0    0  501    0  0.00000000000E+00  0.00000000000E+00  0.12718216273E+04  0.12718216273E+04  0.00000000000E+00 0. -1.
         -2   -1    0    0    0  501 -0.00000000000E+00 -0.00000000000E+00 -0.63328880626E+03  0.63328880626E+03  0.00000000000E+00 0.  1.
         23    2    1    2    0    0  0.87191304159E+03  0.18767388054E+03  0.23821681140E+03  0.92750788388E+03  0.89831998158E+02 0.  0.
         13    1    3    3    0    0  0.66851081952E+03  0.18063718838E+03  0.17265855218E+03  0.71368584495E+03  0.00000000000E+00 0.  1.
        -13    1    3    3    0    0  0.20340222207E+03  0.70366921581E+01  0.65558259227E+02  0.21382203893E+03  0.00000000000E+00 0. -1.
         22    1    1    2    0    0 -0.87191304159E+03 -0.18767388054E+03  0.40031600961E+03  0.97760254965E+03  0.00000000000E+00 0.  1.
<mgrwt>
<rscale>  0 0.17949155E+04</rscale>
<asrwt>0</asrwt>
<pdfrwt beam="1">  1        2 0.19566486E+00 0.17949155E+04</pdfrwt>
<pdfrwt beam="2">  1       -2 0.97429047E-01 0.17949155E+04</pdfrwt>
<totfact> 0.14248082E+01</totfact>
</mgrwt>
</event>
<event>
 6    1  0.9364335E-007  0.4328332E+04  0.7818608E-02  0.7941400E-01
          2   -1    0    0  501    0  0.00000000000E+00  0.00000000000E+00  0.23793936907E+04  0.23793936907E+04  0.00000000000E+00 0. -1.
         -2   -1    0    0    0  501 -0.00000000000E+00 -0.00000000000E+00 -0.19684064075E+04  0.19684064075E+04  0.00000000000E+00 0.  1.
         23    2    1    2    0    0  0.16905431535E+04 -0.12214845625E+04 -0.37131995535E+03  0.21202531726E+04  0.87374574800E+02 0.  0.
         13    1    3    3    0    0  0.32213173639E+03 -0.21723212032E+03 -0.37224144102E+02  0.39031306229E+03  0.00000000000E+00 0.  1.
        -13    1    3    3    0    0  0.13684114171E+04 -0.10042524422E+04 -0.33409581125E+03  0.17299401103E+04  0.00000000000E+00 0. -1.
         22    1    1    2    0    0 -0.16905431535E+04  0.12214845625E+04  0.78230723853E+03  0.22275469256E+04  0.00000000000E+00 0. -1.
<mgrwt>
<rscale>  0 0.43283317E+04</rscale>
<asrwt>0</asrwt>
<pdfrwt beam="1">  1        2 0.36606057E+00 0.43283317E+04</pdfrwt>
<pdfrwt beam="2">  1       -2 0.30283176E+00 0.43283317E+04</pdfrwt>
<totfact> 0.95847183E-02</totfact>
</mgrwt>
</event>
<event>
 6    1  0.9364335E-007  0.2218893E+04  0.7818608E-02  0.8510605E-01
          2   -1    0    0  501    0  0.00000000000E+00  0.00000000000E+00  0.26349144423E+04  0.26349144423E+04  0.00000000000E+00 0. -1.
         -2   -1    0    0    0  501 -0.00000000000E+00 -0.00000000000E+00 -0.46713915384E+03  0.46713915384E+03  0.00000000000E+00 0.  1.
         23    2    1    2    0    0 -0.59650593211E+03  0.83833789777E+03  0.51136796631E+03  0.11521010391E+04  0.84910832148E+02 0.  0.
         13    1    3    3    0    0 -0.29445935310E+03  0.45998452311E+03  0.23433837378E+03  0.59431182518E+03  0.00000000000E+00 0.  1.
        -13    1    3    3    0    0 -0.30204657901E+03  0.37835337467E+03  0.27702959253E+03  0.55778921391E+03  0.00000000000E+00 0. -1.
         22    1    1    2    0    0  0.59650593211E+03 -0.83833789777E+03  0.16564073221E+04  0.19499525570E+04  0.00000000000E+00 0. -1.
<mgrwt>
<rscale>  0 0.22188932E+04</rscale>
<asrwt>0</asrwt>
<pdfrwt beam="1">  1        2 0.40537144E+00 0.22188932E+04</pdfrwt>
<pdfrwt beam="2">  1       -2 0.71867564E-01 0.22188932E+04</pdfrwt>
<totfact> 0.46489571E+00</totfact>
</mgrwt>
</event>
<event>
 6    1  0.9364335E-007  0.2320223E+04  0.7818608E-02  0.8469990E-01
          4   -1    0    0  501    0  0.00000000000E+00  0.00000000000E+00  0.11042239979E+04  0.11042239979E+04  0.00000000000E+00 0. -1.
         -4   -1    0    0    0  501 -0.00000000000E+00 -0.00000000000E+00 -0.12188274506E+04  0.12188274506E+04  0.00000000000E+00 0.  1.
         23    2    1    2    0    0  0.17533727187E+03 -0.60999121740E+03 -0.10275579278E+04  0.12111529290E+04  0.90463684545E+02 0.  0.
         11    1    3    3    0    0  0.18321146845E+03 -0.58573114202E+03 -0.96533390998E+03  0.11439042664E+04  0.00000000000E+00 0. -1.
        -11    1    3    3    0    0 -0.78741965783E+01 -0.24260075378E+02 -0.62224017802E+02  0.67248662593E+02  0.00000000000E+00 0.  1.
         22    1    1    2    0    0 -0.17533727187E+03  0.60999121740E+03  0.91295447511E+03  0.11118985196E+04  0.00000000000E+00 0. -1.
<mgrwt>
<rscale>  0 0.23202229E+04</rscale>
<asrwt>0</asrwt>
<pdfrwt beam="1">  1        4 0.16988062E+00 0.23202229E+04</pdfrwt>
<pdfrwt beam="2">  1       -4 0.18751191E+00 0.23202229E+04</pdfrwt>
<totfact> 0.61136394E-02</totfact>
</mgrwt>
</event>
<event>
 6    1  0.9364335E-007  0.4221934E+04  0.7818608E-02  0.7961213E-01
          1   -1    0    0  501    0  0.00000000000E+00  0.00000000000E+00  0.26182823240E+04  0.26182823240E+04  0.00000000000E+00 0. -1.
         -1   -1    0    0    0  501 -0.00000000000E+00 -0.00000000000E+00 -0.17019485258E+04  0.17019485258E+04  0.00000000000E+00 0.  1.
         23    2    1    2    0    0  0.63266481772E+03 -0.15679030323E+04 -0.83330999879E+03  0.18871591069E+04  0.91538245117E+02 0.  0.
         13    1    3    3    0    0  0.20332399709E+03 -0.61529174407E+03 -0.33633690146E+03  0.73010073921E+03  0.00000000000E+00 0. -1.
        -13    1    3    3    0    0  0.42934082062E+03 -0.95261128821E+03 -0.49697309734E+03  0.11570583677E+04  0.00000000000E+00 0.  1.
         22    1    1    2    0    0 -0.63266481772E+03  0.15679030323E+04  0.17496437970E+04  0.24330717430E+04  0.00000000000E+00 0.  1.
<mgrwt>
<rscale>  0 0.42219340E+04</rscale>
<asrwt>0</asrwt>
<pdfrwt beam="1">  1        1 0.40281266E+00 0.42219340E+04</pdfrwt>
<pdfrwt beam="2">  1       -1 0.26183824E+00 0.42219340E+04</pdfrwt>
<totfact> 0.50264635E-02</totfact>
</mgrwt>
</event>
<event>
 6    1  0.9364335E-007  0.1242802E+04  0.7818608E-02  0.9076195E-01
          2   -1    0    0  501    0  0.00000000000E+00  0.00000000000E+00  0.93118020562E+03  0.93118020562E+03  0.00000000000E+00 0. -1.
         -2   -1    0    0    0  501 -0.00000000000E+00 -0.00000000000E+00 -0.41467721572E+03  0.41467721572E+03  0.00000000000E+00 0.  1.
         23    2    1    2    0    0 -0.56494120460E+03  0.10817459640E+03  0.50374495279E+03  0.77051137289E+03  0.95228621358E+02 0.  0.
         13    1    3    3    0    0 -0.40266420636E+03  0.55522936202E+02  0.40295519784E+03  0.57235841131E+03  0.00000000000E+00 0. -1.
        -13    1    3    3    0    0 -0.16227699824E+03  0.52651660202E+02  0.10078975495E+03  0.19815296158E+03  0.00000000000E+00 0.  1.
         22    1    1    2    0    0  0.56494120460E+03 -0.10817459640E+03  0.12758037113E+02  0.57534604846E+03  0.00000000000E+00 0.  1.
<mgrwt>
<rscale>  0 0.12428020E+04</rscale>
<asrwt>0</asrwt>
<pdfrwt beam="1">  1        2 0.14325849E+00 0.12428020E+04</pdfrwt>
<pdfrwt beam="2">  1       -2 0.63796495E-01 0.12428020E+04</pdfrwt>
<totfact> 0.62495907E+01</totfact>
</mgrwt>
</event>
<event>
 6    1  0.9364335E-007  0.1856829E+04  0.7818608E-02  0.8676649E-01
          2   -1    0    0  501    0  0.00000000000E+00  0.00000000000E+00  0.31805705803E+04  0.31805705803E+04  0.00000000000E+00 0. -1.
         -2   -1    0    0    0  501 -0.00000000000E+00 -0.00000000000E+00 -0.27100602109E+03  0.27100602109E+03  0.00000000000E+00 0.  1.
         23    2    1    2    0    0 -0.47744419856E+03 -0.27843769059E+03  0.28396925296E+04  0.28944746262E+04  0.93001014335E+02 0.  0.
         13    1    3    3    0    0 -0.24286544012E+03 -0.89745182671E+02  0.13744219688E+04  0.13985969999E+04  0.00000000000E+00 0. -1.
        -13    1    3    3    0    0 -0.23457875845E+03 -0.18869250792E+03  0.14652705608E+04  0.14958776262E+04  0.00000000000E+00 0.  1.
         22    1    1    2    0    0  0.47744419856E+03  0.27843769059E+03  0.69872029631E+02  0.55710197523E+03  0.00000000000E+00 0.  1.
<mgrwt>
<rscale>  0 0.18568293E+04</rscale>
<asrwt>0</asrwt>
<pdfrwt beam="1">  1        2 0.48931852E+00 0.18568293E+04</pdfrwt>
<pdfrwt beam="2">  1       -2 0.41693236E-01 0.18568293E+04</pdfrwt>
<totfact> 0.68712546E+00</totfact>
</mgrwt>
</event>
<event>
 6    1  0.9364335E-007  0.2778214E+04  0.7818608E-02  0.8310064E-01
         -2   -1    0    0    0  501 -0.00000000000E+00  0.00000000000E+00  0.73801126502E+03  0.73801126502E+03  0.00000000000E+00 0.  1.
          2   -1    0    0  501    0  0.00000000000E+00 -0.00000000000E+00 -0.26146197189E+04  0.26146197189E+04  0.00000000000E+00 0. -1.
         23    2    1    2    0    0  0.13760486716E+04  0.11020626985E+03 -0.76982585665E+03  0.15832742968E+04  0.92034128961E+02 0.  0.
         13    1    3    3    0    0  0.11412442633E+04  0.78635578622E+02 -0.59978445791E+03  0.12916514308E+04  0.00000000000E+00 0. -1.
        -13    1    3    3    0    0  0.23480440830E+03  0.31570691231E+02 -0.17004139875E+03  0.29162286602E+03  0.00000000000E+00 0.  1.
         22    1    1    2    0    0 -0.13760486716E+04 -0.11020626985E+03 -0.11067825972E+04  0.17693566871E+04  0.00000000000E+00 0. -1.
<mgrwt>
<rscale>  0 0.27782144E+04</rscale>
<asrwt>0</asrwt>
<pdfrwt beam="1">  1        2 0.40224918E+00 0.27782144E+04</pdfrwt>
<pdfrwt beam="2">  1       -2 0.11354020E+00 0.27782144E+04</pdfrwt>
<totfact> 0.15816632E+00</totfact>
</mgrwt>
</event>
<event>
 6    1  0.9364335E-007  0.3989371E+04  0.7818608E-02  0.8006694E-01
          2   -1    0    0  501    0  0.00000000000E+00  0.00000000000E+00  0.22288834432E+04  0.22288834432E+04  0.00000000000E+00 0. -1.
         -2   -1    0    0    0  501 -0.00000000000E+00 -0.00000000000E+00 -0.17850956318E+04  0.17850956318E+04  0.00000000000E+00 0.  1.
         23    2    1    2    0    0 -0.41177082630E+03 -0.25834691449E+03 -0.17233722067E+04  0.17929700958E+04  0.91824070194E+02 0.  0.
         11    1    3    3    0    0 -0.10838900369E+03 -0.96173684337E+02 -0.64413444994E+03  0.66023234037E+03  0.00000000000E+00 0. -1.
        -11    1    3    3    0    0 -0.30338182261E+03 -0.16217323015E+03 -0.10792377567E+04  0.11327377554E+04  0.00000000000E+00 0.  1.
         22    1    1    2    0    0  0.41177082630E+03  0.25834691449E+03  0.21671600181E+04  0.22210089792E+04  0.00000000000E+00 0. -1.
<mgrwt>
<rscale>  0 0.39893709E+04</rscale>
<asrwt>0</asrwt>
<pdfrwt beam="1">  1        2 0.34290515E+00 0.39893709E+04</pdfrwt>
<pdfrwt beam="2">  1       -2 0.27463010E+00 0.39893709E+04</pdfrwt>
<totfact> 0.17835325E-01</totfact>
</mgrwt>
</event>
<event>
 6    1  0.9364335E-007  0.1170565E+04  0.7818608E-02  0.9139019E-01
          1   -1    0    0  501    0  0.00000000000E+00  0.00000000000E+00  0.40042371336E+04  0.40042371336E+04  0.00000000000E+00 0. -1.
         -1   -1    0    0    0  501 -0.00000000000E+00 -0.00000000000E+00 -0.85548246661E+02  0.85548246661E+02  0.00000000000E+00 0.  1.
         23    2    1    2    0    0  0.11031684426E+03  0.34908606071E+01  0.39668272077E+04  0.39693723820E+04  0.89537809726E+02 0.  0.
         13    1    3    3    0    0  0.21655971307E+01  0.25446106761E+02  0.13178322730E+04  0.13180796994E+04  0.00000000000E+00 0.  1.
        -13    1    3    3    0    0  0.10815124713E+03 -0.21955246154E+02  0.26489949346E+04  0.26512926826E+04  0.00000000000E+00 0. -1.
         22    1    1    2    0    0 -0.11031684426E+03 -0.34908606071E+01 -0.48138320693E+02  0.12041299828E+03  0.00000000000E+00 0.  1.
<mgrwt>
<rscale>  0 0.11705648E+04</rscale>
<asrwt>0</asrwt>
<pdfrwt beam="1">  1        1 0.61603634E+00 0.11705648E+04</pdfrwt>
<pdfrwt beam="2">  1       -1 0.13161272E-01 0.11705648E+04</pdfrwt>
<totfact> 0.39812964E+00</totfact>
</mgrwt>
</event>
<event>
 6    1  0.9364335E-007  0.1367806E+04  0.7818608E-02  0.8977458E-01
         -4   -1    0    0    0  501 -0.00000000000E+00  0.00000000000E+00  0.19112718294E+04  0.19112718294E+04  0.00000000000E+00 0.  1.
          4   -1    0    0  501    0  0.00000000000E+00 -0.00000000000E+00 -0.24471839684E+03  0.24471839684E+03  0.00000000000E+00 0. -1.
         23    2    1    2    0    0  0.61761195387E+03 -0.53027596340E+02  0.12816811471E+04  0.14263443343E+04  0.86574509162E+02 0.  0.
         13    1    3    3    0    0  0.21431540846E+03 -0.55225198132E+02  0.49853944278E+03  0.54545622448E+03  0.00000000000E+00 0. -1.
        -13    1    3    3    0    0  0.40329654540E+03  0.21976017928E+01  0.78314170428E+03  0.88088810979E+03  0.00000000000E+00 0.  1.
         22    1    1    2    0    0 -0.61761195387E+03  0.53027596340E+02  0.38487228551E+03  0.72964589198E+03  0.00000000000E+00 0. -1.
<mgrwt>
<rscale>  0 0.13678061E+04</rscale>
<asrwt>0</asrwt>
<pdfrwt beam="1">  1        4 0.37648985E-01 0.13678061E+04</pdfrwt>
<pdfrwt beam="2">  1       -4 0.29404181E+00 0.13678061E+04</pdfrwt>
<totfact> 0.45551339E-01</totfact>
</mgrwt>
</event>
<event>
 6    1  0.9364335E-007  0.3485112E+03  0.7818608E-02  0.1063228E+00
          2   -1    0    0  501    0  0.00000000000E+00  0.00000000000E+00  0.21476477463E+04  0.21476477463E+04  0.00000000000E+00 0. -1.
         -2   -1    0    0    0  501 -0.00000000000E+00 -0.00000000000E+00 -0.14138730491E+02  0.14138730491E+02  0.00000000000E+00 0.  1.
         23    2    1    2    0    0 -0.95701872179E+02 -0.39084310384E+02  0.19160392249E+04  0.19209970634E+04  0.91307033984E+02 0.  0.
         11    1    3    3    0    0 -0.78248347798E+02 -0.50056659345E+02  0.90638732511E+03  0.91113470804E+03  0.00000000000E+00 0.  1.
        -11    1    3    3    0    0 -0.17453524381E+02  0.10972348962E+02  0.10096518998E+04  0.10098623553E+04  0.00000000000E+00 0. -1.
         22    1    1    2    0    0  0.95701872179E+02  0.39084310384E+02  0.21746979087E+03  0.24078941338E+03  0.00000000000E+00 0.  1.
<mgrwt>
<rscale>  0 0.34851119E+03</rscale>
<asrwt>0</asrwt>
<pdfrwt beam="1">  1        2 0.33040709E+00 0.34851119E+03</pdfrwt>
<pdfrwt beam="2">  1       -2 0.21751910E-02 0.34851119E+03</pdfrwt>
<totfact> 0.42313476E+03</totfact>
</mgrwt>
</event>
<event>
 6    1  0.9364335E-007  0.2667355E+04  0.7818608E-02  0.8345675E-01
          2   -1    0    0  501    0  0.00000000000E+00  0.00000000000E+00  0.22813711926E+04  0.22813711926E+04  0.00000000000E+00 0. -1.
         -2   -1    0    0    0  501 -0.00000000000E+00 -0.00000000000E+00 -0.77966088962E+03  0.77966088962E+03  0.00000000000E+00 0.  1.
         23    2    1    2    0    0 -0.10270507398E+04  0.44919383310E+03 -0.73535904364E+02  0.11276389676E+04  0.97743492675E+02 0.  0.
         13    1    3    3    0    0 -0.50762615025E+03  0.27068857613E+03 -0.17610883349E+02  0.57555777892E+03  0.00000000000E+00 0.  1.
        -13    1    3    3    0    0 -0.51942458952E+03  0.17850525696E+03 -0.55925021015E+02  0.55208118872E+03  0.00000000000E+00 0. -1.
         22    1    1    2    0    0  0.10270507398E+04 -0.44919383310E+03  0.15752462073E+04  0.19333931146E+04  0.00000000000E+00 0. -1.
<mgrwt>
<rscale>  0 0.26673552E+04</rscale>
<asrwt>0</asrwt>
<pdfrwt beam="1">  1        2 0.35098018E+00 0.26673552E+04</pdfrwt>
<pdfrwt beam="2">  1       -2 0.11994783E+00 0.26673552E+04</pdfrwt>
<totfact> 0.21718645E+00</totfact>
</mgrwt>
</event>
<event>
 6    1  0.9364335E-007  0.8615543E+03  0.7818608E-02  0.9474959E-01
         -3   -1    0    0    0  501 -0.00000000000E+00  0.00000000000E+00  0.16834007779E+04  0.16834007779E+04  0.00000000000E+00 0.  1.
          3   -1    0    0  501    0  0.00000000000E+00 -0.00000000000E+00 -0.11023456841E+03  0.11023456841E+03  0.00000000000E+00 0. -1.
         23    2    1    2    0    0 -0.31733586377E+03  0.19969377976E+03  0.37471078715E+03  0.53789848875E+03  0.91361666364E+02 0.  0.
         13    1    3    3    0    0 -0.16246736514E+03  0.10257702974E+03  0.12810871499E+03  0.23093188308E+03  0.00000000000E+00 0. -1.
        -13    1    3    3    0    0 -0.15486849863E+03  0.97116750019E+02  0.24660207216E+03  0.30696660567E+03  0.00000000000E+00 0.  1.
         22    1    1    2    0    0  0.31733586377E+03 -0.19969377976E+03  0.11984554223E+04  0.12557368575E+04  0.00000000000E+00 0.  1.
<mgrwt>
<rscale>  0 0.86155431E+03</rscale>
<asrwt>0</asrwt>
<pdfrwt beam="1">  1        3 0.16959166E-01 0.86155431E+03</pdfrwt>
<pdfrwt beam="2">  1       -3 0.25898471E+00 0.86155431E+03</pdfrwt>
<totfact> 0.53383357E+00</totfact>
</mgrwt>
</event>
<event>
 6    1  0.9364335E-007  0.1376765E+04  0.7818608E-02  0.8970811E-01
          1   -1    0    0  501    0  0.00000000000E+00  0.00000000000E+00  0.14419826902E+04  0.14419826902E+04  0.00000000000E+00 0. -1.
         -1   -1    0    0    0  501 -0.00000000000E+00 -0.00000000000E+00 -0.32862434727E+03  0.32862434727E+03  0.00000000000E+00 0.  1.
         23    2    1    2    0    0 -0.48149698450E+03  0.46790238741E+03  0.38227566729E+03  0.77800748637E+03  0.91591335921E+02 0.  0.
         13    1    3    3    0    0 -0.42499813233E+03  0.36995793757E+03  0.33436622745E+03  0.65520459562E+03  0.00000000000E+00 0.  1.
        -13    1    3    3    0    0 -0.56498852166E+02  0.97944449845E+02  0.47909439832E+02  0.12280289075E+03  0.00000000000E+00 0. -1.
         22    1    1    2    0    0  0.48149698450E+03 -0.46790238741E+03  0.73108267561E+03  0.99259955108E+03  0.00000000000E+00 0. -1.
<mgrwt>
<rscale>  0 0.13767652E+04</rscale>
<asrwt>0</asrwt>
<pdfrwt beam="1">  1        1 0.22184349E+00 0.13767652E+04</pdfrwt>
<pdfrwt beam="2">  1       -1 0.50557592E-01 0.13767652E+04</pdfrwt>
<totfact> 0.27556580E+01</totfact>
</mgrwt>
</event>
<event>
 6    1  0.9364335E-007  0.3321818E+04  0.7818608E-02  0.8157366E-01
         -2   -1    0    0    0  501 -0.00000000000E+00  0.00000000000E+00  0.10393555081E+04  0.10393555081E+04  0.00000000000E+00 0.  1.
          2   -1    0    0  501    0  0.00000000000E+00 -0.00000000000E+00 -0.26541622799E+04  0.26541622799E+04  0.00000000000E+00 0. -1.
         23    2    1    2    0    0 -0.14097623427E+04 -0.72017385447E+03 -0.13620691263E+04  0.20904093821E+04  0.92189134767E+02 0.  0.
         13    1    3    3    0    0 -0.96315784139E+03 -0.44386182711E+03 -0.91948272212E+03  0.14036149135E+04  0.00000000000E+00 0. -1.
        -13    1    3    3    0    0 -0.44660450131E+03 -0.27631202735E+03 -0.44258640419E+03  0.68679446869E+03  0.00000000000E+00 0.  1.
         22    1    1    2    0    0  0.14097623427E+04  0.72017385447E+03 -0.25273764546E+03  0.16031084059E+04  0.00000000000E+00 0.  1.
<mgrwt>
<rscale>  0 0.33218177E+04</rscale>
<asrwt>0</asrwt>
<pdfrwt beam="1">  1        2 0.40833265E+00 0.33218177E+04</pdfrwt>
<pdfrwt beam="2">  1       -2 0.15990085E+00 0.33218177E+04</pdfrwt>
<totfact> 0.59459593E-01</totfact>
</mgrwt>
</event>
<event>
 6    1  0.9364335E-007  0.6075850E+04  0.7818608E-02  0.7681068E-01
         -2   -1    0    0    0  501 -0.00000000000E+00  0.00000000000E+00  0.25987298846E+04  0.25987298846E+04  0.00000000000E+00 0.  1.
          2   -1    0    0  501    0  0.00000000000E+00 -0.00000000000E+00 -0.35513454853E+04  0.35513454853E+04  0.00000000000E+00 0. -1.
         23    2    1    2    0    0  0.39266873015E+03  0.18040308284E+04  0.19646882212E+04  0.26976302145E+04  0.92157505714E+02 0.  0.
         11    1    3    3    0    0  0.14993425414E+03  0.90386423584E+03  0.96557055240E+03  0.13310812631E+04  0.00000000000E+00 0. -1.
        -11    1    3    3    0    0  0.24273447601E+03  0.90016659258E+03  0.99911766882E+03  0.13665489513E+04  0.00000000000E+00 0.  1.
         22    1    1    2    0    0 -0.39266873015E+03 -0.18040308284E+04 -0.29173038219E+04  0.34524451554E+04  0.00000000000E+00 0. -1.
<mgrwt>
<rscale>  0 0.60758498E+04</rscale>
<asrwt>0</asrwt>
<pdfrwt beam="1">  1        2 0.54636084E+00 0.60758498E+04</pdfrwt>
<pdfrwt beam="2">  1       -2 0.39980460E+00 0.60758498E+04</pdfrwt>
<totfact> 0.37218990E-03</totfact>
</mgrwt>
</event>
<event>
 6    1  0.9364335E-007  0.1118558E+04  0.7818608E-02  0.9187290E-01
          2   -1    0    0  501    0  0.00000000000E+00  0.00000000000E+00  0.21647852231E+04  0.21647852231E+04  0.00000000000E+00 0. -1.
         -2   -1    0    0    0  501 -0.00000000000E+00 -0.00000000000E+00 -0.14449148850E+03  0.14449148850E+03  0.00000000000E+00 0.  1.
         23    2    1    2    0    0  0.29029192185E+03 -0.35761374435E+03  0.37632354412E+03  0.60199964644E+03  0.92882584061E+02 0.  0.
         13    1    3    3    0    0  0.21311110195E+03 -0.24247766645E+03  0.31286911489E+03  0.44955404964E+03  0.00000000000E+00 0. -1.
        -13    1    3    3    0    0  0.77180819898E+02 -0.11513607790E+03  0.63454429229E+02  0.15244559680E+03  0.00000000000E+00 0.  1.
         22    1    1    2    0    0 -0.29029192185E+03  0.35761374435E+03  0.16439701904E+04  0.17072770651E+04  0.00000000000E+00 0. -1.
<mgrwt>
<rscale>  0 0.11185581E+04</rscale>
<asrwt>0</asrwt>
<pdfrwt beam="1">  1        2 0.33304386E+00 0.11185581E+04</pdfrwt>
<pdfrwt beam="2">  1       -2 0.22229461E-01 0.11185581E+04</pdfrwt>
<totfact> 0.95355924E+01</totfact>
</mgrwt>
</event>
<event>
 6    1  0.9364335E-007  0.4152632E+04  0.7818608E-02  0.7974444E-01
         -1   -1    0    0    0  501 -0.00000000000E+00  0.00000000000E+00  0.11664793176E+04  0.11664793176E+04  0.00000000000E+00 0.  1.
          1   -1    0    0  501    0  0.00000000000E+00 -0.00000000000E+00 -0.36958122946E+04  0.36958122946E+04  0.00000000000E+00 0. -1.
         23    2    1    2    0    0 -0.15928238645E+04 -0.10533874066E+04 -0.31395225977E+03  0.19374626233E+04  0.92100508749E+02 0.  0.
         11    1    3    3    0    0 -0.10611728170E+04 -0.68516312095E+03 -0.16565708465E+03  0.12739617418E+04  0.00000000000E+00 0.  1.
        -11    1    3    3    0    0 -0.53165104747E+03 -0.36822428566E+03 -0.14829517511E+03  0.66350088152E+03  0.00000000000E+00 0. -1.
         22    1    1    2    0    0  0.15928238645E+04  0.10533874066E+04 -0.22153807172E+04  0.29248289888E+04  0.00000000000E+00 0. -1.
<mgrwt>
<rscale>  0 0.41526322E+04</rscale>
<asrwt>0</asrwt>
<pdfrwt beam="1">  1        1 0.56858650E+00 0.41526322E+04</pdfrwt>
<pdfrwt beam="2">  1       -1 0.17945836E+00 0.41526322E+04</pdfrwt>
<totfact> 0.28165645E-02</totfact>
</mgrwt>
</event>
<event>
 6    1  0.9364335E-007  0.7365756E+03  0.7818608E-02  0.9656650E-01
          2   -1    0    0  501    0  0.00000000000E+00  0.00000000000E+00  0.85573251908E+03  0.85573251908E+03  0.00000000000E+00 0. -1.
         -2   -1    0    0    0  501 -0.00000000000E+00 -0.00000000000E+00 -0.15850270299E+03  0.15850270299E+03  0.00000000000E+00 0.  1.
         23    2    1    2    0    0 -0.13004073971E+03  0.24107736240E+03  0.68102014931E+03  0.73984199704E+03  0.92459981430E+02 0.  0.
         11    1    3    3    0    0 -0.26570154897E+02  0.14552029299E+03  0.36642642353E+03  0.39515876894E+03  0.00000000000E+00 0. -1.
        -11    1    3    3    0    0 -0.10347058481E+03  0.95557069404E+02  0.31459372578E+03  0.34468322810E+03  0.00000000000E+00 0.  1.
         22    1    1    2    0    0  0.13004073971E+03 -0.24107736240E+03  0.16209666776E+02  0.27439322503E+03  0.00000000000E+00 0.  1.
<mgrwt>
<rscale>  0 0.73657564E+03</rscale>
<asrwt>0</asrwt>
<pdfrwt beam="1">  1        2 0.13165115E+00 0.73657564E+03</pdfrwt>
<pdfrwt beam="2">  1       -2 0.24385032E-01 0.73657564E+03</pdfrwt>
<totfact> 0.47420321E+02</totfact>
</mgrwt>
</event>
<event>
 6    1  0.9364335E-007  0.3421315E+04  0.7818608E-02  0.8132695E-01
         -2   -1    0    0    0  501 -0.00000000000E+00  0.00000000000E+00  0.10357984622E+04  0.10357984622E+04  0.00000000000E+00 0.  1.
          2   -1    0    0  501    0  0.00000000000E+00 -0.00000000000E+00 -0.28252100584E+04  0.28252100584E+04  0.00000000000E+00 0. -1.
         23    2    1    2    0    0  0.13785409828E+04  0.99719084763E+03 -0.70936312233E+03  0.18457493478E+04  0.93966949942E+02 0.  0.
         13    1    3    3    0    0  0.12220111383E+04  0.87594747756E+03 -0.65796744220E+03  0.16411935781E+04  0.00000000000E+00 0.  1.
        -13    1    3    3    0    0  0.15652984447E+03  0.12124337006E+03 -0.51395680125E+02  0.20455576973E+03  0.00000000000E+00 0. -1.
         22    1    1    2    0    0 -0.13785409828E+04 -0.99719084763E+03 -0.10800484738E+04  0.20152591728E+04  0.00000000000E+00 0. -1.
<mgrwt>
<rscale>  0 0.34213145E+04</rscale>
<asrwt>0</asrwt>
<pdfrwt beam="1">  1        2 0.43464771E+00 0.34213145E+04</pdfrwt>
<pdfrwt beam="2">  1       -2 0.15935361E+00 0.34213145E+04</pdfrwt>
<totfact> 0.46996587E-01</totfact>
</mgrwt>
</event>
<event>
 6    1  0.9364335E-007  0.8109155E+03  0.7818608E-02  0.9544350E-01
          2   -1    0    0  501    0  0.00000000000E+00  0.00000000000E+00  0.18097918949E+04  0.18097918949E+04  0.00000000000E+00 0. -1.
         -2   -1    0    0    0  501 -0.00000000000E+00 -0.00000000000E+00 -0.90836959048E+02  0.90836959048E+02  0.00000000000E+00 0.  1.
         23    2    1    2    0    0  0.26981370614E+03  0.10909098465E+03  0.22317049912E+03  0.37679442720E+03  0.86421581455E+02 0.  0.
         13    1    3    3    0    0  0.20759401993E+03  0.64454347353E+02  0.20343534428E+03  0.29771728084E+03  0.00000000000E+00 0.  1.
        -13    1    3    3    0    0  0.62219686210E+02  0.44636637298E+02  0.19735154832E+02  0.79077146367E+02  0.00000000000E+00 0. -1.
         22    1    1    2    0    0 -0.26981370614E+03 -0.10909098465E+03  0.14957844368E+04  0.15238344268E+04  0.00000000000E+00 0. -1.
<mgrwt>
<rscale>  0 0.81091551E+03</rscale>
<asrwt>0</asrwt>
<pdfrwt beam="1">  1        2 0.27842949E+00 0.81091551E+03</pdfrwt>
<pdfrwt beam="2">  1       -2 0.13974918E-01 0.81091551E+03</pdfrwt>
<totfact> 0.34136888E+02</totfact>
</mgrwt>
</event>
<event>
 6    1  0.9364335E-007  0.1531517E+04  0.7818608E-02  0.8863761E-01
          1   -1    0    0  501    0  0.00000000000E+00  0.00000000000E+00  0.72122313840E+03  0.72122313840E+03  0.00000000000E+00 0. -1.
         -1   -1    0    0    0  501 -0.00000000000E+00 -0.00000000000E+00 -0.81304371576E+03  0.81304371576E+03  0.00000000000E+00 0.  1.
         23    2    1    2    0    0  0.47623023356E+03 -0.45618824971E+03 -0.43056544404E+03  0.79288231209E+03  0.91503031035E+02 0.  0.
         11    1    3    3    0    0  0.16857791187E+03 -0.22325055429E+03 -0.18934418664E+03  0.33780252126E+03  0.00000000000E+00 0. -1.
        -11    1    3    3    0    0  0.30765232169E+03 -0.23293769542E+03 -0.24122125741E+03  0.45507979082E+03  0.00000000000E+00 0.  1.
         22    1    1    2    0    0 -0.47623023356E+03  0.45618824971E+03  0.33874486668E+03  0.74138454208E+03  0.00000000000E+00 0. -1.
<mgrwt>
<rscale>  0 0.15315168E+04</rscale>
<asrwt>0</asrwt>
<pdfrwt beam="1">  1        1 0.11095741E+00 0.15315168E+04</pdfrwt>
<pdfrwt beam="2">  1       -1 0.12508365E+00 0.15315168E+04</pdfrwt>
<totfact> 0.14033740E+01</totfact>
</mgrwt>
</event>
<event>
 6    1  0.9364335E-007  0.1918811E+04  0.7818608E-02  0.8645549E-01
         -2   -1    0    0    0  501 -0.00000000000E+00  0.00000000000E+00  0.53729038976E+03  0.53729038976E+03  0.00000000000E+00 0.  1.
          2   -1    0    0  501    0  0.00000000000E+00 -0.00000000000E+00 -0.17131491290E+04  0.17131491290E+04  0.00000000000E+00 0. -1.
         23    2    1    2    0    0 -0.41808358003E+03 -0.45400824360E+03 -0.14469839690E+04  0.15763280625E+04  0.10064883912E+03 0.  0.
         11    1    3    3    0    0 -0.21954207590E+03 -0.19773701583E+03 -0.79656588743E+03  0.84959747147E+03  0.00000000000E+00 0. -1.
        -11    1    3    3    0    0 -0.19854150413E+03 -0.25627122777E+03 -0.65041808162E+03  0.72673059103E+03  0.00000000000E+00 0.  1.
         22    1    1    2    0    0  0.41808358003E+03  0.45400824360E+03  0.27112522984E+03  0.67411145622E+03  0.00000000000E+00 0.  1.
<mgrwt>
<rscale>  0 0.19188106E+04</rscale>
<asrwt>0</asrwt>
<pdfrwt beam="1">  1        2 0.26356140E+00 0.19188106E+04</pdfrwt>
<pdfrwt beam="2">  1       -2 0.82660061E-01 0.19188106E+04</pdfrwt>
<totfact> 0.11576592E+01</totfact>
</mgrwt>
</event>
<event>
 6    1  0.9364335E-007  0.2608363E+04  0.7818608E-02  0.8365366E-01
          2   -1    0    0  501    0  0.00000000000E+00  0.00000000000E+00  0.38447174753E+04  0.38447174753E+04  0.00000000000E+00 0. -1.
         -2   -1    0    0    0  501 -0.00000000000E+00 -0.00000000000E+00 -0.44239647275E+03  0.44239647275E+03  0.00000000000E+00 0.  1.
         23    2    1    2    0    0 -0.64084670427E+03  0.49418323579E+03  0.33808880631E+04  0.34775702866E+04  0.90495490985E+02 0.  0.
         13    1    3    3    0    0 -0.11782425771E+03  0.13077877398E+03  0.65144333617E+03  0.67480668615E+03  0.00000000000E+00 0. -1.
        -13    1    3    3    0    0 -0.52302244655E+03  0.36340446181E+03  0.27294447270E+04  0.28027636004E+04  0.00000000000E+00 0.  1.
         22    1    1    2    0    0  0.64084670427E+03 -0.49418323579E+03  0.21432939418E+02  0.80954366145E+03  0.00000000000E+00 0.  1.
<mgrwt>
<rscale>  0 0.26083630E+04</rscale>
<asrwt>0</asrwt>
<pdfrwt beam="1">  1        2 0.59149497E+00 0.26083630E+04</pdfrwt>
<pdfrwt beam="2">  1       -2 0.68060998E-01 0.26083630E+04</pdfrwt>
<totfact> 0.79424982E-01</totfact>
</mgrwt>
</event>
<event>
 6    1  0.9364335E-007  0.1728864E+04  0.7818608E-02  0.8745071E-01
          2   -1    0    0  501    0  0.00000000000E+00  0.00000000000E+00  0.14890072142E+04  0.14890072142E+04  0.00000000000E+00 0. -1.
         -2   -1    0    0    0  501 -0.00000000000E+00 -0.00000000000E+00 -0.50183948667E+03  0.50183948667E+03  0.00000000000E+00 0.  1.
         23    2    1    2    0    0  0.15788562547E+02 -0.92150724830E+02  0.14811155651E+04  0.14881285879E+04  0.10991970741E+03 0.  0.
         11    1    3    3    0    0 -0.13064396617E+02 -0.10734874293E+03  0.97884475120E+03  0.98480022239E+03  0.00000000000E+00 0. -1.
        -11    1    3    3    0    0  0.28852959164E+02  0.15198018102E+02  0.50227081390E+03  0.50332836548E+03  0.00000000000E+00 0.  1.
         22    1    1    2    0    0 -0.15788562547E+02  0.92150724830E+02 -0.49394783762E+03  0.50271811294E+03  0.00000000000E+00 0.  1.
<mgrwt>
<rscale>  0 0.17288639E+04</rscale>
<asrwt>0</asrwt>
<pdfrwt beam="1">  1        2 0.22907803E+00 0.17288639E+04</pdfrwt>
<pdfrwt beam="2">  1       -2 0.77206075E-01 0.17288639E+04</pdfrwt>
<totfact> 0.18300772E+01</totfact>
</mgrwt>
</event>
<event>
 6    1  0.9364335E-007  0.1059260E+04  0.7818608E-02  0.9245836E-01
          1   -1    0    0  501    0  0.00000000000E+00  0.00000000000E+00  0.10735878146E+04  0.10735878146E+04  0.00000000000E+00 0. -1.
         -1   -1    0    0    0  501 -0.00000000000E+00 -0.00000000000E+00 -0.26128069027E+03  0.26128069027E+03  0.00000000000E+00 0.  1.
         23    2    1    2    0    0 -0.40892905934E+03  0.42541951699E+02 -0.39698920482E+01  0.42089861439E+03  0.90039382098E+02 0.  0.
         11    1    3    3    0    0 -0.24013808255E+03  0.61728651658E+02 -0.27229460997E+02  0.24943570047E+03  0.00000000000E+00 0.  1.
        -11    1    3    3    0    0 -0.16879097679E+03 -0.19186699959E+02  0.23259568949E+02  0.17146291392E+03  0.00000000000E+00 0. -1.
         22    1    1    2    0    0  0.40892905934E+03 -0.42541951699E+02  0.81627701637E+03  0.91396989047E+03  0.00000000000E+00 0.  1.
<mgrwt>
<rscale>  0 0.10592597E+04</rscale>
<asrwt>0</asrwt>
<pdfrwt beam="1">  1        1 0.16516735E+00 0.10592597E+04</pdfrwt>
<pdfrwt beam="2">  1       -1 0.40197030E-01 0.10592597E+04</pdfrwt>
<totfact> 0.80000172E+01</totfact>
</mgrwt>
</event>
<event>
 6    1  0.9364335E-007  0.1934284E+04  0.7818608E-02  0.8637977E-01
          1   -1    0    0  501    0  0.00000000000E+00  0.00000000000E+00  0.10365439356E+04  0.10365439356E+04  0.00000000000E+00 0. -1.
         -1   -1    0    0    0  501 -0.00000000000E+00 -0.00000000000E+00 -0.90238709852E+03  0.90238709852E+03  0.00000000000E+00 0.  1.
         23    2    1    2    0    0  0.40745220325E+03 -0.47109646173E+03 -0.67156662149E+03  0.92053058935E+03  0.91791419260E+02 0.  0.
         11    1    3    3    0    0  0.16889316228E+03 -0.19795725408E+03 -0.21557169272E+03  0.33790994275E+03  0.00000000000E+00 0.  1.
        -11    1    3    3    0    0  0.23855904097E+03 -0.27313920765E+03 -0.45599492877E+03  0.58262064661E+03  0.00000000000E+00 0. -1.
         22    1    1    2    0    0 -0.40745220325E+03  0.47109646173E+03  0.80572345853E+03  0.10184004447E+04  0.00000000000E+00 0. -1.
<mgrwt>
<rscale>  0 0.19342842E+04</rscale>
<asrwt>0</asrwt>
<pdfrwt beam="1">  1        1 0.15946830E+00 0.19342842E+04</pdfrwt>
<pdfrwt beam="2">  1       -1 0.13882878E+00 0.19342842E+04</pdfrwt>
<totfact> 0.56658253E+00</totfact>
</mgrwt>
</event>
<event>
 6    1  0.9364335E-007  0.8515160E+03  0.7818608E-02  0.9488305E-01
          1   -1    0    0  501    0  0.00000000000E+00  0.00000000000E+00  0.11678565321E+04  0.11678565321E+04  0.00000000000E+00 0. -1.
         -1   -1    0    0    0  501 -0.00000000000E+00 -0.00000000000E+00 -0.15521586101E+03  0.15521586101E+03  0.00000000000E+00 0.  1.
         23    2    1    2    0    0 -0.33821221621E+03  0.16259615199E+03  0.80829629994E+03  0.89577667133E+03  0.90818085102E+02 0.  0.
         13    1    3    3    0    0 -0.15270691315E+03  0.69005701740E+02  0.25886467886E+03  0.30837008635E+03  0.00000000000E+00 0.  1.
        -13    1    3    3    0    0 -0.18550530306E+03  0.93590450250E+02  0.54943162108E+03  0.58740658498E+03  0.00000000000E+00 0. -1.
         22    1    1    2    0    0  0.33821221621E+03 -0.16259615199E+03  0.20434437117E+03  0.42729572179E+03  0.00000000000E+00 0.  1.
<mgrwt>
<rscale>  0 0.85151596E+03</rscale>
<asrwt>0</asrwt>
<pdfrwt beam="1">  1        1 0.17967023E+00 0.85151596E+03</pdfrwt>
<pdfrwt beam="2">  1       -1 0.23879364E-01 0.85151596E+03</pdfrwt>
<totfact> 0.17244864E+02</totfact>
</mgrwt>
</event>
<event>
 6    1  0.9364335E-007  0.4103853E+04  0.7818608E-02  0.7983918E-01
          2   -1    0    0  501    0  0.00000000000E+00  0.00000000000E+00  0.32383456643E+04  0.32383456643E+04  0.00000000000E+00 0. -1.
         -2   -1    0    0    0  501 -0.00000000000E+00 -0.00000000000E+00 -0.13001705468E+04  0.13001705468E+04  0.00000000000E+00 0.  1.
         23    2    1    2    0    0  0.27871731130E+02 -0.19924445149E+04  0.15062148287E+04  0.24995945183E+04  0.93153997557E+02 0.  0.
         13    1    3    3    0    0 -0.28261460477E+02 -0.88362120438E+03  0.63995840488E+03  0.10913898950E+04  0.00000000000E+00 0. -1.
        -13    1    3    3    0    0  0.56133191607E+02 -0.11088233105E+04  0.86625642383E+03  0.14082046232E+04  0.00000000000E+00 0.  1.
         22    1    1    2    0    0 -0.27871731130E+02  0.19924445149E+04  0.43196028875E+03  0.20389216928E+04  0.00000000000E+00 0.  1.
<mgrwt>
<rscale>  0 0.41038527E+04</rscale>
<asrwt>0</asrwt>
<pdfrwt beam="1">  1        2 0.49820702E+00 0.41038527E+04</pdfrwt>
<pdfrwt beam="2">  1       -2 0.20002624E+00 0.41038527E+04</pdfrwt>
<totfact> 0.12714279E-01</totfact>
</mgrwt>
</event>
<event>
 6    1  0.9364335E-007  0.3484327E+04  0.7818608E-02  0.8117514E-01
          2   -1    0    0  501    0  0.00000000000E+00  0.00000000000E+00  0.26290722769E+04  0.26290722769E+04  0.00000000000E+00 0. -1.
         -2   -1    0    0    0  501 -0.00000000000E+00 -0.00000000000E+00 -0.11544501280E+04  0.11544501280E+04  0.00000000000E+00 0.  1.
         23    2    1    2    0    0  0.80382720733E+03  0.43679072844E+03 -0.87065527768E+03  0.12661327793E+04  0.90151442123E+02 0.  0.
         13    1    3    3    0    0  0.24539799006E+03  0.16584332426E+03 -0.23933080881E+03  0.38079314302E+03  0.00000000000E+00 0.  1.
        -13    1    3    3    0    0  0.55842921727E+03  0.27094740418E+03 -0.63132446887E+03  0.88533963626E+03  0.00000000000E+00 0. -1.
         22    1    1    2    0    0 -0.80382720733E+03 -0.43679072844E+03  0.23452774265E+04  0.25173896256E+04  0.00000000000E+00 0. -1.
<mgrwt>
<rscale>  0 0.34843265E+04</rscale>
<asrwt>0</asrwt>
<pdfrwt beam="1">  1        2 0.40447265E+00 0.34843265E+04</pdfrwt>
<pdfrwt beam="2">  1       -2 0.17760771E+00 0.34843265E+04</pdfrwt>
<totfact> 0.45337586E-01</totfact>
</mgrwt>
</event>
<event>
 6    1  0.9364335E-007  0.1689151E+04  0.7818608E-02  0.8767576E-01
          1   -1    0    0  501    0  0.00000000000E+00  0.00000000000E+00  0.95186824179E+03  0.95186824179E+03  0.00000000000E+00 0. -1.
         -1   -1    0    0    0  501 -0.00000000000E+00 -0.00000000000E+00 -0.74937686814E+03  0.74937686814E+03  0.00000000000E+00 0.  1.
         23    2    1    2    0    0  0.57638550409E+03 -0.25094814043E+03  0.66556198001E+03  0.92045729946E+03  0.95255825968E+02 0.  0.
         13    1    3    3    0    0  0.58717961876E+02 -0.39834894618E+01  0.92773537014E+02  0.10986626600E+03  0.00000000000E+00 0.  1.
        -13    1    3    3    0    0  0.51766754222E+03 -0.24696465097E+03  0.57278844300E+03  0.81059103346E+03  0.00000000000E+00 0. -1.
         22    1    1    2    0    0 -0.57638550409E+03  0.25094814043E+03 -0.46307060636E+03  0.78078781048E+03  0.00000000000E+00 0.  1.
<mgrwt>
<rscale>  0 0.16891513E+04</rscale>
<asrwt>0</asrwt>
<pdfrwt beam="1">  1        1 0.14644127E+00 0.16891513E+04</pdfrwt>
<pdfrwt beam="2">  1       -1 0.11528875E+00 0.16891513E+04</pdfrwt>
<totfact> 0.10736486E+01</totfact>
</mgrwt>
</event>
<event>
 6    1  0.9364335E-007  0.7984498E+03  0.7818608E-02  0.9562264E-01
         -1   -1    0    0    0  501 -0.00000000000E+00  0.00000000000E+00  0.44024245774E+03  0.44024245774E+03  0.00000000000E+00 0.  1.
          1   -1    0    0  501    0  0.00000000000E+00 -0.00000000000E+00 -0.36202894954E+03  0.36202894954E+03  0.00000000000E+00 0. -1.
         23    2    1    2    0    0  0.22953632019E+03 -0.50417895918E+02  0.35576293991E+03  0.43859218934E+03  0.10279568387E+03 0.  0.
         11    1    3    3    0    0  0.18095241125E+03 -0.74271759144E+02  0.23161630077E+03  0.30316032083E+03  0.00000000000E+00 0. -1.
        -11    1    3    3    0    0  0.48583908946E+02  0.23853863226E+02  0.12414663914E+03  0.13543186852E+03  0.00000000000E+00 0.  1.
         22    1    1    2    0    0 -0.22953632019E+03  0.50417895918E+02 -0.27754943171E+03  0.36367921794E+03  0.00000000000E+00 0. -1.
<mgrwt>
<rscale>  0 0.79844978E+03</rscale>
<asrwt>0</asrwt>
<pdfrwt beam="1">  1        1 0.55696762E-01 0.79844978E+03</pdfrwt>
<pdfrwt beam="2">  1       -1 0.67729608E-01 0.79844978E+03</pdfrwt>
<totfact> 0.15306989E+02</totfact>
</mgrwt>
</event>
<event>
 6    1  0.9364335E-007  0.1251202E+04  0.7818608E-02  0.9069183E-01
         -4   -1    0    0    0  501 -0.00000000000E+00  0.00000000000E+00  0.51662231089E+03  0.51662231089E+03  0.00000000000E+00 0.  1.
          4   -1    0    0  501    0  0.00000000000E+00 -0.00000000000E+00 -0.75756809090E+03  0.75756809090E+03  0.00000000000E+00 0. -1.
         23    2    1    2    0    0  0.10648063311E+03  0.24458852168E+03  0.45146408687E+03  0.53217079698E+03  0.90687734905E+02 0.  0.
         13    1    3    3    0    0  0.74953002398E+02  0.12099737497E+03  0.16074869445E+03  0.21470551945E+03  0.00000000000E+00 0.  1.
        -13    1    3    3    0    0  0.31527630708E+02  0.12359114671E+03  0.29071539242E+03  0.31746527752E+03  0.00000000000E+00 0. -1.
         22    1    1    2    0    0 -0.10648063311E+03 -0.24458852168E+03 -0.69240986688E+03  0.74201960481E+03  0.00000000000E+00 0. -1.
<mgrwt>
<rscale>  0 0.12512019E+04</rscale>
<asrwt>0</asrwt>
<pdfrwt beam="1">  1        4 0.11654894E+00 0.12512019E+04</pdfrwt>
<pdfrwt beam="2">  1       -4 0.79480355E-01 0.12512019E+04</pdfrwt>
<totfact> 0.15729623E+00</totfact>
</mgrwt>
</event>
<event>
 6    1  0.9364335E-007  0.2313517E+04  0.7818608E-02  0.8472610E-01
         -2   -1    0    0    0  501 -0.00000000000E+00  0.00000000000E+00  0.18238524250E+04  0.18238524250E+04  0.00000000000E+00 0.  1.
          2   -1    0    0  501    0  0.00000000000E+00 -0.00000000000E+00 -0.73366160929E+03  0.73366160929E+03  0.00000000000E+00 0. -1.
         23    2    1    2    0    0 -0.45294010462E+02  0.13469289519E+03  0.18128590071E+04  0.18210067104E+04  0.97025442322E+02 0.  0.
         13    1    3    3    0    0 -0.66837954513E+02  0.56805680851E+02  0.75845469150E+03  0.76351012868E+03  0.00000000000E+00 0.  1.
        -13    1    3    3    0    0  0.21543944051E+02  0.77887214336E+02  0.10544043156E+04  0.10574965818E+04  0.00000000000E+00 0. -1.
         22    1    1    2    0    0  0.45294010462E+02 -0.13469289519E+03 -0.72266819133E+03  0.73650732390E+03  0.00000000000E+00 0. -1.
<mgrwt>
<rscale>  0 0.23135172E+04</rscale>
<asrwt>0</asrwt>
<pdfrwt beam="1">  1        2 0.11287102E+00 0.23135172E+04</pdfrwt>
<pdfrwt beam="2">  1       -2 0.28059268E+00 0.23135172E+04</pdfrwt>
<totfact> 0.14595007E+00</totfact>
</mgrwt>
</event>
<event>
 6    1  0.9364335E-007  0.2528149E+04  0.7818608E-02  0.8393025E-01
          2   -1    0    0  501    0  0.00000000000E+00  0.00000000000E+00  0.16619892990E+04  0.16619892990E+04  0.00000000000E+00 0. -1.
         -2   -1    0    0    0  501 -0.00000000000E+00 -0.00000000000E+00 -0.96142870686E+03  0.96142870686E+03  0.00000000000E+00 0.  1.
         23    2    1    2    0    0 -0.75994730475E+03 -0.29806868855E+03  0.13498957963E+04  0.15803451146E+04  0.94377812082E+02 0.  0.
         13    1    3    3    0    0 -0.61562526455E+03 -0.21156085857E+03  0.10201198864E+04  0.12101227400E+04  0.00000000000E+00 0. -1.
        -13    1    3    3    0    0 -0.14432204020E+03 -0.86507829977E+02  0.32977590994E+03  0.37022237468E+03  0.00000000000E+00 0.  1.
         22    1    1    2    0    0  0.75994730475E+03  0.29806868855E+03 -0.64933520414E+03  0.10430728912E+04  0.00000000000E+00 0.  1.
<mgrwt>
<rscale>  0 0.25281489E+04</rscale>
<asrwt>0</asrwt>
<pdfrwt beam="1">  1        2 0.25569066E+00 0.25281489E+04</pdfrwt>
<pdfrwt beam="2">  1       -2 0.14791211E+00 0.25281489E+04</pdfrwt>
<totfact> 0.28495208E+00</totfact>
</mgrwt>
</event>
<event>
 6    1  0.9364335E-007  0.1856362E+04  0.7818608E-02  0.8676888E-01
          2   -1    0    0  501    0  0.00000000000E+00  0.00000000000E+00  0.19051441184E+04  0.19051441184E+04  0.00000000000E+00 0. -1.
         -2   -1    0    0    0  501 -0.00000000000E+00 -0.00000000000E+00 -0.45220717637E+03  0.45220717637E+03  0.00000000000E+00 0.  1.
         23    2    1    2    0    0  0.35951120773E+03 -0.14383760405E+03 -0.33987414181E+03  0.52320049750E+03  0.91031661980E+02 0.  0.
         13    1    3    3    0    0  0.53614600590E+02 -0.18377723133E+02 -0.12746427067E+02  0.58092490969E+02  0.00000000000E+00 0.  1.
        -13    1    3    3    0    0  0.30589660714E+03 -0.12545988092E+03 -0.32712771474E+03  0.46510800653E+03  0.00000000000E+00 0. -1.
         22    1    1    2    0    0 -0.35951120773E+03  0.14383760405E+03  0.17928110838E+04  0.18341507973E+04  0.00000000000E+00 0. -1.
<mgrwt>
<rscale>  0 0.18563619E+04</rscale>
<asrwt>0</asrwt>
<pdfrwt beam="1">  1        2 0.29309909E+00 0.18563619E+04</pdfrwt>
<pdfrwt beam="2">  1       -2 0.69570336E-01 0.18563619E+04</pdfrwt>
<totfact> 0.13356584E+01</totfact>
</mgrwt>
</event>
<event>
 6    1  0.9364335E-007  0.4545777E+04  0.7818608E-02  0.7902671E-01
         -2   -1    0    0    0  501 -0.00000000000E+00  0.00000000000E+00  0.16629576663E+04  0.16629576663E+04  0.00000000000E+00 0.  1.
          2   -1    0    0  501    0  0.00000000000E+00 -0.00000000000E+00 -0.31065268049E+04  0.31065268049E+04  0.00000000000E+00 0. -1.
         23    2    1    2    0    0  0.16068681779E+04 -0.15906310945E+03 -0.23990837573E+04  0.28932289980E+04  0.88570574588E+02 0.  0.
         11    1    3    3    0    0  0.11006059623E+04 -0.80294114995E+02 -0.15844707525E+04  0.19308879291E+04  0.00000000000E+00 0. -1.
        -11    1    3    3    0    0  0.50626221557E+03 -0.78768994453E+02 -0.81461300473E+03  0.96234106889E+03  0.00000000000E+00 0.  1.
         22    1    1    2    0    0 -0.16068681779E+04  0.15906310945E+03  0.95551461867E+03  0.18762554731E+04  0.00000000000E+00 0.  1.
<mgrwt>
<rscale>  0 0.45457772E+04</rscale>
<asrwt>0</asrwt>
<pdfrwt beam="1">  1        2 0.47792720E+00 0.45457772E+04</pdfrwt>
<pdfrwt beam="2">  1       -2 0.25583964E+00 0.45457772E+04</pdfrwt>
<totfact> 0.66520694E-02</totfact>
</mgrwt>
</event>
<event>
 6    1  0.9364335E-007  0.3397650E+04  0.7818608E-02  0.8138483E-01
         -1   -1    0    0    0  501 -0.00000000000E+00  0.00000000000E+00  0.66041001402E+03  0.66041001402E+03  0.00000000000E+00 0.  1.
          1   -1    0    0  501    0  0.00000000000E+00 -0.00000000000E+00 -0.43700218000E+04  0.43700218000E+04  0.00000000000E+00 0. -1.
         23    2    1    2    0    0 -0.12184649323E+04  0.11357294755E+04 -0.13761968551E+04  0.21634885861E+04  0.11057506524E+03 0.  0.
         13    1    3    3    0    0 -0.28251869143E+03  0.20930369152E+03 -0.31847199034E+03  0.47439356543E+03  0.00000000000E+00 0. -1.
        -13    1    3    3    0    0 -0.93594624091E+03  0.92642578400E+03 -0.10577248648E+04  0.16890950206E+04  0.00000000000E+00 0.  1.
         22    1    1    2    0    0  0.12184649323E+04 -0.11357294755E+04 -0.23334149309E+04  0.28669432280E+04  0.00000000000E+00 0. -1.
<mgrwt>
<rscale>  0 0.33976499E+04</rscale>
<asrwt>0</asrwt>
<pdfrwt beam="1">  1        1 0.67231104E+00 0.33976499E+04</pdfrwt>
<pdfrwt beam="2">  1       -1 0.10160154E+00 0.33976499E+04</pdfrwt>
<totfact> 0.32799350E-02</totfact>
</mgrwt>
</event>
<event>
 6    1  0.9364335E-007  0.5422683E+04  0.7818608E-02  0.7766419E-01
          2   -1    0    0  501    0  0.00000000000E+00  0.00000000000E+00  0.30269763406E+04  0.30269763406E+04  0.00000000000E+00 0. -1.
         -2   -1    0    0    0  501 -0.00000000000E+00 -0.00000000000E+00 -0.24286189993E+04  0.24286189993E+04  0.00000000000E+00 0.  1.
         23    2    1    2    0    0 -0.17468413979E+04  0.15403917729E+04 -0.10954124719E+04  0.25758179417E+04  0.10318866900E+03 0.  0.
         13    1    3    3    0    0 -0.12009846966E+04  0.10003363600E+04 -0.75693139259E+03  0.17366583452E+04  0.00000000000E+00 0. -1.
        -13    1    3    3    0    0 -0.54585670128E+03  0.54005541293E+03 -0.33848107931E+03  0.83915959651E+03  0.00000000000E+00 0.  1.
         22    1    1    2    0    0  0.17468413979E+04 -0.15403917729E+04  0.16937698132E+04  0.28797773983E+04  0.00000000000E+00 0. -1.
<mgrwt>
<rscale>  0 0.54226828E+04</rscale>
<asrwt>0</asrwt>
<pdfrwt beam="1">  1        2 0.46568867E+00 0.54226828E+04</pdfrwt>
<pdfrwt beam="2">  1       -2 0.37363369E+00 0.54226828E+04</pdfrwt>
<totfact> 0.12970701E-02</totfact>
</mgrwt>
</event>
<event>
 6    1  0.9364335E-007  0.5721054E+03  0.7818608E-02  0.9965031E-01
          1   -1    0    0  501    0  0.00000000000E+00  0.00000000000E+00  0.57485242956E+03  0.57485242956E+03  0.00000000000E+00 0. -1.
         -1   -1    0    0    0  501 -0.00000000000E+00 -0.00000000000E+00 -0.14234285064E+03  0.14234285064E+03  0.00000000000E+00 0.  1.
         23    2    1    2    0    0 -0.10636056686E+03  0.12122833698E+03 -0.62974809975E+02  0.19612555405E+03  0.92144052391E+02 0.  0.
         13    1    3    3    0    0 -0.90758292540E+02  0.73384647702E+02 -0.15586443088E+01  0.11672533382E+03  0.00000000000E+00 0. -1.
        -13    1    3    3    0    0 -0.15602274318E+02  0.47843689281E+02 -0.61416165667E+02  0.79400220233E+02  0.00000000000E+00 0.  1.
         22    1    1    2    0    0  0.10636056686E+03 -0.12122833698E+03  0.49548438890E+03  0.52106972615E+03  0.00000000000E+00 0. -1.
<mgrwt>
<rscale>  0 0.57210535E+03</rscale>
<asrwt>0</asrwt>
<pdfrwt beam="1">  1        1 0.88438834E-01 0.57210535E+03</pdfrwt>
<pdfrwt beam="2">  1       -1 0.21898900E-01 0.57210535E+03</pdfrwt>
<totfact> 0.64499161E+02</totfact>
</mgrwt>
</event>
<event>
 6    1  0.9364335E-007  0.1135664E+04  0.7818608E-02  0.9171112E-01
         -2   -1    0    0    0  501 -0.00000000000E+00  0.00000000000E+00  0.62607584416E+03  0.62607584416E+03  0.00000000000E+00 0.  1.
          2   -1    0    0  501    0  0.00000000000E+00 -0.00000000000E+00 -0.51500656756E+03  0.51500656756E+03  0.00000000000E+00 0. -1.
         23    2    1    2    0    0 -0.44241556963E+03 -0.14710387142E+03 -0.26109850179E+03  0.54452567468E+03  0.10471245153E+03 0.  0.
         11    1    3    3    0    0 -0.27212288273E+03 -0.14087997554E+03 -0.15066583711E+03  0.34146482291E+03  0.00000000000E+00 0.  1.
        -11    1    3    3    0    0 -0.17029268690E+03 -0.62238958838E+01 -0.11043266468E+03  0.20306085177E+03  0.00000000000E+00 0. -1.
         22    1    1    2    0    0  0.44241556963E+03  0.14710387142E+03  0.37216777839E+03  0.59655673704E+03  0.00000000000E+00 0.  1.
<mgrwt>
<rscale>  0 0.11356640E+04</rscale>
<asrwt>0</asrwt>
<pdfrwt beam="1">  1        2 0.79231779E-01 0.11356640E+04</pdfrwt>
<pdfrwt beam="2">  1       -2 0.96319361E-01 0.11356640E+04</pdfrwt>
<totfact> 0.53201714E+01</totfact>
</mgrwt>
</event>
<event>
 6    1  0.9364335E-007  0.2891836E+04  0.7818608E-02  0.8275311E-01
          1   -1    0    0  501    0  0.00000000000E+00  0.00000000000E+00  0.17519734409E+04  0.17519734409E+04  0.00000000000E+00 0. -1.
         -1   -1    0    0    0  501 -0.00000000000E+00 -0.00000000000E+00 -0.11933282483E+04  0.11933282483E+04  0.00000000000E+00 0.  1.
         23    2    1    2    0    0 -0.23555449818E+03  0.87212120911E+03  0.14275209270E+04  0.16918957825E+04  0.92811727477E+02 0.  0.
         13    1    3    3    0    0 -0.22024800469E+03  0.73736588761E+03  0.11616226661E+04  0.13934076411E+04  0.00000000000E+00 0. -1.
        -13    1    3    3    0    0 -0.15306493488E+02  0.13475532150E+03  0.26589826090E+03  0.29848814142E+03  0.00000000000E+00 0.  1.
         22    1    1    2    0    0  0.23555449818E+03 -0.87212120911E+03 -0.86887573440E+03  0.12534059066E+04  0.00000000000E+00 0.  1.
<mgrwt>
<rscale>  0 0.28918364E+04</rscale>
<asrwt>0</asrwt>
<pdfrwt beam="1">  1        1 0.26953438E+00 0.28918364E+04</pdfrwt>
<pdfrwt beam="2">  1       -1 0.18358896E+00 0.28918364E+04</pdfrwt>
<totfact> 0.74011607E-01</totfact>
</mgrwt>
</event>
<event>
 6    1  0.9364335E-007  0.2581251E+04  0.7818608E-02  0.8374598E-01
         -2   -1    0    0    0  501 -0.00000000000E+00  0.00000000000E+00  0.60654987190E+03  0.60654987190E+03  0.00000000000E+00 0.  1.
          2   -1    0    0  501    0  0.00000000000E+00 -0.00000000000E+00 -0.27462106768E+04  0.27462106768E+04  0.00000000000E+00 0. -1.
         23    2    1    2    0    0  0.75914420926E+03 -0.74500578565E+03 -0.12537934813E+03  0.10748967823E+04  0.91375930140E+02 0.  0.
         13    1    3    3    0    0  0.57745703855E+03 -0.61833055452E+03 -0.10253797644E+03  0.85223432379E+03  0.00000000000E+00 0.  1.
        -13    1    3    3    0    0  0.18168717070E+03 -0.12667523112E+03 -0.22841371693E+02  0.22266245853E+03  0.00000000000E+00 0. -1.
         22    1    1    2    0    0 -0.75914420926E+03  0.74500578565E+03 -0.20142814568E+04  0.22778637664E+04  0.00000000000E+00 0. -1.
<mgrwt>
<rscale>  0 0.25812507E+04</rscale>
<asrwt>0</asrwt>
<pdfrwt beam="1">  1        2 0.42249394E+00 0.25812507E+04</pdfrwt>
<pdfrwt beam="2">  1       -2 0.93315366E-01 0.25812507E+04</pdfrwt>
<totfact> 0.21447355E+00</totfact>
</mgrwt>
</event>
<event>
 6    1  0.9364335E-007  0.5489305E+03  0.7818608E-02  0.1001742E+00
          2   -1    0    0  501    0  0.00000000000E+00  0.00000000000E+00  0.22098127846E+03  0.22098127846E+03  0.00000000000E+00 0. -1.
         -2   -1    0    0    0  501 -0.00000000000E+00 -0.00000000000E+00 -0.34089391234E+03  0.34089391234E+03  0.00000000000E+00 0.  1.
         23    2    1    2    0    0 -0.12772072701E+03  0.36351184775E+02 -0.29872675379E+03  0.33914557394E+03  0.90266572716E+02 0.  0.
         11    1    3    3    0    0 -0.22017785366E+02 -0.27861556716E+02 -0.86580121817E+02  0.93579734499E+02  0.00000000000E+00 0.  1.
        -11    1    3    3    0    0 -0.10570294165E+03  0.64212741492E+02 -0.21214663197E+03  0.24556583944E+03  0.00000000000E+00 0. -1.
         22    1    1    2    0    0  0.12772072701E+03 -0.36351184775E+02  0.17881411991E+03  0.22272961685E+03  0.00000000000E+00 0. -1.
<mgrwt>
<rscale>  0 0.54893050E+03</rscale>
<asrwt>0</asrwt>
<pdfrwt beam="1">  1        2 0.33997120E-01 0.54893050E+03</pdfrwt>
<pdfrwt beam="2">  1       -2 0.52445217E-01 0.54893050E+03</pdfrwt>
<totfact> 0.53444333E+02</totfact>
</mgrwt>
</event>
<event>
 6    1  0.9364335E-007  0.2126845E+04  0.7818608E-02  0.8549509E-01
         -2   -1    0    0    0  501 -0.00000000000E+00  0.00000000000E+00  0.50662614513E+03  0.50662614513E+03  0.00000000000E+00 0.  1.
          2   -1    0    0  501    0  0.00000000000E+00 -0.00000000000E+00 -0.22321531505E+04  0.22321531505E+04  0.00000000000E+00 0. -1.
         23    2    1    2    0    0 -0.39086365172E+03 -0.90187562580E+02 -0.21298480695E+04  0.21692323586E+04  0.91695342634E+02 0.  0.
         11    1    3    3    0    0 -0.74005719393E+02 -0.24272816327E+02 -0.63447591097E+03  0.63923837316E+03  0.00000000000E+00 0. -1.
        -11    1    3    3    0    0 -0.31685793233E+03 -0.65914746254E+02 -0.14953721585E+04  0.15299939854E+04  0.00000000000E+00 0.  1.
         22    1    1    2    0    0  0.39086365172E+03  0.90187562580E+02  0.40432106407E+03  0.56954693707E+03  0.00000000000E+00 0.  1.
<mgrwt>
<rscale>  0 0.21268447E+04</rscale>
<asrwt>0</asrwt>
<pdfrwt beam="1">  1        2 0.34340819E+00 0.21268447E+04</pdfrwt>
<pdfrwt beam="2">  1       -2 0.77942482E-01 0.21268447E+04</pdfrwt>
<totfact> 0.66740741E+00</totfact>
</mgrwt>
</event>
<event>
 6    1  0.9364335E-007  0.3838192E+04  0.7818608E-02  0.8038008E-01
          2   -1    0    0  501    0  0.00000000000E+00  0.00000000000E+00  0.20715944899E+04  0.20715944899E+04  0.00000000000E+00 0. -1.
         -2   -1    0    0    0  501 -0.00000000000E+00 -0.00000000000E+00 -0.17778235146E+04  0.17778235146E+04  0.00000000000E+00 0.  1.
         23    2    1    2    0    0  0.16726789370E+04  0.77779916042E+03  0.67372880122E+03  0.19660183364E+04  0.92147930376E+02 0.  0.
         11    1    3    3    0    0  0.19244331654E+03  0.61593517838E+02  0.88392733348E+02  0.22054810548E+03  0.00000000000E+00 0.  1.
        -11    1    3    3    0    0  0.14802356205E+04  0.71620564258E+03  0.58533606788E+03  0.17454702309E+04  0.00000000000E+00 0. -1.
         22    1    1    2    0    0 -0.16726789370E+04 -0.77779916042E+03 -0.37995782594E+03  0.18833996681E+04  0.00000000000E+00 0.  1.
<mgrwt>
<rscale>  0 0.38381920E+04</rscale>
<asrwt>0</asrwt>
<pdfrwt beam="1">  1        2 0.31870684E+00 0.38381920E+04</pdfrwt>
<pdfrwt beam="2">  1       -2 0.27351131E+00 0.38381920E+04</pdfrwt>
<totfact> 0.22474662E-01</totfact>
</mgrwt>
</event>
<event>
 6    1  0.9364335E-007  0.2466403E+04  0.7818608E-02  0.8415053E-01
         -3   -1    0    0    0  501 -0.00000000000E+00  0.00000000000E+00  0.11986533383E+04  0.11986533383E+04  0.00000000000E+00 0.  1.
          3   -1    0    0  501    0  0.00000000000E+00 -0.00000000000E+00 -0.12687451922E+04  0.12687451922E+04  0.00000000000E+00 0. -1.
         23    2    1    2    0    0  0.81681592525E+03 -0.75053887795E+03  0.50005342504E+03  0.12201766168E+04  0.90998270440E+02 0.  0.
         11    1    3    3    0    0  0.59834754554E+03 -0.51456429605E+03  0.31965922774E+03  0.85145652966E+03  0.00000000000E+00 0.  1.
        -11    1    3    3    0    0  0.21846837970E+03 -0.23597458190E+03  0.18039419730E+03  0.36872008713E+03  0.00000000000E+00 0. -1.
         22    1    1    2    0    0 -0.81681592525E+03  0.75053887795E+03 -0.57014527884E+03  0.12472219137E+04  0.00000000000E+00 0. -1.
<mgrwt>
<rscale>  0 0.24664028E+04</rscale>
<asrwt>0</asrwt>
<pdfrwt beam="1">  1        3 0.19519157E+00 0.24664028E+04</pdfrwt>
<pdfrwt beam="2">  1       -3 0.18440821E+00 0.24664028E+04</pdfrwt>
<totfact> 0.68003301E-02</totfact>
</mgrwt>
</event>
<event>
 6    1  0.9364335E-007  0.2755614E+04  0.7818608E-02  0.8317182E-01
         -1   -1    0    0    0  501 -0.00000000000E+00  0.00000000000E+00  0.14410566235E+04  0.14410566235E+04  0.00000000000E+00 0.  1.
          1   -1    0    0  501    0  0.00000000000E+00 -0.00000000000E+00 -0.13173335365E+04  0.13173335365E+04  0.00000000000E+00 0. -1.
         23    2    1    2    0    0  0.61596918844E+03 -0.11938393065E+03 -0.11642413627E+04  0.13257272591E+04  0.91783718219E+02 0.  0.
         13    1    3    3    0    0  0.12116524862E+03  0.96419326804E+01 -0.25726333170E+03  0.28453190713E+03  0.00000000000E+00 0. -1.
        -13    1    3    3    0    0  0.49480393982E+03 -0.12902586333E+03 -0.90697803096E+03  0.10411953519E+04  0.00000000000E+00 0.  1.
         22    1    1    2    0    0 -0.61596918844E+03  0.11938393065E+03  0.12879644497E+04  0.14326629009E+04  0.00000000000E+00 0.  1.
<mgrwt>
<rscale>  0 0.27556141E+04</rscale>
<asrwt>0</asrwt>
<pdfrwt beam="1">  1        1 0.20266670E+00 0.27556141E+04</pdfrwt>
<pdfrwt beam="2">  1       -1 0.22170102E+00 0.27556141E+04</pdfrwt>
<totfact> 0.81900593E-01</totfact>
</mgrwt>
</event>
<event>
 6    1  0.9364335E-007  0.1531207E+04  0.7818608E-02  0.8863962E-01
         -2   -1    0    0    0  501 -0.00000000000E+00  0.00000000000E+00  0.32940822653E+03  0.32940822653E+03  0.00000000000E+00 0.  1.
          2   -1    0    0  501    0  0.00000000000E+00 -0.00000000000E+00 -0.17793993047E+04  0.17793993047E+04  0.00000000000E+00 0. -1.
         23    2    1    2    0    0  0.33044928997E+03 -0.49810112618E+03 -0.74536981839E+02  0.60908241099E+03  0.90134103293E+02 0.  0.
         13    1    3    3    0    0  0.91235546045E+02 -0.20532275220E+03 -0.54619746201E+01  0.22474694792E+03  0.00000000000E+00 0.  1.
        -13    1    3    3    0    0  0.23921374392E+03 -0.29277837398E+03 -0.69075007219E+02  0.38433546307E+03  0.00000000000E+00 0. -1.
         22    1    1    2    0    0 -0.33044928997E+03  0.49810112618E+03 -0.13754540963E+04  0.14997251202E+04  0.00000000000E+00 0. -1.
<mgrwt>
<rscale>  0 0.15312071E+04</rscale>
<asrwt>0</asrwt>
<pdfrwt beam="1">  1        2 0.27375374E+00 0.15312071E+04</pdfrwt>
<pdfrwt beam="2">  1       -2 0.50678188E-01 0.15312071E+04</pdfrwt>
<totfact> 0.31435286E+01</totfact>
</mgrwt>
</event>
<event>
 6    1  0.9364335E-007  0.1355934E+04  0.7818608E-02  0.8986348E-01
         -1   -1    0    0    0  501 -0.00000000000E+00  0.00000000000E+00  0.13883478322E+04  0.13883478322E+04  0.00000000000E+00 0.  1.
          1   -1    0    0  501    0  0.00000000000E+00 -0.00000000000E+00 -0.33106944463E+03  0.33106944463E+03  0.00000000000E+00 0. -1.
         23    2    1    2    0    0  0.21308028568E+03  0.35636837571E+03 -0.14366779108E+03  0.44871929881E+03  0.91142457632E+02 0.  0.
         11    1    3    3    0    0  0.71725626270E+02  0.11927493629E+03 -0.94786912304E+02  0.16839131401E+03  0.00000000000E+00 0.  1.
        -11    1    3    3    0    0  0.14135465941E+03  0.23709343942E+03 -0.48880878773E+02  0.28032798480E+03  0.00000000000E+00 0. -1.
         22    1    1    2    0    0 -0.21308028568E+03 -0.35636837571E+03  0.12009461787E+04  0.12706979780E+04  0.00000000000E+00 0.  1.
<mgrwt>
<rscale>  0 0.13559344E+04</rscale>
<asrwt>0</asrwt>
<pdfrwt beam="1">  1        1 0.50933761E-01 0.13559344E+04</pdfrwt>
<pdfrwt beam="2">  1       -1 0.21359197E+00 0.13559344E+04</pdfrwt>
<totfact> 0.91650053E+00</totfact>
</mgrwt>
</event>
<event>
 6    1  0.9364335E-007  0.1044277E+04  0.7818608E-02  0.9261272E-01
          1   -1    0    0  501    0  0.00000000000E+00  0.00000000000E+00  0.75097043119E+03  0.75097043119E+03  0.00000000000E+00 0. -1.
         -1   -1    0    0    0  501 -0.00000000000E+00 -0.00000000000E+00 -0.36303538321E+03  0.36303538321E+03  0.00000000000E+00 0.  1.
         23    2    1    2    0    0  0.27686605043E+03  0.92653371618E+02  0.65223540366E+03  0.72018588707E+03  0.89539002576E+02 0.  0.
         13    1    3    3    0    0  0.27380210815E+03  0.77231885553E+02  0.57694439192E+03  0.64327069725E+03  0.00000000000E+00 0. -1.
        -13    1    3    3    0    0  0.30639422806E+01  0.15421486065E+02  0.75291011749E+02  0.76915189820E+02  0.00000000000E+00 0.  1.
         22    1    1    2    0    0 -0.27686605043E+03 -0.92653371618E+02 -0.26430035569E+03  0.39381992734E+03  0.00000000000E+00 0.  1.
<mgrwt>
<rscale>  0 0.10442774E+04</rscale>
<asrwt>0</asrwt>
<pdfrwt beam="1">  1        1 0.11553391E+00 0.10442774E+04</pdfrwt>
<pdfrwt beam="2">  1       -1 0.55851598E-01 0.10442774E+04</pdfrwt>
<totfact> 0.79254246E+01</totfact>
</mgrwt>
</event>
<event>
 6    1  0.9364335E-007  0.9955514E+03  0.7818608E-02  0.9313437E-01
         -1   -1    0    0    0  501 -0.00000000000E+00  0.00000000000E+00  0.91727307557E+03  0.91727307557E+03  0.00000000000E+00 0.  1.
          1   -1    0    0  501    0  0.00000000000E+00 -0.00000000000E+00 -0.27012744239E+03  0.27012744239E+03  0.00000000000E+00 0. -1.
         23    2    1    2    0    0  0.20454889568E+03  0.37603725047E+03  0.61815764967E+03  0.75834974282E+03  0.98646784624E+02 0.  0.
         11    1    3    3    0    0  0.14837507062E+03  0.19486975276E+03  0.29274129605E+03  0.38168946611E+03  0.00000000000E+00 0. -1.
        -11    1    3    3    0    0  0.56173825064E+02  0.18116749771E+03  0.32541635362E+03  0.37666027671E+03  0.00000000000E+00 0.  1.
         22    1    1    2    0    0 -0.20454889568E+03 -0.37603725047E+03  0.28987983513E+02  0.42905077515E+03  0.00000000000E+00 0. -1.
<mgrwt>
<rscale>  0 0.99555136E+03</rscale>
<asrwt>0</asrwt>
<pdfrwt beam="1">  1        1 0.41558069E-01 0.99555136E+03</pdfrwt>
<pdfrwt beam="2">  1       -1 0.14111893E+00 0.99555136E+03</pdfrwt>
<totfact> 0.41400697E+01</totfact>
</mgrwt>
</event>
<event>
 6    1  0.9364335E-007  0.1271484E+04  0.7818608E-02  0.9052490E-01
         -1   -1    0    0    0  501 -0.00000000000E+00  0.00000000000E+00  0.40923537933E+03  0.40923537933E+03  0.00000000000E+00 0.  1.
          1   -1    0    0  501    0  0.00000000000E+00 -0.00000000000E+00 -0.98761663545E+03  0.98761663545E+03  0.00000000000E+00 0. -1.
         23    2    1    2    0    0  0.52904621280E+03 -0.33572030850E+03 -0.19638190284E+03  0.66301175510E+03  0.91764452915E+02 0.  0.
         13    1    3    3    0    0  0.27828705377E+03 -0.22528187248E+03 -0.13153955301E+03  0.38144234213E+03  0.00000000000E+00 0.  1.
        -13    1    3    3    0    0  0.25075915903E+03 -0.11043843602E+03 -0.64842349825E+02  0.28156941297E+03  0.00000000000E+00 0. -1.
         22    1    1    2    0    0 -0.52904621280E+03  0.33572030850E+03 -0.38199935328E+03  0.73384025968E+03  0.00000000000E+00 0. -1.
<mgrwt>
<rscale>  0 0.12714837E+04</rscale>
<asrwt>0</asrwt>
<pdfrwt beam="1">  1        1 0.15194102E+00 0.12714837E+04</pdfrwt>
<pdfrwt beam="2">  1       -1 0.62959290E-01 0.12714837E+04</pdfrwt>
<totfact> 0.38986267E+01</totfact>
</mgrwt>
</event>
<event>
 6    1  0.9364335E-007  0.2229453E+04  0.7818608E-02  0.8506268E-01
          1   -1    0    0  501    0  0.00000000000E+00  0.00000000000E+00  0.31314796889E+04  0.31314796889E+04  0.00000000000E+00 0. -1.
         -1   -1    0    0    0  501 -0.00000000000E+00 -0.00000000000E+00 -0.39681421864E+03  0.39681421864E+03  0.00000000000E+00 0.  1.
         23    2    1    2    0    0 -0.66190836194E+03  0.88491152569E+03  0.11600431299E+04  0.16045926307E+04  0.88466712512E+02 0.  0.
         13    1    3    3    0    0 -0.46561026793E+03  0.58503919674E+03  0.83363073298E+03  0.11198231924E+04  0.00000000000E+00 0.  1.
        -13    1    3    3    0    0 -0.19629809402E+03  0.29987232895E+03  0.32641239696E+03  0.48476943827E+03  0.00000000000E+00 0. -1.
         22    1    1    2    0    0  0.66190836194E+03 -0.88491152569E+03  0.15746223403E+04  0.19237012768E+04  0.00000000000E+00 0.  1.
<mgrwt>
<rscale>  0 0.22294534E+04</rscale>
<asrwt>0</asrwt>
<pdfrwt beam="1">  1        1 0.48176609E+00 0.22294534E+04</pdfrwt>
<pdfrwt beam="2">  1       -1 0.61048344E-01 0.22294534E+04</pdfrwt>
<totfact> 0.11848684E+00</totfact>
</mgrwt>
</event>
<event>
 6    1  0.9364335E-007  0.3223724E+04  0.7818608E-02  0.8182580E-01
          2   -1    0    0  501    0  0.00000000000E+00  0.00000000000E+00  0.20183355535E+04  0.20183355535E+04  0.00000000000E+00 0. -1.
         -2   -1    0    0    0  501 -0.00000000000E+00 -0.00000000000E+00 -0.12872480359E+04  0.12872480359E+04  0.00000000000E+00 0.  1.
         23    2    1    2    0    0 -0.14237705892E+04  0.75097938712E+03  0.42055062256E+03  0.16662160608E+04  0.91216251032E+02 0.  0.
         11    1    3    3    0    0 -0.10115643374E+04  0.52186368310E+03  0.33865250242E+03  0.11875561586E+04  0.00000000000E+00 0. -1.
        -11    1    3    3    0    0 -0.41220625183E+03  0.22911570403E+03  0.81898120136E+02  0.47865990219E+03  0.00000000000E+00 0.  1.
         22    1    1    2    0    0  0.14237705892E+04 -0.75097938712E+03  0.31053689502E+03  0.16393675286E+04  0.00000000000E+00 0.  1.
<mgrwt>
<rscale>  0 0.32237236E+04</rscale>
<asrwt>0</asrwt>
<pdfrwt beam="1">  1        2 0.31051316E+00 0.32237236E+04</pdfrwt>
<pdfrwt beam="2">  1       -2 0.19803816E+00 0.32237236E+04</pdfrwt>
<totfact> 0.75153141E-01</totfact>
</mgrwt>
</event>
<event>
 6    1  0.9364335E-007  0.1778825E+04  0.7818608E-02  0.8717642E-01
          2   -1    0    0  501    0  0.00000000000E+00  0.00000000000E+00  0.23444496403E+04  0.23444496403E+04  0.00000000000E+00 0. -1.
         -2   -1    0    0    0  501 -0.00000000000E+00 -0.00000000000E+00 -0.33741602727E+03  0.33741602727E+03  0.00000000000E+00 0.  1.
         23    2    1    2    0    0  0.50196074757E+03  0.38515711655E+03  0.19440574700E+04  0.20460381822E+04  0.81253921484E+02 0.  0.
         13    1    3    3    0    0  0.25425861256E+03  0.24349915145E+03  0.11138383972E+04  0.11681503559E+04  0.00000000000E+00 0.  1.
        -13    1    3    3    0    0  0.24770213501E+03  0.14165796509E+03  0.83021907283E+03  0.87788782635E+03  0.00000000000E+00 0. -1.
         22    1    1    2    0    0 -0.50196074757E+03 -0.38515711655E+03  0.62976142970E+02  0.63582748534E+03  0.00000000000E+00 0.  1.
<mgrwt>
<rscale>  0 0.17788253E+04</rscale>
<asrwt>0</asrwt>
<pdfrwt beam="1">  1        2 0.36068455E+00 0.17788253E+04</pdfrwt>
<pdfrwt beam="2">  1       -2 0.51910160E-01 0.17788253E+04</pdfrwt>
<totfact> 0.14183808E+01</totfact>
</mgrwt>
</event>
<event>
 6    1  0.9364335E-007  0.1139101E+04  0.7818608E-02  0.9167898E-01
         -2   -1    0    0    0  501 -0.00000000000E+00  0.00000000000E+00  0.68100547159E+03  0.68100547159E+03  0.00000000000E+00 0.  1.
          2   -1    0    0  501    0  0.00000000000E+00 -0.00000000000E+00 -0.47633648972E+03  0.47633648972E+03  0.00000000000E+00 0. -1.
         23    2    1    2    0    0 -0.93779420058E+02  0.36462216588E+03 -0.32664896601E+03  0.50615637700E+03  0.88038784081E+02 0.  0.
         11    1    3    3    0    0 -0.48513301021E+02  0.27568472276E+03 -0.19583882663E+03  0.34162618862E+03  0.00000000000E+00 0. -1.
        -11    1    3    3    0    0 -0.45266119037E+02  0.88937443123E+02 -0.13081013938E+03  0.16453018837E+03  0.00000000000E+00 0.  1.
         22    1    1    2    0    0  0.93779420058E+02 -0.36462216588E+03  0.53131794788E+03  0.65118558432E+03  0.00000000000E+00 0.  1.
<mgrwt>
<rscale>  0 0.11391010E+04</rscale>
<asrwt>0</asrwt>
<pdfrwt beam="1">  1        2 0.73282537E-01 0.11391010E+04</pdfrwt>
<pdfrwt beam="2">  1       -2 0.10477007E+00 0.11391010E+04</pdfrwt>
<totfact> 0.47688145E+01</totfact>
</mgrwt>
</event>
<event>
 6    1  0.9364335E-007  0.3311408E+04  0.7818608E-02  0.8159999E-01
          2   -1    0    0  501    0  0.00000000000E+00  0.00000000000E+00  0.11876360124E+04  0.11876360124E+04  0.00000000000E+00 0. -1.
         -2   -1    0    0    0  501 -0.00000000000E+00 -0.00000000000E+00 -0.23082461758E+04  0.23082461758E+04  0.00000000000E+00 0.  1.
         23    2    1    2    0    0 -0.19599412109E+03 -0.15469550037E+04  0.22253986336E+02  0.15625891572E+04  0.98519821382E+02 0.  0.
         11    1    3    3    0    0 -0.17813945615E+02 -0.50360744214E+03  0.13333645104E+02  0.50409877854E+03  0.00000000000E+00 0.  1.
        -11    1    3    3    0    0 -0.17818017547E+03 -0.10433475616E+04  0.89203412316E+01  0.10584903786E+04  0.00000000000E+00 0. -1.
         22    1    1    2    0    0  0.19599412109E+03  0.15469550037E+04 -0.11428641497E+04  0.19332930310E+04  0.00000000000E+00 0. -1.
<mgrwt>
<rscale>  0 0.33114083E+04</rscale>
<asrwt>0</asrwt>
<pdfrwt beam="1">  1        2 0.18271323E+00 0.33114083E+04</pdfrwt>
<pdfrwt beam="2">  1       -2 0.35511479E+00 0.33114083E+04</pdfrwt>
<totfact> 0.23208003E-01</totfact>
</mgrwt>
</event>
<event>
 6    1  0.9364335E-007  0.1898735E+04  0.7818608E-02  0.8655486E-01
         -1   -1    0    0    0  501 -0.00000000000E+00  0.00000000000E+00  0.66359134768E+03  0.66359134768E+03  0.00000000000E+00 0.  1.
          1   -1    0    0  501    0  0.00000000000E+00 -0.00000000000E+00 -0.13582137953E+04  0.13582137953E+04  0.00000000000E+00 0. -1.
         23    2    1    2    0    0  0.85235378271E+03 -0.37265029567E+03 -0.16322507724E+03  0.95047028450E+03  0.10665890543E+03 0.  0.
         11    1    3    3    0    0  0.28960042048E+03 -0.17402419920E+03 -0.31520873738E+02  0.33933227216E+03  0.00000000000E+00 0. -1.
        -11    1    3    3    0    0  0.56275336223E+03 -0.19862609647E+03 -0.13170420350E+03  0.61113801233E+03  0.00000000000E+00 0.  1.
         22    1    1    2    0    0 -0.85235378271E+03  0.37265029567E+03 -0.53139737038E+03  0.10713348585E+04  0.00000000000E+00 0.  1.
<mgrwt>
<rscale>  0 0.18987353E+04</rscale>
<asrwt>0</asrwt>
<pdfrwt beam="1">  1        1 0.20895597E+00 0.18987353E+04</pdfrwt>
<pdfrwt beam="2">  1       -1 0.10209098E+00 0.18987353E+04</pdfrwt>
<totfact> 0.69921391E+00</totfact>
</mgrwt>
</event>
<event>
 6    1  0.9364335E-007  0.1849292E+04  0.7818608E-02  0.8680517E-01
         -1   -1    0    0    0  501 -0.00000000000E+00  0.00000000000E+00  0.30791462623E+03  0.30791462623E+03  0.00000000000E+00 0.  1.
          1   -1    0    0  501    0  0.00000000000E+00 -0.00000000000E+00 -0.27766465591E+04  0.27766465591E+04  0.00000000000E+00 0. -1.
         23    2    1    2    0    0  0.99619831489E+02  0.27137690971E+03 -0.26982234032E+04  0.27154597454E+04  0.98704392198E+02 0.  0.
         13    1    3    3    0    0  0.78995062329E+02  0.78376856391E+02 -0.10154737872E+04  0.10215528199E+04  0.00000000000E+00 0. -1.
        -13    1    3    3    0    0  0.20624769160E+02  0.19300005332E+03 -0.16827496161E+04  0.16939069254E+04  0.00000000000E+00 0.  1.
         22    1    1    2    0    0 -0.99619831489E+02 -0.27137690971E+03  0.22949147041E+03  0.36910143991E+03  0.00000000000E+00 0.  1.
<mgrwt>
<rscale>  0 0.18492919E+04</rscale>
<asrwt>0</asrwt>
<pdfrwt beam="1">  1        1 0.42717638E+00 0.18492919E+04</pdfrwt>
<pdfrwt beam="2">  1       -1 0.47371482E-01 0.18492919E+04</pdfrwt>
<totfact> 0.36249325E+00</totfact>
</mgrwt>
</event>
<event>
 6    1  0.9364335E-007  0.3383458E+04  0.7818608E-02  0.8141978E-01
         -2   -1    0    0    0  501 -0.00000000000E+00  0.00000000000E+00  0.93435338532E+03  0.93435338532E+03  0.00000000000E+00 0.  1.
          2   -1    0    0  501    0  0.00000000000E+00 -0.00000000000E+00 -0.30630235368E+04  0.30630235368E+04  0.00000000000E+00 0. -1.
         23    2    1    2    0    0 -0.93779827162E+03  0.27957136248E+03 -0.26937017745E+04  0.28673829044E+04  0.90717833484E+02 0.  0.
         11    1    3    3    0    0 -0.89746090011E+02  0.35148286879E+02 -0.34941470534E+03  0.36246434176E+03  0.00000000000E+00 0. -1.
        -11    1    3    3    0    0 -0.84805218161E+03  0.24442307561E+03 -0.23442870692E+04  0.25049185626E+04  0.00000000000E+00 0.  1.
         22    1    1    2    0    0  0.93779827162E+03 -0.27957136248E+03  0.56503162307E+03  0.11299940177E+04  0.00000000000E+00 0.  1.
<mgrwt>
<rscale>  0 0.33834576E+04</rscale>
<asrwt>0</asrwt>
<pdfrwt beam="1">  1        2 0.47123439E+00 0.33834576E+04</pdfrwt>
<pdfrwt beam="2">  1       -2 0.14374668E+00 0.33834576E+04</pdfrwt>
<totfact> 0.44145879E-01</totfact>
</mgrwt>
</event>
<event>
 6    1  0.9364335E-007  0.4018176E+04  0.7818608E-02  0.8000890E-01
          2   -1    0    0  501    0  0.00000000000E+00  0.00000000000E+00  0.82446657081E+03  0.82446657081E+03  0.00000000000E+00 0. -1.
         -2   -1    0    0    0  501 -0.00000000000E+00 -0.00000000000E+00 -0.48958131479E+04  0.48958131479E+04  0.00000000000E+00 0.  1.
         23    2    1    2    0    0  0.63317170861E+03 -0.12256046104E+04  0.41036624234E+02  0.13826872219E+04  0.84420823162E+02 0.  0.
         11    1    3    3    0    0  0.32898908445E+03 -0.60356335577E+03 -0.18928678989E+02  0.68766331660E+03  0.00000000000E+00 0. -1.
        -11    1    3    3    0    0  0.30418262416E+03 -0.62204125468E+03  0.59965303223E+02  0.69502390531E+03  0.00000000000E+00 0.  1.
         22    1    1    2    0    0 -0.63317170861E+03  0.12256046104E+04 -0.41123832013E+04  0.43375924967E+04  0.00000000000E+00 0.  1.
<mgrwt>
<rscale>  0 0.40181758E+04</rscale>
<asrwt>0</asrwt>
<pdfrwt beam="1">  1        2 0.12684101E+00 0.40181758E+04</pdfrwt>
<pdfrwt beam="2">  1       -2 0.75320204E+00 0.40181758E+04</pdfrwt>
<totfact> 0.36134025E-03</totfact>
</mgrwt>
</event>
<event>
 6    1  0.9364335E-007  0.1717130E+04  0.7818608E-02  0.8751654E-01
          1   -1    0    0  501    0  0.00000000000E+00  0.00000000000E+00  0.21295277588E+04  0.21295277588E+04  0.00000000000E+00 0. -1.
         -1   -1    0    0    0  501 -0.00000000000E+00 -0.00000000000E+00 -0.34614909834E+03  0.34614909834E+03  0.00000000000E+00 0.  1.
         23    2    1    2    0    0 -0.34499433887E+02  0.73629502385E+03  0.26666543224E+03  0.78933774838E+03  0.92860406961E+02 0.  0.
         11    1    3    3    0    0 -0.62752216878E+02  0.57187576217E+03  0.22177910565E+03  0.61657578592E+03  0.00000000000E+00 0. -1.
        -11    1    3    3    0    0  0.28252782991E+02  0.16441926168E+03  0.44886326591E+02  0.17276196246E+03  0.00000000000E+00 0.  1.
         22    1    1    2    0    0  0.34499433887E+02 -0.73629502385E+03  0.15167132282E+04  0.16863391088E+04  0.00000000000E+00 0. -1.
<mgrwt>
<rscale>  0 0.17171303E+04</rscale>
<asrwt>0</asrwt>
<pdfrwt beam="1">  1        1 0.32761965E+00 0.17171303E+04</pdfrwt>
<pdfrwt beam="2">  1       -1 0.53253709E-01 0.17171303E+04</pdfrwt>
<totfact> 0.82272300E+00</totfact>
</mgrwt>
</event>
<event>
 6    1  0.9364335E-007  0.8163092E+03  0.7818608E-02  0.9536706E-01
         -1   -1    0    0    0  501 -0.00000000000E+00  0.00000000000E+00  0.58268519236E+03  0.58268519236E+03  0.00000000000E+00 0.  1.
          1   -1    0    0  501    0  0.00000000000E+00 -0.00000000000E+00 -0.28590081205E+03  0.28590081205E+03  0.00000000000E+00 0. -1.
         23    2    1    2    0    0 -0.25783205477E+03  0.14273732335E+03  0.44267179903E+03  0.53974797303E+03  0.92294316162E+02 0.  0.
         13    1    3    3    0    0 -0.11436331047E+03  0.90283941736E+02  0.14716389850E+03  0.20709266027E+03  0.00000000000E+00 0.  1.
        -13    1    3    3    0    0 -0.14346874430E+03  0.52453381617E+02  0.29550790053E+03  0.33265531276E+03  0.00000000000E+00 0. -1.
         22    1    1    2    0    0  0.25783205477E+03 -0.14273732335E+03 -0.14588741872E+03  0.32883803138E+03  0.00000000000E+00 0. -1.
<mgrwt>
<rscale>  0 0.81630918E+03</rscale>
<asrwt>0</asrwt>
<pdfrwt beam="1">  1        1 0.43984741E-01 0.81630918E+03</pdfrwt>
<pdfrwt beam="2">  1       -1 0.89643875E-01 0.81630918E+03</pdfrwt>
<totfact> 0.11513968E+02</totfact>
</mgrwt>
</event>
<event>
 6    1  0.9364335E-007  0.1716314E+04  0.7818608E-02  0.8752114E-01
         -2   -1    0    0    0  501 -0.00000000000E+00  0.00000000000E+00  0.59219170197E+03  0.59219170197E+03  0.00000000000E+00 0.  1.
          2   -1    0    0  501    0  0.00000000000E+00 -0.00000000000E+00 -0.12435720240E+04  0.12435720240E+04  0.00000000000E+00 0. -1.
         23    2    1    2    0    0  0.51014709666E+03  0.35549157258E+03  0.30221176726E+03  0.69736037426E+03  0.91406897502E+02 0.  0.
         11    1    3    3    0    0  0.33935815608E+03  0.28666055757E+03  0.20771983109E+03  0.49039347630E+03  0.00000000000E+00 0. -1.
        -11    1    3    3    0    0  0.17078894058E+03  0.68831015009E+02  0.94491936168E+02  0.20696689797E+03  0.00000000000E+00 0.  1.
         22    1    1    2    0    0 -0.51014709666E+03 -0.35549157258E+03 -0.95359208925E+03  0.11384033517E+04  0.00000000000E+00 0. -1.
<mgrwt>
<rscale>  0 0.17163135E+04</rscale>
<asrwt>0</asrwt>
<pdfrwt beam="1">  1        2 0.19131877E+00 0.17163135E+04</pdfrwt>
<pdfrwt beam="2">  1       -2 0.91106417E-01 0.17163135E+04</pdfrwt>
<totfact> 0.17423511E+01</totfact>
</mgrwt>
</event>
<event>
 6    1  0.9364335E-007  0.3419697E+04  0.7818608E-02  0.8133089E-01
          1   -1    0    0  501    0  0.00000000000E+00  0.00000000000E+00  0.19573323380E+04  0.19573323380E+04  0.00000000000E+00 0. -1.
         -1   -1    0    0    0  501 -0.00000000000E+00 -0.00000000000E+00 -0.14936566235E+04  0.14936566235E+04  0.00000000000E+00 0.  1.
         23    2    1    2    0    0 -0.44013584032E+03  0.11230487391E+03  0.18942125591E+04  0.19500667094E+04  0.91580616407E+02 0.  0.
         11    1    3    3    0    0 -0.21050087435E+03  0.89686143270E+02  0.81822580392E+03  0.84961620076E+03  0.00000000000E+00 0.  1.
        -11    1    3    3    0    0 -0.22963496597E+03  0.22618730644E+02  0.10759867552E+04  0.11004505087E+04  0.00000000000E+00 0. -1.
         22    1    1    2    0    0  0.44013584032E+03 -0.11230487391E+03 -0.14305368447E+04  0.15009222520E+04  0.00000000000E+00 0.  1.
<mgrwt>
<rscale>  0 0.34196973E+04</rscale>
<asrwt>0</asrwt>
<pdfrwt beam="1">  1        1 0.30112805E+00 0.34196973E+04</pdfrwt>
<pdfrwt beam="2">  1       -1 0.22979333E+00 0.34196973E+04</pdfrwt>
<totfact> 0.24776676E-01</totfact>
</mgrwt>
</event>
<event>
 6    1  0.9364335E-007  0.1653494E+04  0.7818608E-02  0.8788342E-01
          1   -1    0    0  501    0  0.00000000000E+00  0.00000000000E+00  0.19743456646E+04  0.19743456646E+04  0.00000000000E+00 0. -1.
         -1   -1    0    0    0  501 -0.00000000000E+00 -0.00000000000E+00 -0.34619618217E+03  0.34619618217E+03  0.00000000000E+00 0.  1.
         23    2    1    2    0    0 -0.15175717268E+03  0.80985439039E+03  0.84856074614E+03  0.11862345820E+04  0.90569148453E+02 0.  0.
         13    1    3    3    0    0 -0.46117530711E+02  0.21484340326E+03  0.17177535796E+03  0.27891089646E+03  0.00000000000E+00 0. -1.
        -13    1    3    3    0    0 -0.10563964197E+03  0.59501098713E+03  0.67678538819E+03  0.90732368559E+03  0.00000000000E+00 0.  1.
         22    1    1    2    0    0  0.15175717268E+03 -0.80985439039E+03  0.77958873633E+03  0.11343072648E+04  0.00000000000E+00 0.  1.
<mgrwt>
<rscale>  0 0.16534944E+04</rscale>
<asrwt>0</asrwt>
<pdfrwt beam="1">  1        1 0.30374548E+00 0.16534944E+04</pdfrwt>
<pdfrwt beam="2">  1       -1 0.53260952E-01 0.16534944E+04</pdfrwt>
<totfact> 0.10539501E+01</totfact>
</mgrwt>
</event>
<event>
 6    1  0.9364335E-007  0.2765656E+04  0.7818608E-02  0.8314011E-01
          1   -1    0    0  501    0  0.00000000000E+00  0.00000000000E+00  0.21453915413E+04  0.21453915413E+04  0.00000000000E+00 0. -1.
         -1   -1    0    0    0  501 -0.00000000000E+00 -0.00000000000E+00 -0.89131195350E+03  0.89131195350E+03  0.00000000000E+00 0.  1.
         23    2    1    2    0    0 -0.11711405937E+04 -0.72572801897E+03  0.51748025393E+03  0.14743878972E+04  0.88217971722E+02 0.  0.
         13    1    3    3    0    0 -0.72263555701E+03 -0.47828857709E+03  0.28891747995E+03  0.91347436825E+03  0.00000000000E+00 0. -1.
        -13    1    3    3    0    0 -0.44850503669E+03 -0.24743944189E+03  0.22856277397E+03  0.56091352897E+03  0.00000000000E+00 0.  1.
         22    1    1    2    0    0  0.11711405937E+04  0.72572801897E+03  0.73659933386E+03  0.15623155976E+04  0.00000000000E+00 0. -1.
<mgrwt>
<rscale>  0 0.27656559E+04</rscale>
<asrwt>0</asrwt>
<pdfrwt beam="1">  1        1 0.33006024E+00 0.27656559E+04</pdfrwt>
<pdfrwt beam="2">  1       -1 0.13712492E+00 0.27656559E+04</pdfrwt>
<totfact> 0.91166123E-01</totfact>
</mgrwt>
</event>
<event>
 6    1  0.9364335E-007  0.1906751E+04  0.7818608E-02  0.8651503E-01
          2   -1    0    0  501    0  0.00000000000E+00  0.00000000000E+00  0.57350948522E+03  0.57350948522E+03  0.00000000000E+00 0. -1.
         -2   -1    0    0    0  501 -0.00000000000E+00 -0.00000000000E+00 -0.15848465863E+04  0.15848465863E+04  0.00000000000E+00 0.  1.
         23    2    1    2    0    0  0.39984359740E+03  0.36910569567E+03  0.37480781577E+03  0.66922489952E+03  0.10614683428E+03 0.  0.
         13    1    3    3    0    0  0.17261363414E+03  0.22300435506E+03  0.16116101532E+03  0.32480653000E+03  0.00000000000E+00 0. -1.
        -13    1    3    3    0    0  0.22722996325E+03  0.14610134061E+03  0.21364680044E+03  0.34441836952E+03  0.00000000000E+00 0.  1.
         22    1    1    2    0    0 -0.39984359740E+03 -0.36910569567E+03 -0.13861449169E+04  0.14891311720E+04  0.00000000000E+00 0.  1.
<mgrwt>
<rscale>  0 0.19067507E+04</rscale>
<asrwt>0</asrwt>
<pdfrwt beam="1">  1        2 0.88232230E-01 0.19067507E+04</pdfrwt>
<pdfrwt beam="2">  1       -2 0.24382255E+00 0.19067507E+04</pdfrwt>
<totfact> 0.34379562E+00</totfact>
</mgrwt>
</event>
<event>
 6    1  0.9364335E-007  0.1598676E+04  0.7818608E-02  0.8821362E-01
         -2   -1    0    0    0  501 -0.00000000000E+00  0.00000000000E+00  0.54837284183E+03  0.54837284183E+03  0.00000000000E+00 0.  1.
          2   -1    0    0  501    0  0.00000000000E+00 -0.00000000000E+00 -0.11651578257E+04  0.11651578257E+04  0.00000000000E+00 0. -1.
         23    2    1    2    0    0 -0.12704415269E+03  0.33673063608E+03 -0.10713260007E+04  0.11337589245E+04  0.90233924330E+02 0.  0.
         11    1    3    3    0    0  0.18729660702E+01  0.97421247255E+02 -0.23622385145E+03  0.25553104588E+03  0.00000000000E+00 0. -1.
        -11    1    3    3    0    0 -0.12891711876E+03  0.23930938883E+03 -0.83510214929E+03  0.87822787865E+03  0.00000000000E+00 0.  1.
         22    1    1    2    0    0  0.12704415269E+03 -0.33673063608E+03  0.45454101685E+03  0.57977174302E+03  0.00000000000E+00 0.  1.
<mgrwt>
<rscale>  0 0.15986756E+04</rscale>
<asrwt>0</asrwt>
<pdfrwt beam="1">  1        2 0.17925505E+00 0.15986756E+04</pdfrwt>
<pdfrwt beam="2">  1       -2 0.84365054E-01 0.15986756E+04</pdfrwt>
<totfact> 0.23368601E+01</totfact>
</mgrwt>
</event>
<event>
 6    1  0.9364335E-007  0.9523940E+03  0.7818608E-02  0.9362357E-01
         -1   -1    0    0    0  501 -0.00000000000E+00  0.00000000000E+00  0.75618003438E+03  0.75618003438E+03  0.00000000000E+00 0.  1.
          1   -1    0    0  501    0  0.00000000000E+00 -0.00000000000E+00 -0.29988039809E+03  0.29988039809E+03  0.00000000000E+00 0. -1.
         23    2    1    2    0    0 -0.53066308815E+02 -0.29757187450E+03  0.63199722199E+03  0.70643964468E+03  0.90947398796E+02 0.  0.
         11    1    3    3    0    0 -0.61582405866E+02 -0.24807592096E+03  0.44881006580E+03  0.51649252699E+03  0.00000000000E+00 0.  1.
        -11    1    3    3    0    0  0.85160970510E+01 -0.49495953539E+02  0.18318715620E+03  0.18994711770E+03  0.00000000000E+00 0. -1.
         22    1    1    2    0    0  0.53066308815E+02  0.29757187450E+03 -0.17569758570E+03  0.34962078778E+03  0.00000000000E+00 0. -1.
<mgrwt>
<rscale>  0 0.95239397E+03</rscale>
<asrwt>0</asrwt>
<pdfrwt beam="1">  1        1 0.46135446E-01 0.95239397E+03</pdfrwt>
<pdfrwt beam="2">  1       -1 0.11633539E+00 0.95239397E+03</pdfrwt>
<totfact> 0.58896084E+01</totfact>
</mgrwt>
</event>
<event>
 6    1  0.9364335E-007  0.1662555E+04  0.7818608E-02  0.8783013E-01
         -2   -1    0    0    0  501 -0.00000000000E+00  0.00000000000E+00  0.18408887748E+03  0.18408887748E+03  0.00000000000E+00 0.  1.
          2   -1    0    0  501    0  0.00000000000E+00 -0.00000000000E+00 -0.37537435212E+04  0.37537435212E+04  0.00000000000E+00 0. -1.
         23    2    1    2    0    0 -0.73817075032E+03 -0.35946412985E+03 -0.15220893117E+04  0.17317874522E+04  0.90671877469E+02 0.  0.
         11    1    3    3    0    0 -0.53138784602E+03 -0.23330585160E+03 -0.99906947827E+03  0.11553979772E+04  0.00000000000E+00 0.  1.
        -11    1    3    3    0    0 -0.20678290429E+03 -0.12615827825E+03 -0.52301983348E+03  0.57638947500E+03  0.00000000000E+00 0. -1.
         22    1    1    2    0    0  0.73817075032E+03  0.35946412985E+03 -0.20475653320E+04  0.22060449465E+04  0.00000000000E+00 0.  1.
<mgrwt>
<rscale>  0 0.16625552E+04</rscale>
<asrwt>0</asrwt>
<pdfrwt beam="1">  1        2 0.57749904E+00 0.16625552E+04</pdfrwt>
<pdfrwt beam="2">  1       -2 0.28321364E-01 0.16625552E+04</pdfrwt>
<totfact> 0.58810768E+00</totfact>
</mgrwt>
</event>
<event>
 6    1  0.9364335E-007  0.2062498E+04  0.7818608E-02  0.8577946E-01
         -2   -1    0    0    0  501 -0.00000000000E+00  0.00000000000E+00  0.62796885753E+03  0.62796885753E+03  0.00000000000E+00 0.  1.
          2   -1    0    0  501    0  0.00000000000E+00 -0.00000000000E+00 -0.16935140481E+04  0.16935140481E+04  0.00000000000E+00 0. -1.
         23    2    1    2    0    0  0.76344601947E+03 -0.68113808880E+03 -0.40776675470E+03  0.11051476758E+04  0.90987572837E+02 0.  0.
         11    1    3    3    0    0  0.12694791268E+03 -0.12567868645E+03 -0.10803296382E+03  0.20876308589E+03  0.00000000000E+00 0. -1.
        -11    1    3    3    0    0  0.63649810679E+03 -0.55545940234E+03 -0.29973379089E+03  0.89638458990E+03  0.00000000000E+00 0.  1.
         22    1    1    2    0    0 -0.76344601947E+03  0.68113808880E+03 -0.65777843587E+03  0.12163352298E+04  0.00000000000E+00 0. -1.
<mgrwt>
<rscale>  0 0.20624976E+04</rscale>
<asrwt>0</asrwt>
<pdfrwt beam="1">  1        2 0.26054062E+00 0.20624976E+04</pdfrwt>
<pdfrwt beam="2">  1       -2 0.96610596E-01 0.20624976E+04</pdfrwt>
<totfact> 0.81904402E+00</totfact>
</mgrwt>
</event>
<event>
 6    1  0.9364335E-007  0.2427037E+04  0.7818608E-02  0.8429450E-01
         -2   -1    0    0    0  501 -0.00000000000E+00  0.00000000000E+00  0.12105032262E+04  0.12105032262E+04  0.00000000000E+00 0.  1.
          2   -1    0    0  501    0  0.00000000000E+00 -0.00000000000E+00 -0.12165414775E+04  0.12165414775E+04  0.00000000000E+00 0. -1.
         23    2    1    2    0    0 -0.11132692378E+04 -0.46944061819E+03 -0.97747023707E+02  0.12153709073E+04  0.88482042099E+02 0.  0.
         11    1    3    3    0    0 -0.44428695220E+03 -0.17555069641E+03 -0.80707087233E+02  0.48448176109E+03  0.00000000000E+00 0. -1.
        -11    1    3    3    0    0 -0.66898228564E+03 -0.29388992178E+03 -0.17039936474E+02  0.73088914621E+03  0.00000000000E+00 0.  1.
         22    1    1    2    0    0  0.11132692378E+04  0.46944061819E+03  0.91708772428E+02  0.12116737964E+04  0.00000000000E+00 0. -1.
<mgrwt>
<rscale>  0 0.24270372E+04</rscale>
<asrwt>0</asrwt>
<pdfrwt beam="1">  1        2 0.18716023E+00 0.24270372E+04</pdfrwt>
<pdfrwt beam="2">  1       -2 0.18623127E+00 0.24270372E+04</pdfrwt>
<totfact> 0.27302826E+00</totfact>
</mgrwt>
</event>
<event>
 6    1  0.9364335E-007  0.1161567E+04  0.7818608E-02  0.9147178E-01
         -1   -1    0    0    0  501 -0.00000000000E+00  0.00000000000E+00  0.73644366947E+03  0.73644366947E+03  0.00000000000E+00 0.  1.
          1   -1    0    0  501    0  0.00000000000E+00 -0.00000000000E+00 -0.45802495945E+03  0.45802495945E+03  0.00000000000E+00 0. -1.
         23    2    1    2    0    0 -0.38596364286E+03 -0.34125035449E+03  0.40671551768E+03  0.66354508555E+03  0.97235951056E+02 0.  0.
         13    1    3    3    0    0 -0.10439759920E+03 -0.15352507780E+03  0.13496820342E+03  0.22953262114E+03  0.00000000000E+00 0. -1.
        -13    1    3    3    0    0 -0.28156604367E+03 -0.18772527669E+03  0.27174731427E+03  0.43401246441E+03  0.00000000000E+00 0.  1.
         22    1    1    2    0    0  0.38596364286E+03  0.34125035449E+03 -0.12829680766E+03  0.53092354337E+03  0.00000000000E+00 0.  1.
<mgrwt>
<rscale>  0 0.11615672E+04</rscale>
<asrwt>0</asrwt>
<pdfrwt beam="1">  1        1 0.70465379E-01 0.11615672E+04</pdfrwt>
<pdfrwt beam="2">  1       -1 0.11329903E+00 0.11615672E+04</pdfrwt>
<totfact> 0.35305580E+01</totfact>
</mgrwt>
</event>
<event>
 6    1  0.9364335E-007  0.2812703E+04  0.7818608E-02  0.8299336E-01
         -1   -1    0    0    0  501 -0.00000000000E+00  0.00000000000E+00  0.69233699468E+03  0.69233699468E+03  0.00000000000E+00 0.  1.
          1   -1    0    0  501    0  0.00000000000E+00 -0.00000000000E+00 -0.28567359366E+04  0.28567359366E+04  0.00000000000E+00 0. -1.
         23    2    1    2    0    0 -0.10611951613E+04  0.93626911620E+02  0.72158749141E+02  0.10717575548E+04  0.92499742811E+02 0.  0.
         13    1    3    3    0    0 -0.79536856638E+03  0.43612667210E+02  0.23397496968E+02  0.79690693559E+03  0.00000000000E+00 0. -1.
        -13    1    3    3    0    0 -0.26582659488E+03  0.50014244410E+02  0.48761252173E+02  0.27485061925E+03  0.00000000000E+00 0.  1.
         22    1    1    2    0    0  0.10611951613E+04 -0.93626911620E+02 -0.22365576911E+04  0.24773153764E+04  0.00000000000E+00 0. -1.
<mgrwt>
<rscale>  0 0.28127026E+04</rscale>
<asrwt>0</asrwt>
<pdfrwt beam="1">  1        1 0.43949783E+00 0.28127026E+04</pdfrwt>
<pdfrwt beam="2">  1       -1 0.10651339E+00 0.28127026E+04</pdfrwt>
<totfact> 0.54009955E-01</totfact>
</mgrwt>
</event>
<event>
 6    1  0.9364335E-007  0.2707500E+04  0.7818608E-02  0.8332576E-01
          2   -1    0    0  501    0  0.00000000000E+00  0.00000000000E+00  0.13528515782E+04  0.13528515782E+04  0.00000000000E+00 0. -1.
         -2   -1    0    0    0  501 -0.00000000000E+00 -0.00000000000E+00 -0.13546485279E+04  0.13546485279E+04  0.00000000000E+00 0.  1.
         23    2    1    2    0    0 -0.32846041437E+03  0.12155681900E+04 -0.49402613514E+03  0.13555452847E+04  0.89156762089E+02 0.  0.
         13    1    3    3    0    0 -0.13312839310E+03  0.64123986484E+03 -0.23286404219E+03  0.69508085534E+03  0.00000000000E+00 0. -1.
        -13    1    3    3    0    0 -0.19533202127E+03  0.57432832517E+03 -0.26116209295E+03  0.66046442934E+03  0.00000000000E+00 0.  1.
         22    1    1    2    0    0  0.32846041437E+03 -0.12155681900E+04  0.49222918544E+03  0.13519548215E+04  0.00000000000E+00 0.  1.
<mgrwt>
<rscale>  0 0.27074995E+04</rscale>
<asrwt>0</asrwt>
<pdfrwt beam="1">  1        2 0.20813101E+00 0.27074995E+04</pdfrwt>
<pdfrwt beam="2">  1       -2 0.20840747E+00 0.27074995E+04</pdfrwt>
<totfact> 0.15835250E+00</totfact>
</mgrwt>
</event>
<event>
 6    1  0.9364335E-007  0.2834137E+04  0.7818608E-02  0.8292748E-01
         -2   -1    0    0    0  501 -0.00000000000E+00  0.00000000000E+00  0.59301764957E+03  0.59301764957E+03  0.00000000000E+00 0.  1.
          2   -1    0    0  501    0  0.00000000000E+00 -0.00000000000E+00 -0.33862113126E+04  0.33862113126E+04  0.00000000000E+00 0. -1.
         23    2    1    2    0    0  0.13656998496E+04 -0.48991384738E+01 -0.19214495501E+04  0.23590135817E+04  0.88411675529E+02 0.  0.
         13    1    3    3    0    0  0.84621380668E+03 -0.13717133569E+02 -0.11179950771E+04  0.14022050345E+04  0.00000000000E+00 0. -1.
        -13    1    3    3    0    0  0.51948604287E+03  0.88179950949E+01 -0.80345447299E+03  0.95680854717E+03  0.00000000000E+00 0.  1.
         22    1    1    2    0    0 -0.13656998496E+04  0.48991384738E+01 -0.87174411287E+03  0.16202153804E+04  0.00000000000E+00 0.  1.
<mgrwt>
<rscale>  0 0.28341370E+04</rscale>
<asrwt>0</asrwt>
<pdfrwt beam="1">  1        2 0.52095560E+00 0.28341370E+04</pdfrwt>
<pdfrwt beam="2">  1       -2 0.91233483E-01 0.28341370E+04</pdfrwt>
<totfact> 0.86542741E-01</totfact>
</mgrwt>
</event>
<event>
 6    1  0.9364335E-007  0.2780104E+04  0.7818608E-02  0.8309472E-01
          2   -1    0    0  501    0  0.00000000000E+00  0.00000000000E+00  0.40565911000E+04  0.40565911000E+04  0.00000000000E+00 0. -1.
         -2   -1    0    0    0  501 -0.00000000000E+00 -0.00000000000E+00 -0.47632224391E+03  0.47632224391E+03  0.00000000000E+00 0.  1.
         23    2    1    2    0    0 -0.11998434089E+04  0.69132857405E+03  0.16249753448E+04  0.21369308485E+04  0.91483204109E+02 0.  0.
         13    1    3    3    0    0 -0.92268828895E+03  0.54508494635E+03  0.13117519772E+04  0.16938608346E+04  0.00000000000E+00 0. -1.
        -13    1    3    3    0    0 -0.27715511998E+03  0.14624362770E+03  0.31322336768E+03  0.44307001392E+03  0.00000000000E+00 0.  1.
         22    1    1    2    0    0  0.11998434089E+04 -0.69132857405E+03  0.19552935113E+04  0.23959824954E+04  0.00000000000E+00 0.  1.
<mgrwt>
<rscale>  0 0.27801040E+04</rscale>
<asrwt>0</asrwt>
<pdfrwt beam="1">  1        2 0.62409092E+00 0.27801040E+04</pdfrwt>
<pdfrwt beam="2">  1       -2 0.73280348E-01 0.27801040E+04</pdfrwt>
<totfact> 0.45099750E-01</totfact>
</mgrwt>
</event>
<event>
 6    1  0.9364335E-007  0.1719239E+04  0.7818608E-02  0.8750467E-01
          1   -1    0    0  501    0  0.00000000000E+00  0.00000000000E+00  0.23473116989E+04  0.23473116989E+04  0.00000000000E+00 0. -1.
         -1   -1    0    0    0  501 -0.00000000000E+00 -0.00000000000E+00 -0.31480505340E+03  0.31480505340E+03  0.00000000000E+00 0.  1.
         23    2    1    2    0    0 -0.16644791543E+03 -0.49756421842E+03  0.20687111866E+04  0.21362024733E+04  0.92303701815E+02 0.  0.
         11    1    3    3    0    0 -0.14747801333E+03 -0.30573086038E+03  0.12738256776E+04  0.13182765190E+04  0.00000000000E+00 0.  1.
        -11    1    3    3    0    0 -0.18969902100E+02 -0.19183335804E+03  0.79488550900E+03  0.81792595439E+03  0.00000000000E+00 0. -1.
         22    1    1    2    0    0  0.16644791543E+03  0.49756421842E+03 -0.36204541150E+02  0.52591427895E+03  0.00000000000E+00 0.  1.
<mgrwt>
<rscale>  0 0.17192389E+04</rscale>
<asrwt>0</asrwt>
<pdfrwt beam="1">  1        1 0.36112487E+00 0.17192389E+04</pdfrwt>
<pdfrwt beam="2">  1       -1 0.48431548E-01 0.17192389E+04</pdfrwt>
<totfact> 0.70043432E+00</totfact>
</mgrwt>
</event>
<event>
 6    1  0.9364335E-007  0.1682519E+04  0.7818608E-02  0.8771398E-01
         -1   -1    0    0    0  501 -0.00000000000E+00  0.00000000000E+00  0.81825570163E+03  0.81825570163E+03  0.00000000000E+00 0.  1.
          1   -1    0    0  501    0  0.00000000000E+00 -0.00000000000E+00 -0.86490972192E+03  0.86490972192E+03  0.00000000000E+00 0. -1.
         23    2    1    2    0    0 -0.22916727530E+03  0.33552135671E+03  0.71065514259E+03  0.82374155313E+03  0.91799748264E+02 0.  0.
         13    1    3    3    0    0 -0.13134075940E+03  0.11330816720E+03  0.31166151476E+03  0.35668198106E+03  0.00000000000E+00 0. -1.
        -13    1    3    3    0    0 -0.97826515901E+02  0.22221318951E+03  0.39899362783E+03  0.46705957207E+03  0.00000000000E+00 0.  1.
         22    1    1    2    0    0  0.22916727530E+03 -0.33552135671E+03 -0.75730916288E+03  0.85942387042E+03  0.00000000000E+00 0. -1.
<mgrwt>
<rscale>  0 0.16825187E+04</rscale>
<asrwt>0</asrwt>
<pdfrwt beam="1">  1        1 0.13306303E+00 0.16825187E+04</pdfrwt>
<pdfrwt beam="2">  1       -1 0.12588549E+00 0.16825187E+04</pdfrwt>
<totfact> 0.10198213E+01</totfact>
</mgrwt>
</event>
<event>
 6    1  0.9364335E-007  0.2578779E+04  0.7818608E-02  0.8375445E-01
         -2   -1    0    0    0  501 -0.00000000000E+00  0.00000000000E+00  0.63880045591E+03  0.63880045591E+03  0.00000000000E+00 0.  1.
          2   -1    0    0  501    0  0.00000000000E+00 -0.00000000000E+00 -0.26025736104E+04  0.26025736104E+04  0.00000000000E+00 0. -1.
         23    2    1    2    0    0  0.10194942566E+04 -0.78110923788E+03 -0.86559841258E+03  0.15515551575E+04  0.92534395328E+02 0.  0.
         11    1    3    3    0    0  0.54542429954E+03 -0.39519512005E+03 -0.50495904452E+03  0.84181380726E+03  0.00000000000E+00 0.  1.
        -11    1    3    3    0    0  0.47406995702E+03 -0.38591411782E+03 -0.36063936805E+03  0.70974135027E+03  0.00000000000E+00 0. -1.
         22    1    1    2    0    0 -0.10194942566E+04  0.78110923788E+03 -0.10981747419E+04  0.16898189087E+04  0.00000000000E+00 0.  1.
<mgrwt>
<rscale>  0 0.25787789E+04</rscale>
<asrwt>0</asrwt>
<pdfrwt beam="1">  1        2 0.40039594E+00 0.25787789E+04</pdfrwt>
<pdfrwt beam="2">  1       -2 0.98276992E-01 0.25787789E+04</pdfrwt>
<totfact> 0.23123096E+00</totfact>
</mgrwt>
</event>
<event>
 6    1  0.9364335E-007  0.1831554E+04  0.7818608E-02  0.8689697E-01
          1   -1    0    0  501    0  0.00000000000E+00  0.00000000000E+00  0.49167229596E+03  0.49167229596E+03  0.00000000000E+00 0. -1.
         -1   -1    0    0    0  501 -0.00000000000E+00 -0.00000000000E+00 -0.17057040964E+04  0.17057040964E+04  0.00000000000E+00 0.  1.
         23    2    1    2    0    0 -0.70082797500E+03 -0.58177296557E+03 -0.69279133619E+03  0.11479426138E+04  0.90513949343E+02 0.  0.
         13    1    3    3    0    0 -0.54484156007E+03 -0.43450080182E+03 -0.57322811814E+03  0.90234901661E+03  0.00000000000E+00 0.  1.
        -13    1    3    3    0    0 -0.15598641493E+03 -0.14727216375E+03 -0.11956321805E+03  0.24559359717E+03  0.00000000000E+00 0. -1.
         22    1    1    2    0    0  0.70082797500E+03  0.58177296557E+03 -0.52124046424E+03  0.10494337786E+04  0.00000000000E+00 0.  1.
<mgrwt>
<rscale>  0 0.18315539E+04</rscale>
<asrwt>0</asrwt>
<pdfrwt beam="1">  1        1 0.75641891E-01 0.18315539E+04</pdfrwt>
<pdfrwt beam="2">  1       -1 0.26241602E+00 0.18315539E+04</pdfrwt>
<totfact> 0.24711380E+00</totfact>
</mgrwt>
</event>
<event>
 6    1  0.9364335E-007  0.1045052E+04  0.7818608E-02  0.9260468E-01
          1   -1    0    0  501    0  0.00000000000E+00  0.00000000000E+00  0.54398437526E+03  0.54398437526E+03  0.00000000000E+00 0. -1.
         -1   -1    0    0    0  501 -0.00000000000E+00 -0.00000000000E+00 -0.50191393383E+03  0.50191393383E+03  0.00000000000E+00 0.  1.
         23    2    1    2    0    0 -0.45082456602E+02  0.50492924497E+03  0.13128520223E+03  0.53116998865E+03  0.88993158170E+02 0.  0.
         13    1    3    3    0    0 -0.60424660087E+02  0.24577194703E+03  0.41495506852E+02  0.25647001108E+03  0.00000000000E+00 0. -1.
        -13    1    3    3    0    0  0.15342203484E+02  0.25915729794E+03  0.89789695376E+02  0.27469997757E+03  0.00000000000E+00 0.  1.
         22    1    1    2    0    0  0.45082456602E+02 -0.50492924497E+03 -0.89214760803E+02  0.51472832044E+03  0.00000000000E+00 0.  1.
<mgrwt>
<rscale>  0 0.10450518E+04</rscale>
<asrwt>0</asrwt>
<pdfrwt beam="1">  1        1 0.83689904E-01 0.10450518E+04</pdfrwt>
<pdfrwt beam="2">  1       -1 0.77217528E-01 0.10450518E+04</pdfrwt>
<totfact> 0.66285555E+01</totfact>
</mgrwt>
</event>
<event>
 6    1  0.9364335E-007  0.1843716E+04  0.7818608E-02  0.8683391E-01
          1   -1    0    0  501    0  0.00000000000E+00  0.00000000000E+00  0.16499863304E+04  0.16499863304E+04  0.00000000000E+00 0. -1.
         -1   -1    0    0    0  501 -0.00000000000E+00 -0.00000000000E+00 -0.51504810038E+03  0.51504810038E+03  0.00000000000E+00 0.  1.
         23    2    1    2    0    0  0.73135071922E+02  0.82751942035E+03  0.10608458727E+03  0.84265893646E+03  0.93182690186E+02 0.  0.
         13    1    3    3    0    0  0.75788234638E+02  0.66753712635E+03  0.11840941790E+03  0.68218066655E+03  0.00000000000E+00 0.  1.
        -13    1    3    3    0    0 -0.26531627164E+01  0.15998229400E+03 -0.12324830631E+02  0.16047826991E+03  0.00000000000E+00 0. -1.
         22    1    1    2    0    0 -0.73135071922E+02 -0.82751942035E+03  0.10288536428E+04  0.13223754944E+04  0.00000000000E+00 0. -1.
<mgrwt>
<rscale>  0 0.18437162E+04</rscale>
<asrwt>0</asrwt>
<pdfrwt beam="1">  1        1 0.25384405E+00 0.18437162E+04</pdfrwt>
<pdfrwt beam="2">  1       -1 0.79238170E-01 0.18437162E+04</pdfrwt>
<totfact> 0.77167534E+00</totfact>
</mgrwt>
</event>
<event>
 6    1  0.9364335E-007  0.2820140E+04  0.7818608E-02  0.8297043E-01
          1   -1    0    0  501    0  0.00000000000E+00  0.00000000000E+00  0.26183446902E+04  0.26183446902E+04  0.00000000000E+00 0. -1.
         -1   -1    0    0    0  501 -0.00000000000E+00 -0.00000000000E+00 -0.75937175094E+03  0.75937175094E+03  0.00000000000E+00 0.  1.
         23    2    1    2    0    0  0.90258934642E+01  0.10716015704E+04  0.20254761744E+04  0.22932189908E+04  0.88815620424E+02 0.  0.
         11    1    3    3    0    0 -0.38923248561E+02  0.60584959439E+03  0.11416797862E+04  0.12930589641E+04  0.00000000000E+00 0. -1.
        -11    1    3    3    0    0  0.47949142025E+02  0.46575197601E+03  0.88379638816E+03  0.10001600267E+04  0.00000000000E+00 0.  1.
         22    1    1    2    0    0 -0.90258934642E+01 -0.10716015704E+04 -0.16650323514E+03  0.10844974503E+04  0.00000000000E+00 0.  1.
<mgrwt>
<rscale>  0 0.28201397E+04</rscale>
<asrwt>0</asrwt>
<pdfrwt beam="1">  1        1 0.40282226E+00 0.28201397E+04</pdfrwt>
<pdfrwt beam="2">  1       -1 0.11682642E+00 0.28201397E+04</pdfrwt>
<totfact> 0.63944840E-01</totfact>
</mgrwt>
</event>
<event>
 6    1  0.9364335E-007  0.2051540E+04  0.7818608E-02  0.8582896E-01
         -2   -1    0    0    0  501 -0.00000000000E+00  0.00000000000E+00  0.37324162433E+03  0.37324162433E+03  0.00000000000E+00 0.  1.
          2   -1    0    0  501    0  0.00000000000E+00 -0.00000000000E+00 -0.28190972659E+04  0.28190972659E+04  0.00000000000E+00 0. -1.
         23    2    1    2    0    0 -0.43693236322E+02 -0.85599430009E+03 -0.20966707219E+04  0.22668306792E+04  0.88644633935E+02 0.  0.
         13    1    3    3    0    0 -0.47978638307E+02 -0.32872863033E+03 -0.73302367095E+03  0.80479075809E+03  0.00000000000E+00 0.  1.
        -13    1    3    3    0    0  0.42854019853E+01 -0.52726566976E+03 -0.13636470510E+04  0.14620399211E+04  0.00000000000E+00 0. -1.
         22    1    1    2    0    0  0.43693236322E+02  0.85599430009E+03 -0.34918491968E+03  0.92550821110E+03  0.00000000000E+00 0.  1.
<mgrwt>
<rscale>  0 0.20515403E+04</rscale>
<asrwt>0</asrwt>
<pdfrwt beam="1">  1        2 0.43370727E+00 0.20515403E+04</pdfrwt>
<pdfrwt beam="2">  1       -2 0.57421788E-01 0.20515403E+04</pdfrwt>
<totfact> 0.59263587E+00</totfact>
</mgrwt>
</event>
<event>
 6    1  0.9364335E-007  0.1504531E+04  0.7818608E-02  0.8881445E-01
          2   -1    0    0  501    0  0.00000000000E+00  0.00000000000E+00  0.83681280863E+03  0.83681280863E+03  0.00000000000E+00 0. -1.
         -2   -1    0    0    0  501 -0.00000000000E+00 -0.00000000000E+00 -0.67626074653E+03  0.67626074653E+03  0.00000000000E+00 0.  1.
         23    2    1    2    0    0  0.59661400586E+03  0.45229382758E+03  0.11543012688E+03  0.76303757770E+03  0.91565563072E+02 0.  0.
         13    1    3    3    0    0  0.23920343346E+03  0.21800225763E+03  0.84895814100E+02  0.33459014654E+03  0.00000000000E+00 0. -1.
        -13    1    3    3    0    0  0.35741057239E+03  0.23429156995E+03  0.30534312779E+02  0.42844743116E+03  0.00000000000E+00 0.  1.
         22    1    1    2    0    0 -0.59661400586E+03 -0.45229382758E+03  0.45121935229E+02  0.75003597746E+03  0.00000000000E+00 0.  1.
<mgrwt>
<rscale>  0 0.15045314E+04</rscale>
<asrwt>0</asrwt>
<pdfrwt beam="1">  1        2 0.12874043E+00 0.15045314E+04</pdfrwt>
<pdfrwt beam="2">  1       -2 0.10404011E+00 0.15045314E+04</pdfrwt>
<totfact> 0.23536946E+01</totfact>
</mgrwt>
</event>
<event>
 6    1  0.9364335E-007  0.2525451E+04  0.7818608E-02  0.8393974E-01
          2   -1    0    0  501    0  0.00000000000E+00  0.00000000000E+00  0.15104988180E+04  0.15104988180E+04  0.00000000000E+00 0. -1.
         -2   -1    0    0    0  501 -0.00000000000E+00 -0.00000000000E+00 -0.10555953232E+04  0.10555953232E+04  0.00000000000E+00 0.  1.
         23    2    1    2    0    0 -0.76785396524E+02 -0.12169684934E+04  0.55473019461E+03  0.13426262500E+04  0.89506129977E+02 0.  0.
         11    1    3    3    0    0 -0.33120173368E+02 -0.57272830224E+03  0.31001483126E+03  0.65209190278E+03  0.00000000000E+00 0. -1.
        -11    1    3    3    0    0 -0.43665223157E+02 -0.64424019113E+03  0.24471536336E+03  0.69053434718E+03  0.00000000000E+00 0.  1.
         22    1    1    2    0    0  0.76785396524E+02  0.12169684934E+04 -0.99826699836E+02  0.12234678913E+04  0.00000000000E+00 0.  1.
<mgrwt>
<rscale>  0 0.25254508E+04</rscale>
<asrwt>0</asrwt>
<pdfrwt beam="1">  1        2 0.23238443E+00 0.25254508E+04</pdfrwt>
<pdfrwt beam="2">  1       -2 0.16239928E+00 0.25254508E+04</pdfrwt>
<totfact> 0.26957178E+00</totfact>
</mgrwt>
</event>
<event>
 6    1  0.9364335E-007  0.5096287E+04  0.7818608E-02  0.7813823E-01
         -2   -1    0    0    0  501 -0.00000000000E+00  0.00000000000E+00  0.13626220046E+04  0.13626220046E+04  0.00000000000E+00 0.  1.
          2   -1    0    0  501    0  0.00000000000E+00 -0.00000000000E+00 -0.47651029873E+04  0.47651029873E+04  0.00000000000E+00 0. -1.
         23    2    1    2    0    0  0.13301097619E+04  0.21653023250E+04 -0.14888345508E+04  0.29465665859E+04  0.88883001290E+02 0.  0.
         11    1    3    3    0    0  0.89703942968E+03  0.15258452651E+04 -0.10621980263E+04  0.20642548676E+04  0.00000000000E+00 0.  1.
        -11    1    3    3    0    0  0.43307033227E+03  0.63945705991E+03 -0.42663652451E+03  0.88231171828E+03  0.00000000000E+00 0. -1.
         22    1    1    2    0    0 -0.13301097619E+04 -0.21653023250E+04 -0.19136464320E+04  0.31811584060E+04  0.00000000000E+00 0. -1.
<mgrwt>
<rscale>  0 0.50962866E+04</rscale>
<asrwt>0</asrwt>
<pdfrwt beam="1">  1        2 0.73309276E+00 0.50962866E+04</pdfrwt>
<pdfrwt beam="2">  1       -2 0.20963416E+00 0.50962866E+04</pdfrwt>
<totfact> 0.53444753E-03</totfact>
</mgrwt>
</event>
<event>
 6    1  0.9364335E-007  0.1010089E+04  0.7818608E-02  0.9297548E-01
         -2   -1    0    0    0  501 -0.00000000000E+00  0.00000000000E+00  0.10945678701E+03  0.10945678701E+03  0.00000000000E+00 0.  1.
          2   -1    0    0  501    0  0.00000000000E+00 -0.00000000000E+00 -0.23303264109E+04  0.23303264109E+04  0.00000000000E+00 0. -1.
         23    2    1    2    0    0 -0.41982385953E+03  0.26433109679E+03 -0.95084010435E+03  0.10762957641E+04  0.90513346821E+02 0.  0.
         13    1    3    3    0    0 -0.10011254250E+03  0.89037708776E+02 -0.18866907261E+03  0.23140063464E+03  0.00000000000E+00 0.  1.
        -13    1    3    3    0    0 -0.31971131702E+03  0.17529338801E+03 -0.76217103174E+03  0.84489512943E+03  0.00000000000E+00 0. -1.
         22    1    1    2    0    0  0.41982385953E+03 -0.26433109679E+03 -0.12700295195E+04  0.13634874338E+04  0.00000000000E+00 0.  1.
<mgrwt>
<rscale>  0 0.10100892E+04</rscale>
<asrwt>0</asrwt>
<pdfrwt beam="1">  1        2 0.35851175E+00 0.10100892E+04</pdfrwt>
<pdfrwt beam="2">  1       -2 0.16839506E-01 0.10100892E+04</pdfrwt>
<totfact> 0.12641291E+02</totfact>
</mgrwt>
</event>
<event>
 6    1  0.9364335E-007  0.1299359E+04  0.7818608E-02  0.9030074E-01
         -1   -1    0    0    0  501 -0.00000000000E+00  0.00000000000E+00  0.61154465974E+03  0.61154465974E+03  0.00000000000E+00 0.  1.
          1   -1    0    0  501    0  0.00000000000E+00 -0.00000000000E+00 -0.69019227106E+03  0.69019227106E+03  0.00000000000E+00 0. -1.
         23    2    1    2    0    0  0.52697451732E+03 -0.22447344367E+03 -0.33953295610E+03  0.67233115394E+03  0.93038075340E+02 0.  0.
         13    1    3    3    0    0  0.21849838382E+03 -0.47468549501E+02 -0.15090148263E+03  0.26975185705E+03  0.00000000000E+00 0. -1.
        -13    1    3    3    0    0  0.30847613350E+03 -0.17700489417E+03 -0.18863147347E+03  0.40257929689E+03  0.00000000000E+00 0.  1.
         22    1    1    2    0    0 -0.52697451732E+03  0.22447344367E+03  0.26088534478E+03  0.62940577686E+03  0.00000000000E+00 0.  1.
<mgrwt>
<rscale>  0 0.12993589E+04</rscale>
<asrwt>0</asrwt>
<pdfrwt beam="1">  1        1 0.10618343E+00 0.12993589E+04</pdfrwt>
<pdfrwt beam="2">  1       -1 0.94083794E-01 0.12993589E+04</pdfrwt>
<totfact> 0.29944297E+01</totfact>
</mgrwt>
</event>
<event>
 6    1  0.9364335E-007  0.1880251E+04  0.7818608E-02  0.8664750E-01
         -2   -1    0    0    0  501 -0.00000000000E+00  0.00000000000E+00  0.22831485317E+03  0.22831485317E+03  0.00000000000E+00 0.  1.
          2   -1    0    0  501    0  0.00000000000E+00 -0.00000000000E+00 -0.38711277150E+04  0.38711277150E+04  0.00000000000E+00 0. -1.
         23    2    1    2    0    0  0.53543182589E+02 -0.83276241987E+03 -0.88840428647E+03  0.12214004002E+04  0.78718746997E+02 0.  0.
         11    1    3    3    0    0 -0.10844129162E+01 -0.30485837969E+03 -0.27856063867E+03  0.41295984918E+03  0.00000000000E+00 0. -1.
        -11    1    3    3    0    0  0.54627595505E+02 -0.52790404017E+03 -0.60984364780E+03  0.80844055105E+03  0.00000000000E+00 0.  1.
         22    1    1    2    0    0 -0.53543182589E+02  0.83276241987E+03 -0.27544085753E+04  0.28780421679E+04  0.00000000000E+00 0. -1.
<mgrwt>
<rscale>  0 0.18802510E+04</rscale>
<asrwt>0</asrwt>
<pdfrwt beam="1">  1        2 0.59555809E+00 0.18802510E+04</pdfrwt>
<pdfrwt beam="2">  1       -2 0.35125363E-01 0.18802510E+04</pdfrwt>
<totfact> 0.31249951E+00</totfact>
</mgrwt>
</event>
<event>
 6    1  0.9364335E-007  0.1168784E+04  0.7818608E-02  0.9140627E-01
          1   -1    0    0  501    0  0.00000000000E+00  0.00000000000E+00  0.11061794130E+04  0.11061794130E+04  0.00000000000E+00 0. -1.
         -1   -1    0    0    0  501 -0.00000000000E+00 -0.00000000000E+00 -0.30873298325E+03  0.30873298325E+03  0.00000000000E+00 0.  1.
         23    2    1    2    0    0  0.28871253532E+03  0.36714195367E+03 -0.17346454844E+02  0.47574489948E+03  0.88792835822E+02 0.  0.
         11    1    3    3    0    0  0.24669416201E+02  0.84954231136E+02  0.53267658364E+01  0.88623788668E+02  0.00000000000E+00 0. -1.
        -11    1    3    3    0    0  0.26404311912E+03  0.28218772253E+03 -0.22673220681E+02  0.38712111081E+03  0.00000000000E+00 0.  1.
         22    1    1    2    0    0 -0.28871253532E+03 -0.36714195367E+03  0.81479288458E+03  0.93916749675E+03  0.00000000000E+00 0. -1.
<mgrwt>
<rscale>  0 0.11687841E+04</rscale>
<asrwt>0</asrwt>
<pdfrwt beam="1">  1        1 0.17018145E+00 0.11687841E+04</pdfrwt>
<pdfrwt beam="2">  1       -1 0.47497382E-01 0.11687841E+04</pdfrwt>
<totfact> 0.55029521E+01</totfact>
</mgrwt>
</event>
<event>
 6    1  0.9364335E-007  0.1312749E+04  0.7818608E-02  0.9019516E-01
          1   -1    0    0  501    0  0.00000000000E+00  0.00000000000E+00  0.10892444253E+04  0.10892444253E+04  0.00000000000E+00 0. -1.
         -1   -1    0    0    0  501 -0.00000000000E+00 -0.00000000000E+00 -0.39552859978E+03  0.39552859978E+03  0.00000000000E+00 0.  1.
         23    2    1    2    0    0  0.20690421985E+02 -0.46044413103E+03 -0.17514138031E+03  0.50123363315E+03  0.90131906369E+02 0.  0.
         13    1    3    3    0    0 -0.31926959868E+02 -0.23769275193E+03 -0.73848559416E+02  0.25093980317E+03  0.00000000000E+00 0. -1.
        -13    1    3    3    0    0  0.52617381853E+02 -0.22275137910E+03 -0.10129282089E+03  0.25029382998E+03  0.00000000000E+00 0.  1.
         22    1    1    2    0    0 -0.20690421985E+02  0.46044413103E+03  0.86885720579E+03  0.98353939190E+03  0.00000000000E+00 0. -1.
<mgrwt>
<rscale>  0 0.13127488E+04</rscale>
<asrwt>0</asrwt>
<pdfrwt beam="1">  1        1 0.16757606E+00 0.13127488E+04</pdfrwt>
<pdfrwt beam="2">  1       -1 0.60850554E-01 0.13127488E+04</pdfrwt>
<totfact> 0.34730001E+01</totfact>
</mgrwt>
</event>
<event>
 6    1  0.9364335E-007  0.1788980E+04  0.7818608E-02  0.8712182E-01
          2   -1    0    0  501    0  0.00000000000E+00  0.00000000000E+00  0.65572471877E+03  0.65572471877E+03  0.00000000000E+00 0. -1.
         -2   -1    0    0    0  501 -0.00000000000E+00 -0.00000000000E+00 -0.12201954509E+04  0.12201954509E+04  0.00000000000E+00 0.  1.
         23    2    1    2    0    0  0.57598849393E+03 -0.46289323205E+03  0.24118355950E+03  0.78270851266E+03  0.91816213186E+02 0.  0.
         13    1    3    3    0    0  0.18755323388E+03 -0.20662616871E+03  0.81317271233E+02  0.29065974564E+03  0.00000000000E+00 0.  1.
        -13    1    3    3    0    0  0.38843526005E+03 -0.25626706333E+03  0.15986628827E+03  0.49204876702E+03  0.00000000000E+00 0. -1.
         22    1    1    2    0    0 -0.57598849393E+03  0.46289323205E+03 -0.80565429167E+03  0.10932116570E+04  0.00000000000E+00 0.  1.
<mgrwt>
<rscale>  0 0.17889800E+04</rscale>
<asrwt>0</asrwt>
<pdfrwt beam="1">  1        2 0.10088073E+00 0.17889800E+04</pdfrwt>
<pdfrwt beam="2">  1       -2 0.18772237E+00 0.17889800E+04</pdfrwt>
<totfact> 0.67427618E+00</totfact>
</mgrwt>
</event>
<event>
 6    1  0.9364335E-007  0.3491298E+04  0.7818608E-02  0.8115855E-01
         -1   -1    0    0    0  501 -0.00000000000E+00  0.00000000000E+00  0.18416475304E+04  0.18416475304E+04  0.00000000000E+00 0.  1.
          1   -1    0    0  501    0  0.00000000000E+00 -0.00000000000E+00 -0.16546543837E+04  0.16546543837E+04  0.00000000000E+00 0. -1.
         23    2    1    2    0    0 -0.93279242834E+03  0.12686984018E+04  0.84526752726E+03  0.17895440200E+04  0.91067324748E+02 0.  0.
         11    1    3    3    0    0 -0.29483919870E+03  0.37286731205E+03  0.29906326225E+03  0.56160397106E+03  0.00000000000E+00 0. -1.
        -11    1    3    3    0    0 -0.63795322964E+03  0.89583108979E+03  0.54620426501E+03  0.12279400489E+04  0.00000000000E+00 0.  1.
         22    1    1    2    0    0  0.93279242834E+03 -0.12686984018E+04 -0.65827438058E+03  0.17067578942E+04  0.00000000000E+00 0. -1.
<mgrwt>
<rscale>  0 0.34912978E+04</rscale>
<asrwt>0</asrwt>
<pdfrwt beam="1">  1        1 0.25456221E+00 0.34912978E+04</pdfrwt>
<pdfrwt beam="2">  1       -1 0.28333039E+00 0.34912978E+04</pdfrwt>
<totfact> 0.17697983E-01</totfact>
</mgrwt>
</event>
<event>
 6    1  0.9364335E-007  0.1046711E+04  0.7818608E-02  0.9258747E-01
          2   -1    0    0  501    0  0.00000000000E+00  0.00000000000E+00  0.13816362106E+04  0.13816362106E+04  0.00000000000E+00 0. -1.
         -2   -1    0    0    0  501 -0.00000000000E+00 -0.00000000000E+00 -0.19824375208E+03  0.19824375208E+03  0.00000000000E+00 0.  1.
         23    2    1    2    0    0  0.44838518472E+03  0.25256235692E+03  0.70157143048E+03  0.87490583472E+03  0.91764533229E+02 0.  0.
         13    1    3    3    0    0  0.69824873097E+02  0.77369082286E+02  0.11583871247E+03  0.15582071461E+03  0.00000000000E+00 0. -1.
        -13    1    3    3    0    0  0.37856031162E+03  0.17519327464E+03  0.58573271801E+03  0.71908512010E+03  0.00000000000E+00 0.  1.
         22    1    1    2    0    0 -0.44838518472E+03 -0.25256235692E+03  0.48182102802E+03  0.70497412793E+03  0.00000000000E+00 0.  1.
<mgrwt>
<rscale>  0 0.10467106E+04</rscale>
<asrwt>0</asrwt>
<pdfrwt beam="1">  1        2 0.21255941E+00 0.10467106E+04</pdfrwt>
<pdfrwt beam="2">  1       -2 0.30499040E-01 0.10467106E+04</pdfrwt>
<totfact> 0.14664277E+02</totfact>
</mgrwt>
</event>
<event>
 6    1  0.9364335E-007  0.4528178E+04  0.7818608E-02  0.7905722E-01
         -1   -1    0    0    0  501 -0.00000000000E+00  0.00000000000E+00  0.10214184690E+04  0.10214184690E+04  0.00000000000E+00 0.  1.
          1   -1    0    0  501    0  0.00000000000E+00 -0.00000000000E+00 -0.50186080488E+04  0.50186080488E+04  0.00000000000E+00 0. -1.
         23    2    1    2    0    0 -0.22007261478E+04 -0.48486248031E+03 -0.22784672147E+04  0.32058963566E+04  0.89840961397E+02 0.  0.
         11    1    3    3    0    0 -0.80837839554E+03 -0.17512986813E+03 -0.77534821275E+03  0.11337155517E+04  0.00000000000E+00 0. -1.
        -11    1    3    3    0    0 -0.13923477523E+04 -0.30973261218E+03 -0.15031190019E+04  0.20721808049E+04  0.00000000000E+00 0.  1.
         22    1    1    2    0    0  0.22007261478E+04  0.48486248031E+03 -0.17187223652E+04  0.28341301612E+04  0.00000000000E+00 0.  1.
<mgrwt>
<rscale>  0 0.45281780E+04</rscale>
<asrwt>0</asrwt>
<pdfrwt beam="1">  1        1 0.77209354E+00 0.45281780E+04</pdfrwt>
<pdfrwt beam="2">  1       -1 0.15714130E+00 0.45281780E+04</pdfrwt>
<totfact> 0.18603237E-03</totfact>
</mgrwt>
</event>
<event>
 6    1  0.9364335E-007  0.4132538E+04  0.7818608E-02  0.7978330E-01
         -1   -1    0    0    0  501 -0.00000000000E+00  0.00000000000E+00  0.15050597996E+04  0.15050597996E+04  0.00000000000E+00 0.  1.
          1   -1    0    0  501    0  0.00000000000E+00 -0.00000000000E+00 -0.28367430290E+04  0.28367430290E+04  0.00000000000E+00 0. -1.
         23    2    1    2    0    0  0.17197523500E+04  0.55215606390E+03  0.38609645966E+03  0.18491753947E+04  0.89189124729E+02 0.  0.
         13    1    3    3    0    0  0.13446304576E+04  0.43179784799E+03  0.33930274680E+03  0.14524485544E+04  0.00000000000E+00 0. -1.
        -13    1    3    3    0    0  0.37512189241E+03  0.12035821591E+03  0.46793712865E+02  0.39672684036E+03  0.00000000000E+00 0.  1.
         22    1    1    2    0    0 -0.17197523500E+04 -0.55215606390E+03 -0.17177796890E+04  0.24926274339E+04  0.00000000000E+00 0.  1.
<mgrwt>
<rscale>  0 0.41325382E+04</rscale>
<asrwt>0</asrwt>
<pdfrwt beam="1">  1        1 0.43642200E+00 0.41325382E+04</pdfrwt>
<pdfrwt beam="2">  1       -1 0.23154766E+00 0.41325382E+04</pdfrwt>
<totfact> 0.55979194E-02</totfact>
</mgrwt>
</event>
<event>
 6    1  0.9364335E-007  0.1274095E+04  0.7818608E-02  0.9050364E-01
          2   -1    0    0  501    0  0.00000000000E+00  0.00000000000E+00  0.19640893751E+04  0.19640893751E+04  0.00000000000E+00 0. -1.
         -2   -1    0    0    0  501 -0.00000000000E+00 -0.00000000000E+00 -0.20662491340E+03  0.20662491340E+03  0.00000000000E+00 0.  1.
         23    2    1    2    0    0  0.21961091699E+03 -0.40967467587E+03  0.16172590595E+04  0.16852044021E+04  0.91239884640E+02 0.  0.
         13    1    3    3    0    0  0.63613908296E+02 -0.19134933459E+03  0.80001118753E+03  0.82503284622E+03  0.00000000000E+00 0. -1.
        -13    1    3    3    0    0  0.15599700870E+03 -0.21832534129E+03  0.81724787197E+03  0.86017155592E+03  0.00000000000E+00 0.  1.
         22    1    1    2    0    0 -0.21961091699E+03  0.40967467587E+03  0.14020540216E+03  0.48550988632E+03  0.00000000000E+00 0.  1.
<mgrwt>
<rscale>  0 0.12740954E+04</rscale>
<asrwt>0</asrwt>
<pdfrwt beam="1">  1        2 0.30216758E+00 0.12740954E+04</pdfrwt>
<pdfrwt beam="2">  1       -2 0.31788450E-01 0.12740954E+04</pdfrwt>
<totfact> 0.63235284E+01</totfact>
</mgrwt>
</event>
<event>
 6    1  0.9364335E-007  0.2784193E+04  0.7818608E-02  0.8308193E-01
         -1   -1    0    0    0  501 -0.00000000000E+00  0.00000000000E+00  0.71488597973E+03  0.71488597973E+03  0.00000000000E+00 0.  1.
          1   -1    0    0  501    0  0.00000000000E+00 -0.00000000000E+00 -0.27108276349E+04  0.27108276349E+04  0.00000000000E+00 0. -1.
         23    2    1    2    0    0 -0.10226761762E+03  0.27188602432E+03 -0.26722548178E+04  0.26896564363E+04  0.94473582760E+02 0.  0.
         11    1    3    3    0    0 -0.64049593166E+02  0.57696032300E+02 -0.63739522551E+03  0.64319814679E+03  0.00000000000E+00 0.  1.
        -11    1    3    3    0    0 -0.38218024454E+02  0.21418999202E+03 -0.20348595923E+04  0.20464582895E+04  0.00000000000E+00 0. -1.
         22    1    1    2    0    0  0.10226761762E+03 -0.27188602432E+03  0.67631316267E+03  0.73605717837E+03  0.00000000000E+00 0.  1.
<mgrwt>
<rscale>  0 0.27841930E+04</rscale>
<asrwt>0</asrwt>
<pdfrwt beam="1">  1        1 0.41705040E+00 0.27841930E+04</pdfrwt>
<pdfrwt beam="2">  1       -1 0.10998246E+00 0.27841930E+04</pdfrwt>
<totfact> 0.63783695E-01</totfact>
</mgrwt>
</event>
<event>
 6    1  0.9364335E-007  0.2090118E+04  0.7818608E-02  0.8565609E-01
         -2   -1    0    0    0  501 -0.00000000000E+00  0.00000000000E+00  0.12311843017E+04  0.12311843017E+04  0.00000000000E+00 0.  1.
          2   -1    0    0  501    0  0.00000000000E+00 -0.00000000000E+00 -0.88707131202E+03  0.88707131202E+03  0.00000000000E+00 0. -1.
         23    2    1    2    0    0  0.20463645208E+03  0.44513468135E+03  0.11056764339E+04  0.12127171873E+04  0.90231024460E+02 0.  0.
         13    1    3    3    0    0  0.84887568560E+02  0.28997923753E+03  0.67569421224E+03  0.74017330805E+03  0.00000000000E+00 0.  1.
        -13    1    3    3    0    0  0.11974888352E+03  0.15515544382E+03  0.42998222168E+03  0.47254387925E+03  0.00000000000E+00 0. -1.
         22    1    1    2    0    0 -0.20463645208E+03 -0.44513468135E+03 -0.76156344426E+03  0.90553842640E+03  0.00000000000E+00 0. -1.
<mgrwt>
<rscale>  0 0.20901180E+04</rscale>
<asrwt>0</asrwt>
<pdfrwt beam="1">  1        2 0.13647251E+00 0.20901180E+04</pdfrwt>
<pdfrwt beam="2">  1       -2 0.18941297E+00 0.20901180E+04</pdfrwt>
<totfact> 0.43148373E+00</totfact>
</mgrwt>
</event>
<event>
 6    1  0.9364335E-007  0.2701599E+04  0.7818608E-02  0.8334486E-01
         -2   -1    0    0    0  501 -0.00000000000E+00  0.00000000000E+00  0.76148349132E+03  0.76148349132E+03  0.00000000000E+00 0.  1.
          2   -1    0    0  501    0  0.00000000000E+00 -0.00000000000E+00 -0.23961909180E+04  0.23961909180E+04  0.00000000000E+00 0. -1.
         23    2    1    2    0    0 -0.44885703541E+03 -0.84785198635E+03  0.29064658796E+03  0.10065552330E+04  0.91391296079E+02 0.  0.
         13    1    3    3    0    0 -0.31700668067E+03 -0.65272058017E+03  0.25053742462E+03  0.76766294199E+03  0.00000000000E+00 0. -1.
        -13    1    3    3    0    0 -0.13185035474E+03 -0.19513140619E+03  0.40109163340E+02  0.23889229102E+03  0.00000000000E+00 0.  1.
         22    1    1    2    0    0  0.44885703541E+03  0.84785198635E+03 -0.19253540146E+04  0.21511191763E+04  0.00000000000E+00 0. -1.
<mgrwt>
<rscale>  0 0.27015994E+04</rscale>
<asrwt>0</asrwt>
<pdfrwt beam="1">  1        2 0.36864475E+00 0.27015994E+04</pdfrwt>
<pdfrwt beam="2">  1       -2 0.11715131E+00 0.27015994E+04</pdfrwt>
<totfact> 0.19745615E+00</totfact>
</mgrwt>
</event>
<event>
 6    1  0.9364335E-007  0.3681387E+04  0.7818608E-02  0.8072099E-01
         -2   -1    0    0    0  501 -0.00000000000E+00  0.00000000000E+00  0.21709418301E+04  0.21709418301E+04  0.00000000000E+00 0.  1.
          2   -1    0    0  501    0  0.00000000000E+00 -0.00000000000E+00 -0.15606836593E+04  0.15606836593E+04  0.00000000000E+00 0. -1.
         23    2    1    2    0    0  0.12138863779E+04 -0.26149297783E+03  0.16811109064E+04  0.20919229866E+04  0.90051021656E+02 0.  0.
         11    1    3    3    0    0  0.89052021914E+03 -0.19820396099E+03  0.11670046943E+04  0.14812869497E+04  0.00000000000E+00 0. -1.
        -11    1    3    3    0    0  0.32336615880E+03 -0.63289016838E+02  0.51410621209E+03  0.61063603695E+03  0.00000000000E+00 0.  1.
         22    1    1    2    0    0 -0.12138863779E+04  0.26149297783E+03 -0.10708527356E+04  0.16397025027E+04  0.00000000000E+00 0. -1.
<mgrwt>
<rscale>  0 0.36813875E+04</rscale>
<asrwt>0</asrwt>
<pdfrwt beam="1">  1        2 0.24010518E+00 0.36813875E+04</pdfrwt>
<pdfrwt beam="2">  1       -2 0.33399105E+00 0.36813875E+04</pdfrwt>
<totfact> 0.18617453E-01</totfact>
</mgrwt>
</event>
<event>
 6    1  0.9364335E-007  0.1593222E+04  0.7818608E-02  0.8824723E-01
         -1   -1    0    0    0  501 -0.00000000000E+00  0.00000000000E+00  0.34423054586E+03  0.34423054586E+03  0.00000000000E+00 0.  1.
          1   -1    0    0  501    0  0.00000000000E+00 -0.00000000000E+00 -0.18434999316E+04  0.18434999316E+04  0.00000000000E+00 0. -1.
         23    2    1    2    0    0  0.45694836733E+03 -0.29435529653E+03  0.42676430842E+02  0.55278590584E+03  0.91126993489E+02 0.  0.
         13    1    3    3    0    0  0.23182939306E+03 -0.10363251749E+03  0.44070481126E+02  0.25773391991E+03  0.00000000000E+00 0.  1.
        -13    1    3    3    0    0  0.22511897428E+03 -0.19072277904E+03 -0.13940502839E+01  0.29505198593E+03  0.00000000000E+00 0. -1.
         22    1    1    2    0    0 -0.45694836733E+03  0.29435529653E+03 -0.15419458165E+04  0.16349445716E+04  0.00000000000E+00 0. -1.
<mgrwt>
<rscale>  0 0.15932219E+04</rscale>
<asrwt>0</asrwt>
<pdfrwt beam="1">  1        1 0.28361538E+00 0.15932219E+04</pdfrwt>
<pdfrwt beam="2">  1       -1 0.52958545E-01 0.15932219E+04</pdfrwt>
<totfact> 0.13137776E+01</totfact>
</mgrwt>
</event>
<event>
 6    1  0.9364335E-007  0.4425602E+04  0.7818608E-02  0.7923793E-01
          1   -1    0    0  501    0  0.00000000000E+00  0.00000000000E+00  0.24794186047E+04  0.24794186047E+04  0.00000000000E+00 0. -1.
         -1   -1    0    0    0  501 -0.00000000000E+00 -0.00000000000E+00 -0.19748533473E+04  0.19748533473E+04  0.00000000000E+00 0.  1.
         23    2    1    2    0    0 -0.12350477407E+04  0.62692880032E+03 -0.14832423651E+04  0.20315128253E+04  0.93025820293E+02 0.  0.
         13    1    3    3    0    0 -0.42411217263E+03  0.21800029135E+03 -0.44709236838E+03  0.65367181970E+03  0.00000000000E+00 0. -1.
        -13    1    3    3    0    0 -0.81093556803E+03  0.40892850897E+03 -0.10361499967E+04  0.13778410056E+04  0.00000000000E+00 0.  1.
         22    1    1    2    0    0  0.12350477407E+04 -0.62692880032E+03  0.19878076225E+04  0.24227591268E+04  0.00000000000E+00 0. -1.
<mgrwt>
<rscale>  0 0.44256019E+04</rscale>
<asrwt>0</asrwt>
<pdfrwt beam="1">  1        1 0.38144902E+00 0.44256019E+04</pdfrwt>
<pdfrwt beam="2">  1       -1 0.30382359E+00 0.44256019E+04</pdfrwt>
<totfact> 0.33014388E-02</totfact>
</mgrwt>
</event>
<event>
 6    1  0.9364335E-007  0.1688112E+04  0.7818608E-02  0.8768174E-01
          2   -1    0    0  501    0  0.00000000000E+00  0.00000000000E+00  0.14706519780E+04  0.14706519780E+04  0.00000000000E+00 0. -1.
         -2   -1    0    0    0  501 -0.00000000000E+00 -0.00000000000E+00 -0.48443174035E+03  0.48443174035E+03  0.00000000000E+00 0.  1.
         23    2    1    2    0    0 -0.18280869228E+03  0.46620018267E+03  0.12778779343E+04  0.13755788949E+04  0.92106746909E+02 0.  0.
         11    1    3    3    0    0 -0.18448572272E+03  0.44114094239E+03  0.11533187729E+04  0.12485129174E+04  0.00000000000E+00 0.  1.
        -11    1    3    3    0    0  0.16770304306E+01  0.25059240276E+02  0.12455916140E+03  0.12706597752E+03  0.00000000000E+00 0. -1.
         22    1    1    2    0    0  0.18280869228E+03 -0.46620018267E+03 -0.29165769671E+03  0.57950482340E+03  0.00000000000E+00 0.  1.
<mgrwt>
<rscale>  0 0.16881120E+04</rscale>
<asrwt>0</asrwt>
<pdfrwt beam="1">  1        2 0.22625415E+00 0.16881120E+04</pdfrwt>
<pdfrwt beam="2">  1       -2 0.74527961E-01 0.16881120E+04</pdfrwt>
<totfact> 0.20340752E+01</totfact>
</mgrwt>
</event>
<event>
 6    1  0.9364335E-007  0.2045611E+04  0.7818608E-02  0.8585588E-01
          1   -1    0    0  501    0  0.00000000000E+00  0.00000000000E+00  0.18979039582E+04  0.18979039582E+04  0.00000000000E+00 0. -1.
         -1   -1    0    0    0  501 -0.00000000000E+00 -0.00000000000E+00 -0.55120350074E+03  0.55120350074E+03  0.00000000000E+00 0.  1.
         23    2    1    2    0    0 -0.44291592538E+02  0.10077030635E+04  0.48775476483E+03  0.11242622181E+04  0.92917248416E+02 0.  0.
         13    1    3    3    0    0  0.24591211001E+02  0.40309944251E+03  0.21330395000E+03  0.45671923903E+03  0.00000000000E+00 0. -1.
        -13    1    3    3    0    0 -0.68882803538E+02  0.60460362099E+03  0.27445081483E+03  0.66754297906E+03  0.00000000000E+00 0.  1.
         22    1    1    2    0    0  0.44291592538E+02 -0.10077030635E+04  0.85894569265E+03  0.13248452409E+04  0.00000000000E+00 0.  1.
<mgrwt>
<rscale>  0 0.20456112E+04</rscale>
<asrwt>0</asrwt>
<pdfrwt beam="1">  1        1 0.29198522E+00 0.20456112E+04</pdfrwt>
<pdfrwt beam="2">  1       -1 0.84800539E-01 0.20456112E+04</pdfrwt>
<totfact> 0.44441392E+00</totfact>
</mgrwt>
</event>
<event>
 6    1  0.9364335E-007  0.3193470E+04  0.7818608E-02  0.8190544E-01
         -1   -1    0    0    0  501 -0.00000000000E+00  0.00000000000E+00  0.94944948477E+03  0.94944948477E+03  0.00000000000E+00 0.  1.
          1   -1    0    0  501    0  0.00000000000E+00 -0.00000000000E+00 -0.26853056130E+04  0.26853056130E+04  0.00000000000E+00 0. -1.
         23    2    1    2    0    0 -0.92052201172E+03  0.52775306287E+03  0.48730417789E+03  0.11713578874E+04  0.93433768763E+02 0.  0.
         13    1    3    3    0    0 -0.42558864906E+03  0.25589846662E+03  0.17814025469E+03  0.52758285963E+03  0.00000000000E+00 0.  1.
        -13    1    3    3    0    0 -0.49493336265E+03  0.27185459625E+03  0.30916392319E+03  0.64377502777E+03  0.00000000000E+00 0. -1.
         22    1    1    2    0    0  0.92052201172E+03 -0.52775306287E+03 -0.22231603061E+04  0.24633972104E+04  0.00000000000E+00 0. -1.
<mgrwt>
<rscale>  0 0.31934696E+04</rscale>
<asrwt>0</asrwt>
<pdfrwt beam="1">  1        1 0.41312394E+00 0.31934696E+04</pdfrwt>
<pdfrwt beam="2">  1       -1 0.14606915E+00 0.31934696E+04</pdfrwt>
<totfact> 0.31508700E-01</totfact>
</mgrwt>
</event>
<event>
 6    1  0.9364335E-007  0.3909899E+04  0.7818608E-02  0.8022974E-01
         -2   -1    0    0    0  501 -0.00000000000E+00  0.00000000000E+00  0.98275744207E+03  0.98275744207E+03  0.00000000000E+00 0.  1.
          2   -1    0    0  501    0  0.00000000000E+00 -0.00000000000E+00 -0.38888820275E+04  0.38888820275E+04  0.00000000000E+00 0. -1.
         23    2    1    2    0    0 -0.13742956478E+03  0.19352105005E+04 -0.11657362011E+04  0.22653243898E+04  0.93952828174E+02 0.  0.
         11    1    3    3    0    0 -0.67669731232E+02  0.47108876934E+03 -0.31115572423E+03  0.56861384599E+03  0.00000000000E+00 0. -1.
        -11    1    3    3    0    0 -0.69759833549E+02  0.14641217312E+04 -0.85458047690E+03  0.16967105438E+04  0.00000000000E+00 0.  1.
         22    1    1    2    0    0  0.13742956478E+03 -0.19352105005E+04 -0.17403883843E+04  0.26063150797E+04  0.00000000000E+00 0. -1.
<mgrwt>
<rscale>  0 0.39098991E+04</rscale>
<asrwt>0</asrwt>
<pdfrwt beam="1">  1        2 0.59828954E+00 0.39098991E+04</pdfrwt>
<pdfrwt beam="2">  1       -2 0.15119345E+00 0.39098991E+04</pdfrwt>
<totfact> 0.97468431E-02</totfact>
</mgrwt>
</event>
<event>
 6    1  0.9364335E-007  0.2686274E+04  0.7818608E-02  0.8339472E-01
          2   -1    0    0  501    0  0.00000000000E+00  0.00000000000E+00  0.34238251107E+04  0.34238251107E+04  0.00000000000E+00 0. -1.
         -2   -1    0    0    0  501 -0.00000000000E+00 -0.00000000000E+00 -0.52690092964E+03  0.52690092964E+03  0.00000000000E+00 0.  1.
         23    2    1    2    0    0  0.25079462327E+03 -0.10503553693E+04  0.28071842193E+03  0.11204121145E+04  0.10186328557E+03 0.  0.
         11    1    3    3    0    0  0.18289477657E+03 -0.77827375060E+03  0.25333023831E+03  0.83865173929E+03  0.00000000000E+00 0. -1.
        -11    1    3    3    0    0  0.67899846695E+02 -0.27208161871E+03  0.27388183620E+02  0.28176037518E+03  0.00000000000E+00 0.  1.
         22    1    1    2    0    0 -0.25079462327E+03  0.10503553693E+04  0.26162057592E+04  0.28303139259E+04  0.00000000000E+00 0. -1.
<mgrwt>
<rscale>  0 0.26862737E+04</rscale>
<asrwt>0</asrwt>
<pdfrwt beam="1">  1        2 0.52674231E+00 0.26862737E+04</pdfrwt>
<pdfrwt beam="2">  1       -2 0.81061684E-01 0.26862737E+04</pdfrwt>
<totfact> 0.10822606E+00</totfact>
</mgrwt>
</event>
<event>
 6    1  0.9364335E-007  0.3217324E+04  0.7818608E-02  0.8184257E-01
         -2   -1    0    0    0  501 -0.00000000000E+00  0.00000000000E+00  0.22322125363E+04  0.22322125363E+04  0.00000000000E+00 0.  1.
          2   -1    0    0  501    0  0.00000000000E+00 -0.00000000000E+00 -0.11592952836E+04  0.11592952836E+04  0.00000000000E+00 0. -1.
         23    2    1    2    0    0 -0.69109908156E+03  0.23417500446E+03  0.20466919909E+04  0.21746704791E+04  0.88248024386E+02 0.  0.
         13    1    3    3    0    0 -0.30854644070E+03  0.14665228817E+03  0.89754632497E+03  0.96036305903E+03  0.00000000000E+00 0.  1.
        -13    1    3    3    0    0 -0.38255264086E+03  0.87522716287E+02  0.11491456659E+04  0.12143074201E+04  0.00000000000E+00 0. -1.
         22    1    1    2    0    0  0.69109908156E+03 -0.23417500446E+03 -0.97377473823E+03  0.12168373408E+04  0.00000000000E+00 0. -1.
<mgrwt>
<rscale>  0 0.32173240E+04</rscale>
<asrwt>0</asrwt>
<pdfrwt beam="1">  1        2 0.17835312E+00 0.32173240E+04</pdfrwt>
<pdfrwt beam="2">  1       -2 0.34341731E+00 0.32173240E+04</pdfrwt>
<totfact> 0.28830992E-01</totfact>
</mgrwt>
</event>
<event>
 6    1  0.9364335E-007  0.7954910E+04  0.7818608E-02  0.7486246E-01
         -2   -1    0    0    0  501 -0.00000000000E+00  0.00000000000E+00  0.51556490836E+04  0.51556490836E+04  0.00000000000E+00 0.  1.
          2   -1    0    0  501    0  0.00000000000E+00 -0.00000000000E+00 -0.30685072470E+04  0.30685072470E+04  0.00000000000E+00 0. -1.
         23    2    1    2    0    0 -0.18388975195E+04  0.32909488730E+04  0.23531467077E+04  0.44449173644E+04  0.90013199085E+02 0.  0.
         13    1    3    3    0    0 -0.48708844107E+02  0.67810508052E+02  0.41475445033E+02  0.93225688719E+02  0.00000000000E+00 0.  1.
        -13    1    3    3    0    0 -0.17901886754E+04  0.32231383650E+04  0.23116712626E+04  0.43516916756E+04  0.00000000000E+00 0. -1.
         22    1    1    2    0    0  0.18388975195E+04 -0.32909488730E+04 -0.26600487110E+03  0.37792389662E+04  0.00000000000E+00 0.  1.
<mgrwt>
<rscale>  0 0.79549096E+04</rscale>
<asrwt>0</asrwt>
<pdfrwt beam="1">  1        2 0.47207804E+00 0.79549096E+04</pdfrwt>
<pdfrwt beam="2">  1       -2 0.79317678E+00 0.79549096E+04</pdfrwt>
<totfact> 0.79820012E-05</totfact>
</mgrwt>
</event>
<event>
 6    1  0.9364335E-007  0.2895410E+04  0.7818608E-02  0.8274245E-01
          1   -1    0    0  501    0  0.00000000000E+00  0.00000000000E+00  0.14669376117E+04  0.14669376117E+04  0.00000000000E+00 0. -1.
         -1   -1    0    0    0  501 -0.00000000000E+00 -0.00000000000E+00 -0.14287241812E+04  0.14287241812E+04  0.00000000000E+00 0.  1.
         23    2    1    2    0    0 -0.70687418004E+03 -0.11793973828E+04  0.46786732657E+03  0.14550883781E+04  0.87937817891E+02 0.  0.
         11    1    3    3    0    0 -0.54291437777E+03 -0.83799037421E+03  0.32009416358E+03  0.10485438295E+04  0.00000000000E+00 0.  1.
        -11    1    3    3    0    0 -0.16395980228E+03 -0.34140700860E+03  0.14777316299E+03  0.40654454858E+03  0.00000000000E+00 0. -1.
         22    1    1    2    0    0  0.70687418004E+03  0.11793973828E+04 -0.42965389602E+03  0.14405734148E+04  0.00000000000E+00 0.  1.
<mgrwt>
<rscale>  0 0.28954096E+04</rscale>
<asrwt>0</asrwt>
<pdfrwt beam="1">  1        1 0.22568271E+00 0.28954096E+04</pdfrwt>
<pdfrwt beam="2">  1       -1 0.21980372E+00 0.28954096E+04</pdfrwt>
<totfact> 0.65379142E-01</totfact>
</mgrwt>
</event>
<event>
 6    1  0.1049160E-006  0.3899650E+04  0.7818608E-02  0.8025102E-01
          2   -1    0    0  501    0  0.00000000000E+00  0.00000000000E+00  0.16879794820E+04  0.16879794820E+04  0.00000000000E+00 0. -1.
         -2   -1    0    0    0  501 -0.00000000000E+00 -0.00000000000E+00 -0.22522892240E+04  0.22522892240E+04  0.00000000000E+00 0.  1.
         23    2    1    2    0    0  0.12623679757E+04 -0.12010306546E+04  0.60011138109E+03  0.18445769130E+04  0.79263981178E+02 0.  0.
         13    1    3    3    0    0  0.54916210404E+03 -0.57668433551E+03  0.26967994894E+03  0.84075627515E+03  0.00000000000E+00 0.  1.
        -13    1    3    3    0    0  0.71320587164E+03 -0.62434631911E+03  0.33043143216E+03  0.10038206378E+04  0.00000000000E+00 0. -1.
         22    1    1    2    0    0 -0.12623679757E+04  0.12010306546E+04 -0.11644211232E+04  0.20956917930E+04  0.00000000000E+00 0.  1.
<mgrwt>
<rscale>  0 0.38996502E+04</rscale>
<asrwt>0</asrwt>
<pdfrwt beam="1">  1        2 0.25968915E+00 0.38996502E+04</pdfrwt>
<pdfrwt beam="2">  1       -2 0.34650603E+00 0.38996502E+04</pdfrwt>
<totfact> 0.12959990E-01</totfact>
</mgrwt>
</event>
<event>
 6    1  0.9364335E-007  0.2157430E+04  0.7818608E-02  0.8536359E-01
         -2   -1    0    0    0  501 -0.00000000000E+00  0.00000000000E+00  0.13885877817E+04  0.13885877817E+04  0.00000000000E+00 0.  1.
          2   -1    0    0  501    0  0.00000000000E+00 -0.00000000000E+00 -0.83799241555E+03  0.83799241555E+03  0.00000000000E+00 0. -1.
         23    2    1    2    0    0  0.40359605822E+03  0.18417269277E+03  0.12883623431E+04  0.13657030450E+04  0.91966957031E+02 0.  0.
         13    1    3    3    0    0  0.74029982403E+02  0.30715534338E+02  0.35739071897E+03  0.36626767309E+03  0.00000000000E+00 0.  1.
        -13    1    3    3    0    0  0.32956607582E+03  0.15345715844E+03  0.93097162411E+03  0.99943537195E+03  0.00000000000E+00 0. -1.
         22    1    1    2    0    0 -0.40359605822E+03 -0.18417269277E+03 -0.73776697693E+03  0.86087715222E+03  0.00000000000E+00 0. -1.
<mgrwt>
<rscale>  0 0.21574300E+04</rscale>
<asrwt>0</asrwt>
<pdfrwt beam="1">  1        2 0.12892191E+00 0.21574300E+04</pdfrwt>
<pdfrwt beam="2">  1       -2 0.21362889E+00 0.21574300E+04</pdfrwt>
<totfact> 0.32198746E+00</totfact>
</mgrwt>
</event>
<event>
 6    1  0.9364335E-007  0.1949719E+04  0.7818608E-02  0.8630496E-01
          2   -1    0    0  501    0  0.00000000000E+00  0.00000000000E+00  0.20928372526E+04  0.20928372526E+04  0.00000000000E+00 0. -1.
         -2   -1    0    0    0  501 -0.00000000000E+00 -0.00000000000E+00 -0.45409691262E+03  0.45409691262E+03  0.00000000000E+00 0.  1.
         23    2    1    2    0    0 -0.30764218134E+03  0.82823918530E+03  0.28941755033E+03  0.93408083943E+03  0.90114573461E+02 0.  0.
         11    1    3    3    0    0 -0.16404049830E+03  0.55228776875E+03  0.16780684055E+03  0.60007516223E+03  0.00000000000E+00 0. -1.
        -11    1    3    3    0    0 -0.14360168304E+03  0.27595141655E+03  0.12161070978E+03  0.33400567720E+03  0.00000000000E+00 0.  1.
         22    1    1    2    0    0  0.30764218134E+03 -0.82823918530E+03  0.13493227896E+04  0.16128533257E+04  0.00000000000E+00 0. -1.
<mgrwt>
<rscale>  0 0.19497189E+04</rscale>
<asrwt>0</asrwt>
<pdfrwt beam="1">  1        2 0.32197496E+00 0.19497189E+04</pdfrwt>
<pdfrwt beam="2">  1       -2 0.69861064E-01 0.19497189E+04</pdfrwt>
<totfact> 0.10328032E+01</totfact>
</mgrwt>
</event>
<event>
 6    1  0.9364335E-007  0.2603704E+04  0.7818608E-02  0.8366944E-01
          2   -1    0    0  501    0  0.00000000000E+00  0.00000000000E+00  0.15441731462E+04  0.15441731462E+04  0.00000000000E+00 0. -1.
         -2   -1    0    0    0  501 -0.00000000000E+00 -0.00000000000E+00 -0.10975571242E+04  0.10975571242E+04  0.00000000000E+00 0.  1.
         23    2    1    2    0    0  0.53448629048E+03 -0.11489192911E+04  0.52012901763E+03  0.13724409839E+04  0.85842454771E+02 0.  0.
         11    1    3    3    0    0  0.35016614585E+03 -0.70155107316E+03  0.28287582825E+03  0.83355202127E+03  0.00000000000E+00 0.  1.
        -11    1    3    3    0    0  0.18432014463E+03 -0.44736821796E+03  0.23725318938E+03  0.53888896262E+03  0.00000000000E+00 0. -1.
         22    1    1    2    0    0 -0.53448629048E+03  0.11489192911E+04 -0.73512995653E+02  0.12692892865E+04  0.00000000000E+00 0. -1.
<mgrwt>
<rscale>  0 0.26037037E+04</rscale>
<asrwt>0</asrwt>
<pdfrwt beam="1">  1        2 0.23756510E+00 0.26037037E+04</pdfrwt>
<pdfrwt beam="2">  1       -2 0.16885494E+00 0.26037037E+04</pdfrwt>
<totfact> 0.23023356E+00</totfact>
</mgrwt>
</event>
<event>
 6    1  0.9364335E-007  0.2829549E+04  0.7818608E-02  0.8294153E-01
          2   -1    0    0  501    0  0.00000000000E+00  0.00000000000E+00  0.19632375371E+04  0.19632375371E+04  0.00000000000E+00 0. -1.
         -2   -1    0    0    0  501 -0.00000000000E+00 -0.00000000000E+00 -0.10195339686E+04  0.10195339686E+04  0.00000000000E+00 0.  1.
         23    2    1    2    0    0  0.91332254173E+03 -0.94378357137E+03 -0.77319396987E+02  0.13192290834E+04  0.97476102485E+02 0.  0.
         11    1    3    3    0    0  0.63284079780E+03 -0.65624405379E+03 -0.86052680810E+01  0.91171145882E+03  0.00000000000E+00 0. -1.
        -11    1    3    3    0    0  0.28048174393E+03 -0.28753951758E+03 -0.68714128905E+02  0.40751762460E+03  0.00000000000E+00 0.  1.
         22    1    1    2    0    0 -0.91332254173E+03  0.94378357137E+03  0.10210229654E+04  0.16635424223E+04  0.00000000000E+00 0. -1.
<mgrwt>
<rscale>  0 0.28295493E+04</rscale>
<asrwt>0</asrwt>
<pdfrwt beam="1">  1        2 0.30203654E+00 0.28295493E+04</pdfrwt>
<pdfrwt beam="2">  1       -2 0.15685138E+00 0.28295493E+04</pdfrwt>
<totfact> 0.16164107E+00</totfact>
</mgrwt>
</event>
<event>
 6    1  0.9364335E-007  0.3030696E+04  0.7818608E-02  0.8235019E-01
         -2   -1    0    0    0  501 -0.00000000000E+00  0.00000000000E+00  0.19022556500E+04  0.19022556500E+04  0.00000000000E+00 0.  1.
          2   -1    0    0  501    0  0.00000000000E+00 -0.00000000000E+00 -0.12071349763E+04  0.12071349763E+04  0.00000000000E+00 0. -1.
         23    2    1    2    0    0  0.10169446198E+04 -0.77714288747E+03  0.11775632696E+04  0.17415900979E+04  0.91396870173E+02 0.  0.
         13    1    3    3    0    0  0.43428531360E+03 -0.33746815078E+03  0.56753591603E+03  0.79030722026E+03  0.00000000000E+00 0.  1.
        -13    1    3    3    0    0  0.58265930617E+03 -0.43967473669E+03  0.61002735354E+03  0.95128287760E+03  0.00000000000E+00 0. -1.
         22    1    1    2    0    0 -0.10169446198E+04  0.77714288747E+03 -0.48244259590E+03  0.13678005284E+04  0.00000000000E+00 0. -1.
<mgrwt>
<rscale>  0 0.30306958E+04</rscale>
<asrwt>0</asrwt>
<pdfrwt beam="1">  1        2 0.18571307E+00 0.30306958E+04</pdfrwt>
<pdfrwt beam="2">  1       -2 0.29265472E+00 0.30306958E+04</pdfrwt>
<totfact> 0.56445608E-01</totfact>
</mgrwt>
</event>
<event>
 6    1  0.9364335E-007  0.2586727E+04  0.7818608E-02  0.8372724E-01
          3   -1    0    0  501    0  0.00000000000E+00  0.00000000000E+00  0.95265136570E+03  0.95265136570E+03  0.00000000000E+00 0. -1.
         -3   -1    0    0    0  501 -0.00000000000E+00 -0.00000000000E+00 -0.17559306291E+04  0.17559306291E+04  0.00000000000E+00 0.  1.
         23    2    1    2    0    0  0.11222618516E+04  0.99656001349E+02  0.25939670593E+03  0.11598137107E+04  0.92077197041E+02 0.  0.
         13    1    3    3    0    0  0.86911036187E+03  0.64329540905E+02  0.16278832439E+03  0.88656141891E+03  0.00000000000E+00 0.  1.
        -13    1    3    3    0    0  0.25315148973E+03  0.35326460444E+02  0.96608381540E+02  0.27325229175E+03  0.00000000000E+00 0. -1.
         22    1    1    2    0    0 -0.11222618516E+04 -0.99656001349E+02 -0.10626759693E+04  0.15487682841E+04  0.00000000000E+00 0.  1.
<mgrwt>
<rscale>  0 0.25867274E+04</rscale>
<asrwt>0</asrwt>
<pdfrwt beam="1">  1        3 0.14656175E+00 0.25867274E+04</pdfrwt>
<pdfrwt beam="2">  1       -3 0.27014317E+00 0.25867274E+04</pdfrwt>
<totfact> 0.44340911E-02</totfact>
</mgrwt>
</event>
<event>
 6    1  0.1151035E-006  0.3239320E+04  0.7818608E-02  0.8178509E-01
          1   -1    0    0  501    0  0.00000000000E+00  0.00000000000E+00  0.18653577770E+04  0.18653577770E+04  0.00000000000E+00 0. -1.
         -1   -1    0    0    0  501 -0.00000000000E+00 -0.00000000000E+00 -0.14063250216E+04  0.14063250216E+04  0.00000000000E+00 0.  1.
         23    2    1    2    0    0 -0.11814465942E+03  0.91024508945E+03  0.15757227164E+04  0.18261722478E+04  0.97461357936E+02 0.  0.
         11    1    3    3    0    0 -0.39451397359E+02  0.44905199604E+03  0.86238552555E+03  0.97309449827E+03  0.00000000000E+00 0. -1.
        -11    1    3    3    0    0 -0.78693262060E+02  0.46119309341E+03  0.71333719084E+03  0.85307774953E+03  0.00000000000E+00 0.  1.
         22    1    1    2    0    0  0.11814465942E+03 -0.91024508945E+03 -0.11166899610E+04  0.14455105507E+04  0.00000000000E+00 0.  1.
<mgrwt>
<rscale>  0 0.32393205E+04</rscale>
<asrwt>0</asrwt>
<pdfrwt beam="1">  1        1 0.28697812E+00 0.32393205E+04</pdfrwt>
<pdfrwt beam="2">  1       -1 0.21635770E+00 0.32393205E+04</pdfrwt>
<totfact> 0.35711162E-01</totfact>
</mgrwt>
</event>
<event>
 6    1  0.1044508E-006  0.3569546E+04  0.7818608E-02  0.8097503E-01
         -3   -1    0    0    0  501 -0.00000000000E+00  0.00000000000E+00  0.12669374784E+04  0.12669374784E+04  0.00000000000E+00 0.  1.
          3   -1    0    0  501    0  0.00000000000E+00 -0.00000000000E+00 -0.25142635867E+04  0.25142635867E+04  0.00000000000E+00 0. -1.
         23    2    1    2    0    0  0.10230034753E+03 -0.14909234874E+04 -0.16554005812E+04  0.22320584049E+04  0.91735664305E+02 0.  0.
         11    1    3    3    0    0 -0.49162346065E+01 -0.57370432127E+03 -0.64343395113E+03  0.86207196166E+03  0.00000000000E+00 0. -1.
        -11    1    3    3    0    0  0.10721658213E+03 -0.91721916614E+03 -0.10119666300E+04  0.13699864432E+04  0.00000000000E+00 0.  1.
         22    1    1    2    0    0 -0.10230034753E+03  0.14909234874E+04  0.40807447280E+03  0.15491426602E+04  0.00000000000E+00 0.  1.
<mgrwt>
<rscale>  0 0.35695461E+04</rscale>
<asrwt>0</asrwt>
<pdfrwt beam="1">  1        3 0.38680978E+00 0.35695461E+04</pdfrwt>
<pdfrwt beam="2">  1       -3 0.19491346E+00 0.35695461E+04</pdfrwt>
<totfact> 0.43567198E-03</totfact>
</mgrwt>
</event>
<event>
 6    1  0.1044747E-006  0.4965374E+04  0.7818608E-02  0.7833871E-01
          2   -1    0    0  501    0  0.00000000000E+00  0.00000000000E+00  0.21724380089E+04  0.21724380089E+04  0.00000000000E+00 0. -1.
         -2   -1    0    0    0  501 -0.00000000000E+00 -0.00000000000E+00 -0.28372434897E+04  0.28372434897E+04  0.00000000000E+00 0.  1.
         23    2    1    2    0    0 -0.63573521277E+02 -0.14267652283E+04  0.17153295102E+04  0.22339395826E+04  0.91815688514E+02 0.  0.
         11    1    3    3    0    0 -0.22774027510E+02 -0.98955260883E+03  0.11300146107E+04  0.15022203708E+04  0.00000000000E+00 0. -1.
        -11    1    3    3    0    0 -0.40799493767E+02 -0.43721261948E+03  0.58531489952E+03  0.73171921180E+03  0.00000000000E+00 0.  1.
         22    1    1    2    0    0  0.63573521277E+02  0.14267652283E+04 -0.23801349909E+04  0.27757419160E+04  0.00000000000E+00 0.  1.
<mgrwt>
<rscale>  0 0.49653743E+04</rscale>
<asrwt>0</asrwt>
<pdfrwt beam="1">  1        2 0.33422123E+00 0.49653743E+04</pdfrwt>
<pdfrwt beam="2">  1       -2 0.43649900E+00 0.49653743E+04</pdfrwt>
<totfact> 0.16690496E-02</totfact>
</mgrwt>
</event>
<event>
 6    1  0.1378491E-006  0.3792727E+04  0.7818608E-02  0.8047717E-01
         -1   -1    0    0    0  501 -0.00000000000E+00  0.00000000000E+00  0.12478794287E+04  0.12478794287E+04  0.00000000000E+00 0.  1.
          1   -1    0    0  501    0  0.00000000000E+00 -0.00000000000E+00 -0.28818450608E+04  0.28818450608E+04  0.00000000000E+00 0. -1.
         23    2    1    2    0    0  0.79440634777E+03 -0.41220312144E+03 -0.26365772312E+04  0.27857665745E+04  0.89235940526E+02 0.  0.
         13    1    3    3    0    0  0.51469857385E+03 -0.26297207156E+03 -0.15671366618E+04  0.16703251927E+04  0.00000000000E+00 0. -1.
        -13    1    3    3    0    0  0.27970777392E+03 -0.14923104988E+03 -0.10694405694E+04  0.11154413819E+04  0.00000000000E+00 0.  1.
         22    1    1    2    0    0 -0.79440634777E+03  0.41220312144E+03  0.10026115991E+04  0.13439579150E+04  0.00000000000E+00 0.  1.
<mgrwt>
<rscale>  0 0.37927273E+04</rscale>
<asrwt>0</asrwt>
<pdfrwt beam="1">  1        1 0.44336078E+00 0.37927273E+04</pdfrwt>
<pdfrwt beam="2">  1       -1 0.19198145E+00 0.37927273E+04</pdfrwt>
<totfact> 0.99158443E-02</totfact>
</mgrwt>
</event>
<event>
 6    1  0.9364335E-007  0.2292673E+04  0.7818608E-02  0.8480816E-01
         -1   -1    0    0    0  501 -0.00000000000E+00  0.00000000000E+00  0.10772868521E+04  0.10772868521E+04  0.00000000000E+00 0.  1.
          1   -1    0    0  501    0  0.00000000000E+00 -0.00000000000E+00 -0.12198114814E+04  0.12198114814E+04  0.00000000000E+00 0. -1.
         23    2    1    2    0    0  0.79248439890E+03 -0.69986174162E+01 -0.89885557634E+03  0.12015998148E+04  0.88432260108E+02 0.  0.
         11    1    3    3    0    0  0.52584736813E+03 -0.38601758506E+02 -0.63169659464E+03  0.82282813394E+03  0.00000000000E+00 0.  1.
        -11    1    3    3    0    0  0.26663703077E+03  0.31603141090E+02 -0.26715898170E+03  0.37877168084E+03  0.00000000000E+00 0. -1.
         22    1    1    2    0    0 -0.79248439890E+03  0.69986174162E+01  0.75633094708E+03  0.10954985188E+04  0.00000000000E+00 0.  1.
<mgrwt>
<rscale>  0 0.22926726E+04</rscale>
<asrwt>0</asrwt>
<pdfrwt beam="1">  1        1 0.18766330E+00 0.22926726E+04</pdfrwt>
<pdfrwt beam="2">  1       -1 0.16573644E+00 0.22926726E+04</pdfrwt>
<totfact> 0.24738131E+00</totfact>
</mgrwt>
</event>
<event>
 6    1  0.9364335E-007  0.1866562E+04  0.7818608E-02  0.8671682E-01
          1   -1    0    0  501    0  0.00000000000E+00  0.00000000000E+00  0.14324914545E+04  0.14324914545E+04  0.00000000000E+00 0. -1.
         -1   -1    0    0    0  501 -0.00000000000E+00 -0.00000000000E+00 -0.60804090598E+03  0.60804090598E+03  0.00000000000E+00 0.  1.
         23    2    1    2    0    0  0.33955558333E+03  0.62968145234E+03 -0.23812867561E+03  0.75956735973E+03  0.91872641375E+02 0.  0.
         11    1    3    3    0    0  0.23318437219E+03  0.39706824425E+03 -0.10973663613E+03  0.47337117713E+03  0.00000000000E+00 0. -1.
        -11    1    3    3    0    0  0.10637121114E+03  0.23261320809E+03 -0.12839203947E+03  0.28619618260E+03  0.00000000000E+00 0.  1.
         22    1    1    2    0    0 -0.33955558333E+03 -0.62968145234E+03  0.10625792242E+04  0.12809650008E+04  0.00000000000E+00 0. -1.
<mgrwt>
<rscale>  0 0.18665620E+04</rscale>
<asrwt>0</asrwt>
<pdfrwt beam="1">  1        1 0.22038330E+00 0.18665620E+04</pdfrwt>
<pdfrwt beam="2">  1       -1 0.93544755E-01 0.18665620E+04</pdfrwt>
<totfact> 0.75820696E+00</totfact>
</mgrwt>
</event>
<event>
 6    1  0.9364335E-007  0.1628696E+04  0.7818608E-02  0.8803110E-01
          2   -1    0    0  501    0  0.00000000000E+00  0.00000000000E+00  0.76417922850E+03  0.76417922850E+03  0.00000000000E+00 0. -1.
         -2   -1    0    0    0  501 -0.00000000000E+00 -0.00000000000E+00 -0.86781088374E+03  0.86781088374E+03  0.00000000000E+00 0.  1.
         23    2    1    2    0    0 -0.17495204865E+03  0.91224928948E+02 -0.84001347305E+03  0.86963298557E+03  0.10820668970E+03 0.  0.
         11    1    3    3    0    0 -0.71308985826E+02  0.51168433925E+02 -0.17915705774E+03  0.19950045471E+03  0.00000000000E+00 0.  1.
        -11    1    3    3    0    0 -0.10364306282E+03  0.40056495023E+02 -0.66085641531E+03  0.67013253086E+03  0.00000000000E+00 0. -1.
         22    1    1    2    0    0  0.17495204865E+03 -0.91224928948E+02  0.73638181781E+03  0.76235712667E+03  0.00000000000E+00 0. -1.
<mgrwt>
<rscale>  0 0.16286965E+04</rscale>
<asrwt>0</asrwt>
<pdfrwt beam="1">  1        2 0.11756604E+00 0.16286965E+04</pdfrwt>
<pdfrwt beam="2">  1       -2 0.13350937E+00 0.16286965E+04</pdfrwt>
<totfact> 0.14207424E+01</totfact>
</mgrwt>
</event>
<event>
 6    1  0.9364335E-007  0.2990021E+04  0.7818608E-02  0.8246586E-01
         -1   -1    0    0    0  501 -0.00000000000E+00  0.00000000000E+00  0.18486753743E+04  0.18486753743E+04  0.00000000000E+00 0.  1.
          1   -1    0    0  501    0  0.00000000000E+00 -0.00000000000E+00 -0.12090040632E+04  0.12090040632E+04  0.00000000000E+00 0. -1.
         23    2    1    2    0    0 -0.11875462946E+04 -0.23140057484E+02  0.12460023468E+04  0.17240981731E+04  0.95869693947E+02 0.  0.
         13    1    3    3    0    0 -0.82219588111E+03  0.18184878391E+02  0.81969746827E+03  0.11611376732E+04  0.00000000000E+00 0. -1.
        -13    1    3    3    0    0 -0.36535041346E+03 -0.41324935874E+02  0.42630487852E+03  0.56296049985E+03  0.00000000000E+00 0.  1.
         22    1    1    2    0    0  0.11875462946E+04  0.23140057484E+02 -0.60633103571E+03  0.13335812644E+04  0.00000000000E+00 0. -1.
<mgrwt>
<rscale>  0 0.29900208E+04</rscale>
<asrwt>0</asrwt>
<pdfrwt beam="1">  1        1 0.18600063E+00 0.29900208E+04</pdfrwt>
<pdfrwt beam="2">  1       -1 0.28441159E+00 0.29900208E+04</pdfrwt>
<totfact> 0.37357089E-01</totfact>
</mgrwt>
</event>
<event>
 6    1  0.9364335E-007  0.1523424E+04  0.7818608E-02  0.8869024E-01
         -1   -1    0    0    0  501 -0.00000000000E+00  0.00000000000E+00  0.89230603290E+03  0.89230603290E+03  0.00000000000E+00 0.  1.
          1   -1    0    0  501    0  0.00000000000E+00 -0.00000000000E+00 -0.65023142110E+03  0.65023142110E+03  0.00000000000E+00 0. -1.
         23    2    1    2    0    0  0.48931230366E+03  0.37722869497E+03  0.56867965059E+03  0.84368205395E+03  0.81699720541E+02 0.  0.
         13    1    3    3    0    0  0.20427555455E+03  0.16978389360E+03  0.29815746902E+03  0.39931560080E+03  0.00000000000E+00 0. -1.
        -13    1    3    3    0    0  0.28503674911E+03  0.20744480137E+03  0.27052218157E+03  0.44436645315E+03  0.00000000000E+00 0.  1.
         22    1    1    2    0    0 -0.48931230366E+03 -0.37722869497E+03 -0.32660503879E+03  0.69885540006E+03  0.00000000000E+00 0. -1.
<mgrwt>
<rscale>  0 0.15234243E+04</rscale>
<asrwt>0</asrwt>
<pdfrwt beam="1">  1        1 0.10003560E+00 0.15234243E+04</pdfrwt>
<pdfrwt beam="2">  1       -1 0.13727785E+00 0.15234243E+04</pdfrwt>
<totfact> 0.12969140E+01</totfact>
</mgrwt>
</event>
<event>
 6    1  0.9364335E-007  0.2069370E+04  0.7818608E-02  0.8574857E-01
         -2   -1    0    0    0  501 -0.00000000000E+00  0.00000000000E+00  0.52618624765E+03  0.52618624765E+03  0.00000000000E+00 0.  1.
          2   -1    0    0  501    0  0.00000000000E+00 -0.00000000000E+00 -0.20345903126E+04  0.20345903126E+04  0.00000000000E+00 0. -1.
         23    2    1    2    0    0 -0.10011078125E+04  0.25340738679E+03 -0.75784662113E+03  0.12841526405E+04  0.91018389108E+02 0.  0.
         13    1    3    3    0    0 -0.34115456995E+03  0.61214856048E+02 -0.29853779564E+03  0.45744782722E+03  0.00000000000E+00 0. -1.
        -13    1    3    3    0    0 -0.65995324254E+03  0.19219253075E+03 -0.45930882550E+03  0.82670481333E+03  0.00000000000E+00 0.  1.
         22    1    1    2    0    0  0.10011078125E+04 -0.25340738679E+03 -0.75055744384E+03  0.12766239197E+04  0.00000000000E+00 0.  1.
<mgrwt>
<rscale>  0 0.20693704E+04</rscale>
<asrwt>0</asrwt>
<pdfrwt beam="1">  1        2 0.31301390E+00 0.20693704E+04</pdfrwt>
<pdfrwt beam="2">  1       -2 0.80951729E-01 0.20693704E+04</pdfrwt>
<totfact> 0.79464958E+00</totfact>
</mgrwt>
</event>
<event>
 6    1  0.9364335E-007  0.1431214E+04  0.7818608E-02  0.8931529E-01
         -2   -1    0    0    0  501 -0.00000000000E+00  0.00000000000E+00  0.29111197803E+03  0.29111197803E+03  0.00000000000E+00 0.  1.
          2   -1    0    0  501    0  0.00000000000E+00 -0.00000000000E+00 -0.17590934097E+04  0.17590934097E+04  0.00000000000E+00 0. -1.
         23    2    1    2    0    0 -0.19001281556E+03  0.52989926394E+03 -0.11276938222E+03  0.58272530303E+03  0.99768458075E+02 0.  0.
         13    1    3    3    0    0 -0.47376444145E+02  0.12766788431E+03 -0.71923798403E+02  0.15400210687E+03  0.00000000000E+00 0. -1.
        -13    1    3    3    0    0 -0.14263637141E+03  0.40223137963E+03 -0.40845583813E+02  0.42872319616E+03  0.00000000000E+00 0.  1.
         22    1    1    2    0    0  0.19001281556E+03 -0.52989926394E+03 -0.13552120494E+04  0.14674800847E+04  0.00000000000E+00 0. -1.
<mgrwt>
<rscale>  0 0.14312137E+04</rscale>
<asrwt>0</asrwt>
<pdfrwt beam="1">  1        2 0.27062976E+00 0.14312137E+04</pdfrwt>
<pdfrwt beam="2">  1       -2 0.44786458E-01 0.14312137E+04</pdfrwt>
<totfact> 0.41743945E+01</totfact>
</mgrwt>
</event>
<event>
 6    1  0.9364335E-007  0.2434756E+04  0.7818608E-02  0.8426605E-01
         -2   -1    0    0    0  501 -0.00000000000E+00  0.00000000000E+00  0.22158643560E+04  0.22158643560E+04  0.00000000000E+00 0.  1.
          2   -1    0    0  501    0  0.00000000000E+00 -0.00000000000E+00 -0.66881740856E+03  0.66881740856E+03  0.00000000000E+00 0. -1.
         23    2    1    2    0    0 -0.11256649944E+04  0.19896933889E+03  0.12646985688E+04  0.17072136825E+04  0.91682115969E+02 0.  0.
         13    1    3    3    0    0 -0.49489899438E+02  0.13598674010E+02  0.32474435074E+02  0.60735187614E+02  0.00000000000E+00 0.  1.
        -13    1    3    3    0    0 -0.10761750949E+04  0.18537066488E+03  0.12322241338E+04  0.16464784949E+04  0.00000000000E+00 0. -1.
         22    1    1    2    0    0  0.11256649944E+04 -0.19896933889E+03  0.28234837864E+03  0.11774680821E+04  0.00000000000E+00 0. -1.
<mgrwt>
<rscale>  0 0.24347556E+04</rscale>
<asrwt>0</asrwt>
<pdfrwt beam="1">  1        2 0.10289499E+00 0.24347556E+04</pdfrwt>
<pdfrwt beam="2">  1       -2 0.34090221E+00 0.24347556E+04</pdfrwt>
<totfact> 0.69099824E-01</totfact>
</mgrwt>
</event>
<event>
 6    1  0.9364335E-007  0.3210707E+04  0.7818608E-02  0.8185995E-01
         -1   -1    0    0    0  501 -0.00000000000E+00  0.00000000000E+00  0.12444900244E+04  0.12444900244E+04  0.00000000000E+00 0.  1.
          1   -1    0    0  501    0  0.00000000000E+00 -0.00000000000E+00 -0.20708568069E+04  0.20708568069E+04  0.00000000000E+00 0. -1.
         23    2    1    2    0    0  0.12886894964E+04  0.87768319351E+03 -0.80250610149E+03  0.17559823009E+04  0.91702737242E+02 0.  0.
         13    1    3    3    0    0  0.75062374288E+03  0.56448105856E+03 -0.49252384660E+03  0.10604973401E+04  0.00000000000E+00 0. -1.
        -13    1    3    3    0    0  0.53806575351E+03  0.31320213494E+03 -0.30998225489E+03  0.69548496085E+03  0.00000000000E+00 0.  1.
         22    1    1    2    0    0 -0.12886894964E+04 -0.87768319351E+03 -0.23860681033E+02  0.15593645303E+04  0.00000000000E+00 0. -1.
<mgrwt>
<rscale>  0 0.32107075E+04</rscale>
<asrwt>0</asrwt>
<pdfrwt beam="1">  1        1 0.31859335E+00 0.32107075E+04</pdfrwt>
<pdfrwt beam="2">  1       -1 0.19146000E+00 0.32107075E+04</pdfrwt>
<totfact> 0.38480032E-01</totfact>
</mgrwt>
</event>
<event>
 6    1  0.9364335E-007  0.2429070E+04  0.7818608E-02  0.8428700E-01
         -1   -1    0    0    0  501 -0.00000000000E+00  0.00000000000E+00  0.70899916153E+03  0.70899916153E+03  0.00000000000E+00 0.  1.
          1   -1    0    0  501    0  0.00000000000E+00 -0.00000000000E+00 -0.20805323398E+04  0.20805323398E+04  0.00000000000E+00 0. -1.
         23    2    1    2    0    0  0.11723171951E+03 -0.41447521465E+03 -0.19887803511E+04  0.20368515880E+04  0.89353942819E+02 0.  0.
         11    1    3    3    0    0  0.51501408093E+02 -0.94634944058E+02 -0.64720789441E+03  0.65611449173E+03  0.00000000000E+00 0. -1.
        -11    1    3    3    0    0  0.65730311419E+02 -0.31984027059E+03 -0.13415724566E+04  0.13807370963E+04  0.00000000000E+00 0.  1.
         22    1    1    2    0    0 -0.11723171951E+03  0.41447521465E+03  0.61724717280E+03  0.75267991334E+03  0.00000000000E+00 0.  1.
<mgrwt>
<rscale>  0 0.24290703E+04</rscale>
<asrwt>0</asrwt>
<pdfrwt beam="1">  1        1 0.32008190E+00 0.24290703E+04</pdfrwt>
<pdfrwt beam="2">  1       -1 0.10907679E+00 0.24290703E+04</pdfrwt>
<totfact> 0.18279966E+00</totfact>
</mgrwt>
</event>
<event>
 6    1  0.9364335E-007  0.1149141E+04  0.7818608E-02  0.9158577E-01
          2   -1    0    0  501    0  0.00000000000E+00  0.00000000000E+00  0.76461921755E+03  0.76461921755E+03  0.00000000000E+00 0. -1.
         -2   -1    0    0    0  501 -0.00000000000E+00 -0.00000000000E+00 -0.43175871530E+03  0.43175871530E+03  0.00000000000E+00 0.  1.
         23    2    1    2    0    0 -0.43271210454E+03  0.37322382280E+03  0.14455809487E+03  0.59471890653E+03  0.79105926939E+02 0.  0.
         13    1    3    3    0    0 -0.21188152493E+03  0.15831604610E+03  0.30945185066E+02  0.26629937202E+03  0.00000000000E+00 0.  1.
        -13    1    3    3    0    0 -0.22083057961E+03  0.21490777671E+03  0.11361290980E+03  0.32841953452E+03  0.00000000000E+00 0. -1.
         22    1    1    2    0    0  0.43271210454E+03 -0.37322382280E+03  0.18830240739E+03  0.60165902632E+03  0.00000000000E+00 0. -1.
<mgrwt>
<rscale>  0 0.11491406E+04</rscale>
<asrwt>0</asrwt>
<pdfrwt beam="1">  1        2 0.11763373E+00 0.11491406E+04</pdfrwt>
<pdfrwt beam="2">  1       -2 0.66424418E-01 0.11491406E+04</pdfrwt>
<totfact> 0.75452237E+01</totfact>
</mgrwt>
</event>
<event>
 6    1  0.9364335E-007  0.2264101E+04  0.7818608E-02  0.8492211E-01
          2   -1    0    0  501    0  0.00000000000E+00  0.00000000000E+00  0.16099340008E+04  0.16099340008E+04  0.00000000000E+00 0. -1.
         -2   -1    0    0    0  501 -0.00000000000E+00 -0.00000000000E+00 -0.79601949290E+03  0.79601949290E+03  0.00000000000E+00 0.  1.
         23    2    1    2    0    0 -0.70942009812E+01  0.11194132134E+04  0.57357537661E+03  0.12610084434E+04  0.89539441814E+02 0.  0.
         13    1    3    3    0    0 -0.47171367508E+02  0.68287731972E+03  0.35916052827E+03  0.77300896293E+03  0.00000000000E+00 0.  1.
        -13    1    3    3    0    0  0.40077166526E+02  0.43653589370E+03  0.21441484834E+03  0.48799948049E+03  0.00000000000E+00 0. -1.
         22    1    1    2    0    0  0.70942009812E+01 -0.11194132134E+04  0.24033913126E+03  0.11449450503E+04  0.00000000000E+00 0.  1.
<mgrwt>
<rscale>  0 0.22641015E+04</rscale>
<asrwt>0</asrwt>
<pdfrwt beam="1">  1        2 0.24768215E+00 0.22641015E+04</pdfrwt>
<pdfrwt beam="2">  1       -2 0.12246454E+00 0.22641015E+04</pdfrwt>
<totfact> 0.50538259E+00</totfact>
</mgrwt>
</event>
<event>
 6    1  0.9364335E-007  0.5776847E+04  0.7818608E-02  0.7718703E-01
          2   -1    0    0  501    0  0.00000000000E+00  0.00000000000E+00  0.23279481021E+04  0.23279481021E+04  0.00000000000E+00 0. -1.
         -2   -1    0    0    0  501 -0.00000000000E+00 -0.00000000000E+00 -0.35838385776E+04  0.35838385776E+04  0.00000000000E+00 0.  1.
         23    2    1    2    0    0  0.26878775945E+04 -0.10532747742E+04 -0.69903428597E+03  0.29716910131E+04  0.90690855649E+02 0.  0.
         13    1    3    3    0    0  0.44272586653E+03 -0.15959102409E+03 -0.82342045792E+02  0.47776113317E+03  0.00000000000E+00 0. -1.
        -13    1    3    3    0    0  0.22451517279E+04 -0.89368375011E+03 -0.61669224018E+03  0.24939298799E+04  0.00000000000E+00 0.  1.
         22    1    1    2    0    0 -0.26878775945E+04  0.10532747742E+04 -0.55685618952E+03  0.29400956666E+04  0.00000000000E+00 0. -1.
<mgrwt>
<rscale>  0 0.57768470E+04</rscale>
<asrwt>0</asrwt>
<pdfrwt beam="1">  1        2 0.35814586E+00 0.57768470E+04</pdfrwt>
<pdfrwt beam="2">  1       -2 0.55135978E+00 0.57768470E+04</pdfrwt>
<totfact> 0.25566974E-03</totfact>
</mgrwt>
</event>
<event>
 6    1  0.9364335E-007  0.1210535E+04  0.7818608E-02  0.9103685E-01
         -1   -1    0    0    0  501 -0.00000000000E+00  0.00000000000E+00  0.64599448558E+03  0.64599448558E+03  0.00000000000E+00 0.  1.
          1   -1    0    0  501    0  0.00000000000E+00 -0.00000000000E+00 -0.56710803459E+03  0.56710803459E+03  0.00000000000E+00 0. -1.
         23    2    1    2    0    0  0.57363086431E+03 -0.72097395806E+02  0.21204139749E+03  0.61982295476E+03  0.70487857324E+02 0.  0.
         11    1    3    3    0    0  0.40400075042E+03 -0.62094019900E+02  0.18126076526E+03  0.44713279758E+03  0.00000000000E+00 0.  1.
        -11    1    3    3    0    0  0.16963011389E+03 -0.10003375906E+02  0.30780632228E+02  0.17269015718E+03  0.00000000000E+00 0. -1.
         22    1    1    2    0    0 -0.57363086431E+03  0.72097395806E+02 -0.13315494650E+03  0.59327956542E+03  0.00000000000E+00 0. -1.
<mgrwt>
<rscale>  0 0.12105349E+04</rscale>
<asrwt>0</asrwt>
<pdfrwt beam="1">  1        1 0.87247391E-01 0.12105349E+04</pdfrwt>
<pdfrwt beam="2">  1       -1 0.99383766E-01 0.12105349E+04</pdfrwt>
<totfact> 0.35525997E+01</totfact>
</mgrwt>
</event>
<event>
 6    1  0.9364335E-007  0.3137044E+04  0.7818608E-02  0.8205644E-01
          1   -1    0    0  501    0  0.00000000000E+00  0.00000000000E+00  0.16263983259E+04  0.16263983259E+04  0.00000000000E+00 0. -1.
         -1   -1    0    0    0  501 -0.00000000000E+00 -0.00000000000E+00 -0.15127054835E+04  0.15127054835E+04  0.00000000000E+00 0.  1.
         23    2    1    2    0    0  0.17451928491E+03  0.28073459558E+03 -0.14766036700E+04  0.15148156910E+04  0.70987925585E+02 0.  0.
         11    1    3    3    0    0  0.77205248129E+02  0.12261561474E+03 -0.49343532363E+03  0.51427002432E+03  0.00000000000E+00 0.  1.
        -11    1    3    3    0    0  0.97314036785E+02  0.15811898084E+03 -0.98316834637E+03  0.10005456667E+04  0.00000000000E+00 0. -1.
         22    1    1    2    0    0 -0.17451928491E+03 -0.28073459558E+03  0.15902965124E+04  0.16242881183E+04  0.00000000000E+00 0. -1.
<mgrwt>
<rscale>  0 0.31370443E+04</rscale>
<asrwt>0</asrwt>
<pdfrwt beam="1">  1        1 0.25021513E+00 0.31370443E+04</pdfrwt>
<pdfrwt beam="2">  1       -1 0.23272392E+00 0.31370443E+04</pdfrwt>
<totfact> 0.40765752E-01</totfact>
</mgrwt>
</event>
<event>
 6    1  0.9364335E-007  0.3742605E+04  0.7818608E-02  0.8058585E-01
         -1   -1    0    0    0  501 -0.00000000000E+00  0.00000000000E+00  0.12223220762E+04  0.12223220762E+04  0.00000000000E+00 0.  1.
          1   -1    0    0  501    0  0.00000000000E+00 -0.00000000000E+00 -0.28648537374E+04  0.28648537374E+04  0.00000000000E+00 0. -1.
         23    2    1    2    0    0  0.35433999840E+03  0.86237501961E+03 -0.25922620843E+04  0.27562981388E+04  0.90051137986E+02 0.  0.
         13    1    3    3    0    0  0.21562969553E+03  0.58495150493E+03 -0.18333468339E+04  0.19364464987E+04  0.00000000000E+00 0. -1.
        -13    1    3    3    0    0  0.13871030287E+03  0.27742351468E+03 -0.75891525036E+03  0.81985164015E+03  0.00000000000E+00 0.  1.
         22    1    1    2    0    0 -0.35433999840E+03 -0.86237501961E+03  0.94973042308E+03  0.13308776749E+04  0.00000000000E+00 0.  1.
<mgrwt>
<rscale>  0 0.37426055E+04</rscale>
<asrwt>0</asrwt>
<pdfrwt beam="1">  1        1 0.44074672E+00 0.37426055E+04</pdfrwt>
<pdfrwt beam="2">  1       -1 0.18804955E+00 0.37426055E+04</pdfrwt>
<totfact> 0.10914200E-01</totfact>
</mgrwt>
</event>
<event>
 6    1  0.9364335E-007  0.2934823E+04  0.7818608E-02  0.8262591E-01
         -2   -1    0    0    0  501 -0.00000000000E+00  0.00000000000E+00  0.70640122703E+03  0.70640122703E+03  0.00000000000E+00 0.  1.
          2   -1    0    0  501    0  0.00000000000E+00 -0.00000000000E+00 -0.30482620069E+04  0.30482620069E+04  0.00000000000E+00 0. -1.
         23    2    1    2    0    0 -0.53650797414E+03  0.89006746636E+02  0.56962327323E+03  0.79282218507E+03  0.91287110101E+02 0.  0.
         11    1    3    3    0    0 -0.25380582545E+03  0.10876289565E+02  0.31287393562E+03  0.40302083110E+03  0.00000000000E+00 0.  1.
        -11    1    3    3    0    0 -0.28270214869E+03  0.78130457071E+02  0.25674933761E+03  0.38980135397E+03  0.00000000000E+00 0. -1.
         22    1    1    2    0    0  0.53650797414E+03 -0.89006746636E+02 -0.29114840531E+04  0.29618410489E+04  0.00000000000E+00 0. -1.
<mgrwt>
<rscale>  0 0.29348227E+04</rscale>
<asrwt>0</asrwt>
<pdfrwt beam="1">  1        2 0.46896339E+00 0.29348227E+04</pdfrwt>
<pdfrwt beam="2">  1       -2 0.10867711E+00 0.29348227E+04</pdfrwt>
<totfact> 0.94465450E-01</totfact>
</mgrwt>
</event>
<event>
 6    1  0.9364335E-007  0.1107878E+04  0.7818608E-02  0.9197548E-01
         -2   -1    0    0    0  501 -0.00000000000E+00  0.00000000000E+00  0.91192071384E+03  0.91192071384E+03  0.00000000000E+00 0.  1.
          2   -1    0    0  501    0  0.00000000000E+00 -0.00000000000E+00 -0.33648556006E+03  0.33648556006E+03  0.00000000000E+00 0. -1.
         23    2    1    2    0    0  0.14519254154E+03  0.45975454034E+03 -0.87398196835E+01  0.49096616992E+03  0.92283715112E+02 0.  0.
         11    1    3    3    0    0  0.11367170345E+03  0.21267325159E+03 -0.17014072367E+02  0.24174500360E+03  0.00000000000E+00 0. -1.
        -11    1    3    3    0    0  0.31520838092E+02  0.24708128875E+03  0.82742526835E+01  0.24922116632E+03  0.00000000000E+00 0.  1.
         22    1    1    2    0    0 -0.14519254154E+03 -0.45975454034E+03  0.58417497346E+03  0.75744010397E+03  0.00000000000E+00 0.  1.
<mgrwt>
<rscale>  0 0.11078775E+04</rscale>
<asrwt>0</asrwt>
<pdfrwt beam="1">  1        2 0.51767010E-01 0.11078775E+04</pdfrwt>
<pdfrwt beam="2">  1       -2 0.14029549E+00 0.11078775E+04</pdfrwt>
<totfact> 0.34202702E+01</totfact>
</mgrwt>
</event>
<event>
 6    1  0.9364335E-007  0.1544825E+04  0.7818608E-02  0.8855180E-01
         -1   -1    0    0    0  501 -0.00000000000E+00  0.00000000000E+00  0.28957815563E+03  0.28957815563E+03  0.00000000000E+00 0.  1.
          1   -1    0    0  501    0  0.00000000000E+00 -0.00000000000E+00 -0.20603115196E+04  0.20603115196E+04  0.00000000000E+00 0. -1.
         23    2    1    2    0    0 -0.59667264975E+03 -0.23794228416E+03 -0.15334229510E+04  0.16650896945E+04  0.92211509015E+02 0.  0.
         11    1    3    3    0    0 -0.24454789159E+03 -0.14146613541E+03 -0.61647279538E+03  0.67812612853E+03  0.00000000000E+00 0.  1.
        -11    1    3    3    0    0 -0.35212475816E+03 -0.96476148751E+02 -0.91695015567E+03  0.98696356598E+03  0.00000000000E+00 0. -1.
         22    1    1    2    0    0  0.59667264975E+03  0.23794228416E+03 -0.23731041295E+03  0.68479998075E+03  0.00000000000E+00 0.  1.
<mgrwt>
<rscale>  0 0.15448252E+04</rscale>
<asrwt>0</asrwt>
<pdfrwt beam="1">  1        1 0.31697099E+00 0.15448252E+04</pdfrwt>
<pdfrwt beam="2">  1       -1 0.44550487E-01 0.15448252E+04</pdfrwt>
<totfact> 0.13051907E+01</totfact>
</mgrwt>
</event>
<event>
 6    1  0.9364335E-007  0.3531149E+04  0.7818608E-02  0.8106448E-01
         -2   -1    0    0    0  501 -0.00000000000E+00  0.00000000000E+00  0.12464585459E+04  0.12464585459E+04  0.00000000000E+00 0.  1.
          2   -1    0    0  501    0  0.00000000000E+00 -0.00000000000E+00 -0.25008875782E+04  0.25008875782E+04  0.00000000000E+00 0. -1.
         23    2    1    2    0    0 -0.14374207547E+04 -0.10178401399E+04 -0.73765794611E+03  0.19118000659E+04  0.93076690275E+02 0.  0.
         11    1    3    3    0    0 -0.11299821920E+04 -0.81432098606E+03 -0.54361594948E+03  0.14951577586E+04  0.00000000000E+00 0. -1.
        -11    1    3    3    0    0 -0.30743856266E+03 -0.20351915380E+03 -0.19404199663E+03  0.41664230730E+03  0.00000000000E+00 0.  1.
         22    1    1    2    0    0  0.14374207547E+04  0.10178401399E+04 -0.51677108620E+03  0.18355460582E+04  0.00000000000E+00 0.  1.
<mgrwt>
<rscale>  0 0.35311486E+04</rscale>
<asrwt>0</asrwt>
<pdfrwt beam="1">  1        2 0.38475194E+00 0.35311486E+04</pdfrwt>
<pdfrwt beam="2">  1       -2 0.19176285E+00 0.35311486E+04</pdfrwt>
<totfact> 0.42982810E-01</totfact>
</mgrwt>
</event>
<event>
 6    1  0.9364335E-007  0.2909020E+04  0.7818608E-02  0.8270199E-01
          1   -1    0    0  501    0  0.00000000000E+00  0.00000000000E+00  0.13396043200E+04  0.13396043200E+04  0.00000000000E+00 0. -1.
         -1   -1    0    0    0  501 -0.00000000000E+00 -0.00000000000E+00 -0.15792719165E+04  0.15792719165E+04  0.00000000000E+00 0.  1.
         23    2    1    2    0    0  0.13856932725E+04 -0.31431029259E+03 -0.42536554812E+03  0.14859001256E+04  0.89590894095E+02 0.  0.
         11    1    3    3    0    0  0.94853461355E+03 -0.24102901914E+03 -0.25818054760E+03  0.10121611020E+04  0.00000000000E+00 0. -1.
        -11    1    3    3    0    0  0.43715865893E+03 -0.73281273448E+02 -0.16718500052E+03  0.47373902363E+03  0.00000000000E+00 0.  1.
         22    1    1    2    0    0 -0.13856932725E+04  0.31431029259E+03  0.18569795161E+03  0.14329761110E+04  0.00000000000E+00 0. -1.
<mgrwt>
<rscale>  0 0.29090201E+04</rscale>
<asrwt>0</asrwt>
<pdfrwt beam="1">  1        1 0.20609297E+00 0.29090201E+04</pdfrwt>
<pdfrwt beam="2">  1       -1 0.24296491E+00 0.29090201E+04</pdfrwt>
<totfact> 0.56356242E-01</totfact>
</mgrwt>
</event>
<event>
 6    1  0.9364335E-007  0.3382458E+04  0.7818608E-02  0.8142225E-01
          2   -1    0    0  501    0  0.00000000000E+00  0.00000000000E+00  0.16514528167E+04  0.16514528167E+04  0.00000000000E+00 0. -1.
         -2   -1    0    0    0  501 -0.00000000000E+00 -0.00000000000E+00 -0.17319627600E+04  0.17319627600E+04  0.00000000000E+00 0.  1.
         23    2    1    2    0    0  0.10837362983E+04  0.20623696937E+03 -0.13209054995E+04  0.17234158215E+04  0.91393126247E+02 0.  0.
         11    1    3    3    0    0  0.42098833488E+03  0.93832531408E+02 -0.58336584147E+03  0.72550081119E+03  0.00000000000E+00 0. -1.
        -11    1    3    3    0    0  0.66274796339E+03  0.11240443797E+03 -0.73753965799E+03  0.99791501029E+03  0.00000000000E+00 0.  1.
         22    1    1    2    0    0 -0.10837362983E+04 -0.20623696937E+03  0.12403955561E+04  0.16599997552E+04  0.00000000000E+00 0. -1.
<mgrwt>
<rscale>  0 0.33824576E+04</rscale>
<asrwt>0</asrwt>
<pdfrwt beam="1">  1        2 0.25406966E+00 0.33824576E+04</pdfrwt>
<pdfrwt beam="2">  1       -2 0.26645581E+00 0.33824576E+04</pdfrwt>
<totfact> 0.44114221E-01</totfact>
</mgrwt>
</event>
<event>
 6    1  0.9364335E-007  0.1639540E+04  0.7818608E-02  0.8796619E-01
          2   -1    0    0  501    0  0.00000000000E+00  0.00000000000E+00  0.14607606297E+04  0.14607606297E+04  0.00000000000E+00 0. -1.
         -2   -1    0    0    0  501 -0.00000000000E+00 -0.00000000000E+00 -0.46004984567E+03  0.46004984567E+03  0.00000000000E+00 0.  1.
         23    2    1    2    0    0  0.40803400861E+03  0.21478754142E+03  0.12921719258E+04  0.13753060874E+04  0.95567295176E+02 0.  0.
         11    1    3    3    0    0  0.50860699180E+02  0.51180870817E+02  0.29102560121E+03  0.29983694371E+03  0.00000000000E+00 0.  1.
        -11    1    3    3    0    0  0.35717330943E+03  0.16360667061E+03  0.10011463246E+04  0.10754691436E+04  0.00000000000E+00 0. -1.
         22    1    1    2    0    0 -0.40803400861E+03 -0.21478754142E+03 -0.29146114181E+03  0.54550438800E+03  0.00000000000E+00 0.  1.
<mgrwt>
<rscale>  0 0.16395398E+04</rscale>
<asrwt>0</asrwt>
<pdfrwt beam="1">  1        2 0.22473240E+00 0.16395398E+04</pdfrwt>
<pdfrwt beam="2">  1       -2 0.70776900E-01 0.16395398E+04</pdfrwt>
<totfact> 0.23176191E+01</totfact>
</mgrwt>
</event>
<event>
 6    1  0.9364335E-007  0.1564064E+04  0.7818608E-02  0.8842934E-01
          1   -1    0    0  501    0  0.00000000000E+00  0.00000000000E+00  0.62753636787E+03  0.62753636787E+03  0.00000000000E+00 0. -1.
         -1   -1    0    0    0  501 -0.00000000000E+00 -0.00000000000E+00 -0.97456408517E+03  0.97456408517E+03  0.00000000000E+00 0.  1.
         23    2    1    2    0    0 -0.58034101609E+03 -0.44079091427E+03 -0.45696677851E+03  0.86509372157E+03  0.92066201123E+02 0.  0.
         11    1    3    3    0    0 -0.21046826611E+03 -0.15776476472E+03 -0.21800092424E+03  0.34162993867E+03  0.00000000000E+00 0. -1.
        -11    1    3    3    0    0 -0.36987274998E+03 -0.28302614955E+03 -0.23896585427E+03  0.52346378290E+03  0.00000000000E+00 0.  1.
         22    1    1    2    0    0  0.58034101609E+03  0.44079091427E+03  0.10993906121E+03  0.73700673147E+03  0.00000000000E+00 0. -1.
<mgrwt>
<rscale>  0 0.15640645E+04</rscale>
<asrwt>0</asrwt>
<pdfrwt beam="1">  1        1 0.96544058E-01 0.15640645E+04</pdfrwt>
<pdfrwt beam="2">  1       -1 0.14993293E+00 0.15640645E+04</pdfrwt>
<totfact> 0.10784947E+01</totfact>
</mgrwt>
</event>
<event>
 6    1  0.9364335E-007  0.2759382E+04  0.7818608E-02  0.8315991E-01
         -1   -1    0    0    0  501 -0.00000000000E+00  0.00000000000E+00  0.15640696981E+04  0.15640696981E+04  0.00000000000E+00 0.  1.
          1   -1    0    0  501    0  0.00000000000E+00 -0.00000000000E+00 -0.12170471599E+04  0.12170471599E+04  0.00000000000E+00 0. -1.
         23    2    1    2    0    0 -0.95358727368E+03  0.98715052201E+03  0.47851576010E+02  0.13763755629E+04  0.91241850019E+02 0.  0.
         11    1    3    3    0    0 -0.45748559209E+03  0.53904807880E+03  0.21249598977E+02  0.70733121215E+03  0.00000000000E+00 0.  1.
        -11    1    3    3    0    0 -0.49610168159E+03  0.44810244321E+03  0.26601977033E+02  0.66904435075E+03  0.00000000000E+00 0. -1.
         22    1    1    2    0    0  0.95358727368E+03 -0.98715052201E+03  0.29917096220E+03  0.14047412951E+04  0.00000000000E+00 0.  1.
<mgrwt>
<rscale>  0 0.27593815E+04</rscale>
<asrwt>0</asrwt>
<pdfrwt beam="1">  1        1 0.18723802E+00 0.27593815E+04</pdfrwt>
<pdfrwt beam="2">  1       -1 0.24062611E+00 0.27593815E+04</pdfrwt>
<totfact> 0.72441611E-01</totfact>
</mgrwt>
</event>
<event>
 6    1  0.9364335E-007  0.2925355E+04  0.7818608E-02  0.8265373E-01
          2   -1    0    0  501    0  0.00000000000E+00  0.00000000000E+00  0.24683250283E+04  0.24683250283E+04  0.00000000000E+00 0. -1.
         -2   -1    0    0    0  501 -0.00000000000E+00 -0.00000000000E+00 -0.86675173156E+03  0.86675173156E+03  0.00000000000E+00 0.  1.
         23    2    1    2    0    0 -0.46192377659E+03  0.13845523362E+04  0.88135552345E+03  0.17074796389E+04  0.91325853529E+02 0.  0.
         11    1    3    3    0    0 -0.14939399858E+03  0.57645121951E+03  0.33705769374E+03  0.68426783075E+03  0.00000000000E+00 0. -1.
        -11    1    3    3    0    0 -0.31252977801E+03  0.80810111670E+03  0.54429782971E+03  0.10232118082E+04  0.00000000000E+00 0.  1.
         22    1    1    2    0    0  0.46192377659E+03 -0.13845523362E+04  0.72021777325E+03  0.16275971209E+04  0.00000000000E+00 0. -1.
<mgrwt>
<rscale>  0 0.29253547E+04</rscale>
<asrwt>0</asrwt>
<pdfrwt beam="1">  1        2 0.37974231E+00 0.29253547E+04</pdfrwt>
<pdfrwt beam="2">  1       -2 0.13334642E+00 0.29253547E+04</pdfrwt>
<totfact> 0.12730478E+00</totfact>
</mgrwt>
</event>
<event>
 6    1  0.9364335E-007  0.3602253E+04  0.7818608E-02  0.8089976E-01
         -1   -1    0    0    0  501 -0.00000000000E+00  0.00000000000E+00  0.19449575371E+04  0.19449575371E+04  0.00000000000E+00 0.  1.
          1   -1    0    0  501    0  0.00000000000E+00 -0.00000000000E+00 -0.16679322618E+04  0.16679322618E+04  0.00000000000E+00 0. -1.
         23    2    1    2    0    0 -0.73768599343E+03  0.15562676050E+04 -0.38638227824E+03  0.17672844604E+04  0.88620628450E+02 0.  0.
         11    1    3    3    0    0 -0.48587393617E+03  0.10420093684E+04 -0.29989675916E+03  0.11881898299E+04  0.00000000000E+00 0. -1.
        -11    1    3    3    0    0 -0.25181205726E+03  0.51425823662E+03 -0.86485519082E+02  0.57909463055E+03  0.00000000000E+00 0.  1.
         22    1    1    2    0    0  0.73768599343E+03 -0.15562676050E+04  0.66340755360E+03  0.18456053385E+04  0.00000000000E+00 0. -1.
<mgrwt>
<rscale>  0 0.36022534E+04</rscale>
<asrwt>0</asrwt>
<pdfrwt beam="1">  1        1 0.25660496E+00 0.36022534E+04</pdfrwt>
<pdfrwt beam="2">  1       -1 0.29922424E+00 0.36022534E+04</pdfrwt>
<totfact> 0.13545385E-01</totfact>
</mgrwt>
</event>
<event>
 6    1  0.9364335E-007  0.6983657E+03  0.7818608E-02  0.9720031E-01
          2   -1    0    0  501    0  0.00000000000E+00  0.00000000000E+00  0.29513031930E+03  0.29513031930E+03  0.00000000000E+00 0. -1.
         -2   -1    0    0    0  501 -0.00000000000E+00 -0.00000000000E+00 -0.41313501827E+03  0.41313501827E+03  0.00000000000E+00 0.  1.
         23    2    1    2    0    0 -0.28551938468E+03  0.17944972081E+03  0.92259207803E+01  0.34783344119E+03  0.84731717029E+02 0.  0.
         13    1    3    3    0    0 -0.23381555238E+03  0.14531799434E+03 -0.26078039302E+02  0.27652684526E+03  0.00000000000E+00 0.  1.
        -13    1    3    3    0    0 -0.51703832296E+02  0.34131726466E+02  0.35303960083E+02  0.71306595930E+02  0.00000000000E+00 0. -1.
         22    1    1    2    0    0  0.28551938468E+03 -0.17944972081E+03 -0.12723061975E+03  0.36043189638E+03  0.00000000000E+00 0.  1.
<mgrwt>
<rscale>  0 0.69836572E+03</rscale>
<asrwt>0</asrwt>
<pdfrwt beam="1">  1        2 0.45404665E-01 0.69836572E+03</pdfrwt>
<pdfrwt beam="2">  1       -2 0.63559233E-01 0.69836572E+03</pdfrwt>
<totfact> 0.25865947E+02</totfact>
</mgrwt>
</event>
<event>
 6    1  0.9364335E-007  0.1194756E+04  0.7818608E-02  0.9117459E-01
         -2   -1    0    0    0  501 -0.00000000000E+00  0.00000000000E+00  0.52230002113E+03  0.52230002113E+03  0.00000000000E+00 0.  1.
          2   -1    0    0  501    0  0.00000000000E+00 -0.00000000000E+00 -0.68324765578E+03  0.68324765578E+03  0.00000000000E+00 0. -1.
         23    2    1    2    0    0  0.12056924289E+03  0.50074092966E+01  0.50583547158E+03  0.52793294328E+03  0.91003581328E+02 0.  0.
         11    1    3    3    0    0 -0.13708818515E+02  0.64484927338E+01  0.31472279136E+02  0.34928772060E+02  0.00000000000E+00 0. -1.
        -11    1    3    3    0    0  0.13427806141E+03 -0.14410834371E+01  0.47436319245E+03  0.49300417122E+03  0.00000000000E+00 0.  1.
         22    1    1    2    0    0 -0.12056924289E+03 -0.50074092966E+01 -0.66678310623E+03  0.67761473363E+03  0.00000000000E+00 0. -1.
<mgrwt>
<rscale>  0 0.11947556E+04</rscale>
<asrwt>0</asrwt>
<pdfrwt beam="1">  1        2 0.10511502E+00 0.11947556E+04</pdfrwt>
<pdfrwt beam="2">  1       -2 0.80353850E-01 0.11947556E+04</pdfrwt>
<totfact> 0.57102201E+01</totfact>
</mgrwt>
</event>
<event>
 6    1  0.9364335E-007  0.2954026E+04  0.7818608E-02  0.8256982E-01
          2   -1    0    0  501    0  0.00000000000E+00  0.00000000000E+00  0.16273057503E+04  0.16273057503E+04  0.00000000000E+00 0. -1.
         -2   -1    0    0    0  501 -0.00000000000E+00 -0.00000000000E+00 -0.13406011969E+04  0.13406011969E+04  0.00000000000E+00 0.  1.
         23    2    1    2    0    0 -0.11806416507E+04 -0.73006703434E+03 -0.35915053837E+03  0.14368806962E+04  0.93404731363E+02 0.  0.
         11    1    3    3    0    0 -0.98623609723E+03 -0.64868123288E+03 -0.29943298366E+03  0.12178296650E+04  0.00000000000E+00 0. -1.
        -11    1    3    3    0    0 -0.19440555345E+03 -0.81385801466E+02 -0.59717554710E+02  0.21905103111E+03  0.00000000000E+00 0.  1.
         22    1    1    2    0    0  0.11806416507E+04  0.73006703434E+03  0.64585509180E+03  0.15310262511E+04  0.00000000000E+00 0. -1.
<mgrwt>
<rscale>  0 0.29540264E+04</rscale>
<asrwt>0</asrwt>
<pdfrwt beam="1">  1        2 0.25035473E+00 0.29540264E+04</pdfrwt>
<pdfrwt beam="2">  1       -2 0.20624634E+00 0.29540264E+04</pdfrwt>
<totfact> 0.11202733E+00</totfact>
</mgrwt>
</event>
<event>
 6    1  0.9364335E-007  0.1571642E+04  0.7818608E-02  0.8838161E-01
         -2   -1    0    0    0  501 -0.00000000000E+00  0.00000000000E+00  0.74884314427E+03  0.74884314427E+03  0.00000000000E+00 0.  1.
          2   -1    0    0  501    0  0.00000000000E+00 -0.00000000000E+00 -0.82462496259E+03  0.82462496259E+03  0.00000000000E+00 0. -1.
         23    2    1    2    0    0  0.29167828996E+03 -0.71445542003E+03  0.93819206019E+02  0.78334958442E+03  0.96497440170E+02 0.  0.
         13    1    3    3    0    0  0.81536076024E+02 -0.23914046712E+03  0.74014023192E+02  0.26327622441E+03  0.00000000000E+00 0. -1.
        -13    1    3    3    0    0  0.21014221394E+03 -0.47531495290E+03  0.19805182827E+02  0.52007336002E+03  0.00000000000E+00 0.  1.
         22    1    1    2    0    0 -0.29167828996E+03  0.71445542003E+03 -0.16960102434E+03  0.79011852244E+03  0.00000000000E+00 0.  1.
<mgrwt>
<rscale>  0 0.15716421E+04</rscale>
<asrwt>0</asrwt>
<pdfrwt beam="1">  1        2 0.12686538E+00 0.15716421E+04</pdfrwt>
<pdfrwt beam="2">  1       -2 0.11520664E+00 0.15716421E+04</pdfrwt>
<totfact> 0.18659460E+01</totfact>
</mgrwt>
</event>
<event>
 6    1  0.9364335E-007  0.3250010E+04  0.7818608E-02  0.8175733E-01
          2   -1    0    0  501    0  0.00000000000E+00  0.00000000000E+00  0.39622963320E+04  0.39622963320E+04  0.00000000000E+00 0. -1.
         -2   -1    0    0    0  501 -0.00000000000E+00 -0.00000000000E+00 -0.66644229758E+03  0.66644229758E+03  0.00000000000E+00 0.  1.
         23    2    1    2    0    0 -0.11482792982E+04 -0.28547402491E+02  0.32835846464E+04  0.34800390001E+04  0.96865942171E+02 0.  0.
         13    1    3    3    0    0 -0.48197142013E+03  0.26253059723E+02  0.14640270958E+04  0.15415450075E+04  0.00000000000E+00 0. -1.
        -13    1    3    3    0    0 -0.66630787811E+03 -0.54800462213E+02  0.18195575507E+04  0.19384939926E+04  0.00000000000E+00 0.  1.
         22    1    1    2    0    0  0.11482792982E+04  0.28547402491E+02  0.12269387982E+02  0.11486996295E+04  0.00000000000E+00 0.  1.
<mgrwt>
<rscale>  0 0.32500104E+04</rscale>
<asrwt>0</asrwt>
<pdfrwt beam="1">  1        2 0.60958404E+00 0.32500104E+04</pdfrwt>
<pdfrwt beam="2">  1       -2 0.10252959E+00 0.32500104E+04</pdfrwt>
<totfact> 0.23901174E-01</totfact>
</mgrwt>
</event>
<event>
 6    1  0.9364335E-007  0.5163741E+03  0.7818608E-02  0.1009591E+00
          1   -1    0    0  501    0  0.00000000000E+00  0.00000000000E+00  0.76345822482E+03  0.76345822482E+03  0.00000000000E+00 0. -1.
         -1   -1    0    0    0  501 -0.00000000000E+00 -0.00000000000E+00 -0.87313940925E+02  0.87313940925E+02  0.00000000000E+00 0.  1.
         23    2    1    2    0    0 -0.18907275073E+03  0.14914189004E+03  0.23636638521E+03  0.34937770167E+03  0.90575393631E+02 0.  0.
         13    1    3    3    0    0 -0.94078258973E+02  0.20487269959E+02  0.10454456215E+03  0.14212674807E+03  0.00000000000E+00 0. -1.
        -13    1    3    3    0    0 -0.94994491761E+02  0.12865462008E+03  0.13182182306E+03  0.20725095360E+03  0.00000000000E+00 0.  1.
         22    1    1    2    0    0  0.18907275073E+03 -0.14914189004E+03  0.43977789869E+03  0.50139446408E+03  0.00000000000E+00 0. -1.
<mgrwt>
<rscale>  0 0.51637408E+03</rscale>
<asrwt>0</asrwt>
<pdfrwt beam="1">  1        1 0.11745511E+00 0.51637408E+03</pdfrwt>
<pdfrwt beam="2">  1       -1 0.13432915E-01 0.51637408E+03</pdfrwt>
<totfact> 0.94566439E+02</totfact>
</mgrwt>
</event>
<event>
 6    1  0.9364335E-007  0.2645455E+03  0.7818608E-02  0.1104443E+00
          3   -1    0    0  501    0  0.00000000000E+00  0.00000000000E+00  0.35215908960E+03  0.35215908960E+03  0.00000000000E+00 0. -1.
         -3   -1    0    0    0  501 -0.00000000000E+00 -0.00000000000E+00 -0.49682317771E+02  0.49682317771E+02  0.00000000000E+00 0.  1.
         23    2    1    2    0    0  0.31272501212E+02 -0.11166496339E+03  0.15588262912E+03  0.21492732000E+03  0.91909332704E+02 0.  0.
         13    1    3    3    0    0  0.59953559289E+02 -0.92888969489E+02  0.13611083144E+03  0.17535378057E+03  0.00000000000E+00 0. -1.
        -13    1    3    3    0    0 -0.28681058077E+02 -0.18775993906E+02  0.19771797680E+02  0.39573539431E+02  0.00000000000E+00 0.  1.
         22    1    1    2    0    0 -0.31272501212E+02  0.11166496339E+03  0.14659414271E+03  0.18691408738E+03  0.00000000000E+00 0. -1.
<mgrwt>
<rscale>  0 0.26454550E+03</rscale>
<asrwt>0</asrwt>
<pdfrwt beam="1">  1        3 0.54178320E-01 0.26454550E+03</pdfrwt>
<pdfrwt beam="2">  1       -3 0.76434337E-02 0.26454550E+03</pdfrwt>
<totfact> 0.98886495E+02</totfact>
</mgrwt>
</event>
<event>
 6    1  0.9364335E-007  0.1991005E+04  0.7818608E-02  0.8610838E-01
          2   -1    0    0  501    0  0.00000000000E+00  0.00000000000E+00  0.18992385225E+04  0.18992385225E+04  0.00000000000E+00 0. -1.
         -2   -1    0    0    0  501 -0.00000000000E+00 -0.00000000000E+00 -0.52180133718E+03  0.52180133718E+03  0.00000000000E+00 0.  1.
         23    2    1    2    0    0 -0.25572317568E+03  0.95204706192E+03  0.54025746348E+03  0.11277271220E+04  0.90013244673E+02 0.  0.
         13    1    3    3    0    0 -0.14169743833E+03  0.59034382852E+03  0.37840045324E+03  0.71538164843E+03  0.00000000000E+00 0. -1.
        -13    1    3    3    0    0 -0.11402573735E+03  0.36170323340E+03  0.16185701024E+03  0.41234547359E+03  0.00000000000E+00 0.  1.
         22    1    1    2    0    0  0.25572317568E+03 -0.95204706192E+03  0.83717972182E+03  0.12933127376E+04  0.00000000000E+00 0. -1.
<mgrwt>
<rscale>  0 0.19910050E+04</rscale>
<asrwt>0</asrwt>
<pdfrwt beam="1">  1        2 0.29219054E+00 0.19910050E+04</pdfrwt>
<pdfrwt beam="2">  1       -2 0.80277130E-01 0.19910050E+04</pdfrwt>
<totfact> 0.96918013E+00</totfact>
</mgrwt>
</event>
<event>
 6    1  0.9364335E-007  0.2118391E+04  0.7818608E-02  0.8553185E-01
         -2   -1    0    0    0  501 -0.00000000000E+00  0.00000000000E+00  0.26238740352E+04  0.26238740352E+04  0.00000000000E+00 0.  1.
          2   -1    0    0  501    0  0.00000000000E+00 -0.00000000000E+00 -0.42757198654E+03  0.42757198654E+03  0.00000000000E+00 0. -1.
         23    2    1    2    0    0 -0.92173993812E+03 -0.12346060682E+03  0.37585247686E+03  0.10072142153E+04  0.91478720030E+02 0.  0.
         11    1    3    3    0    0 -0.67730161765E+03 -0.13121935511E+03  0.27638716113E+03  0.74319974654E+03  0.00000000000E+00 0. -1.
        -11    1    3    3    0    0 -0.24443832047E+03  0.77587482897E+01  0.99465315734E+02  0.26401446878E+03  0.00000000000E+00 0.  1.
         22    1    1    2    0    0  0.92173993812E+03  0.12346060682E+03  0.18204495718E+04  0.20442318064E+04  0.00000000000E+00 0.  1.
<mgrwt>
<rscale>  0 0.21183909E+04</rscale>
<asrwt>0</asrwt>
<pdfrwt beam="1">  1        2 0.65780307E-01 0.21183909E+04</pdfrwt>
<pdfrwt beam="2">  1       -2 0.40367292E+00 0.21183909E+04</pdfrwt>
<totfact> 0.47741176E-01</totfact>
</mgrwt>
</event>
<event>
 6    1  0.9364335E-007  0.2800810E+04  0.7818608E-02  0.8303017E-01
         -1   -1    0    0    0  501 -0.00000000000E+00  0.00000000000E+00  0.73052971378E+03  0.73052971378E+03  0.00000000000E+00 0.  1.
          1   -1    0    0  501    0  0.00000000000E+00 -0.00000000000E+00 -0.26845376507E+04  0.26845376507E+04  0.00000000000E+00 0. -1.
         23    2    1    2    0    0  0.80268108325E+03 -0.20295305912E+03 -0.23531489173E+04  0.24959371300E+04  0.83099124030E+02 0.  0.
         13    1    3    3    0    0  0.55739519323E+03 -0.16262182334E+03 -0.15492054574E+04  0.16544403308E+04  0.00000000000E+00 0.  1.
        -13    1    3    3    0    0  0.24528589002E+03 -0.40331235774E+02 -0.80394345990E+03  0.84149679924E+03  0.00000000000E+00 0. -1.
         22    1    1    2    0    0 -0.80268108325E+03  0.20295305912E+03  0.39914098041E+03  0.91913023443E+03  0.00000000000E+00 0.  1.
<mgrwt>
<rscale>  0 0.28008103E+04</rscale>
<asrwt>0</asrwt>
<pdfrwt beam="1">  1        1 0.41300580E+00 0.28008103E+04</pdfrwt>
<pdfrwt beam="2">  1       -1 0.11238919E+00 0.28008103E+04</pdfrwt>
<totfact> 0.63142728E-01</totfact>
</mgrwt>
</event>
<event>
 6    1  0.9364335E-007  0.4612273E+04  0.7818608E-02  0.7891271E-01
          2   -1    0    0  501    0  0.00000000000E+00  0.00000000000E+00  0.39770732547E+04  0.39770732547E+04  0.00000000000E+00 0. -1.
         -2   -1    0    0    0  501 -0.00000000000E+00 -0.00000000000E+00 -0.13372309002E+04  0.13372309002E+04  0.00000000000E+00 0.  1.
         23    2    1    2    0    0  0.17197066278E+04  0.63762354760E+03  0.29294960023E+04  0.34574643908E+04  0.90324482794E+02 0.  0.
         13    1    3    3    0    0  0.74280974589E+03  0.26890361391E+03  0.11788162968E+04  0.14190431050E+04  0.00000000000E+00 0. -1.
        -13    1    3    3    0    0  0.97689688189E+03  0.36871993369E+03  0.17506797055E+04  0.20384212858E+04  0.00000000000E+00 0.  1.
         22    1    1    2    0    0 -0.17197066278E+04 -0.63762354760E+03 -0.28965364779E+03  0.18568397642E+04  0.00000000000E+00 0.  1.
<mgrwt>
<rscale>  0 0.46122729E+04</rscale>
<asrwt>0</asrwt>
<pdfrwt beam="1">  1        2 0.61185742E+00 0.46122729E+04</pdfrwt>
<pdfrwt beam="2">  1       -2 0.20572783E+00 0.46122729E+04</pdfrwt>
<totfact> 0.32574785E-02</totfact>
</mgrwt>
</event>
<event>
 6    1  0.9364335E-007  0.2227851E+04  0.7818608E-02  0.8506924E-01
         -2   -1    0    0    0  501 -0.00000000000E+00  0.00000000000E+00  0.14240042107E+04  0.14240042107E+04  0.00000000000E+00 0.  1.
          2   -1    0    0  501    0  0.00000000000E+00 -0.00000000000E+00 -0.87136692617E+03  0.87136692617E+03  0.00000000000E+00 0. -1.
         23    2    1    2    0    0  0.32190980160E+03  0.10206486745E+04  0.58798387122E+03  0.12245774974E+04  0.92278801881E+02 0.  0.
         13    1    3    3    0    0  0.10825033696E+02  0.13580966692E+03  0.72813297931E+02  0.15447725832E+03  0.00000000000E+00 0. -1.
        -13    1    3    3    0    0  0.31108476791E+03  0.88483900758E+03  0.51517057329E+03  0.10701002391E+04  0.00000000000E+00 0.  1.
         22    1    1    2    0    0 -0.32190980160E+03 -0.10206486745E+04 -0.35346586658E+02  0.10707936395E+04  0.00000000000E+00 0.  1.
<mgrwt>
<rscale>  0 0.22278511E+04</rscale>
<asrwt>0</asrwt>
<pdfrwt beam="1">  1        2 0.13405645E+00 0.22278511E+04</pdfrwt>
<pdfrwt beam="2">  1       -2 0.21907757E+00 0.22278511E+04</pdfrwt>
<totfact> 0.28012380E+00</totfact>
</mgrwt>
</event>
<event>
 6    1  0.9364335E-007  0.1977619E+04  0.7818608E-02  0.8617157E-01
          1   -1    0    0  501    0  0.00000000000E+00  0.00000000000E+00  0.13898709045E+04  0.13898709045E+04  0.00000000000E+00 0. -1.
         -1   -1    0    0    0  501 -0.00000000000E+00 -0.00000000000E+00 -0.70347814418E+03  0.70347814418E+03  0.00000000000E+00 0.  1.
         23    2    1    2    0    0 -0.22710961930E+03 -0.43859692991E+03  0.12480581613E+04  0.13454091656E+04  0.92361262086E+02 0.  0.
         11    1    3    3    0    0 -0.56137294902E+01 -0.60445343424E+02  0.21088768063E+03  0.21945105911E+03  0.00000000000E+00 0. -1.
        -11    1    3    3    0    0 -0.22149588981E+03 -0.37815158648E+03  0.10371704806E+04  0.11259581065E+04  0.00000000000E+00 0.  1.
         22    1    1    2    0    0  0.22710961930E+03  0.43859692991E+03 -0.56166540097E+03  0.74793988312E+03  0.00000000000E+00 0.  1.
<mgrwt>
<rscale>  0 0.19776186E+04</rscale>
<asrwt>0</asrwt>
<pdfrwt beam="1">  1        1 0.21382629E+00 0.19776186E+04</pdfrwt>
<pdfrwt beam="2">  1       -1 0.10822741E+00 0.19776186E+04</pdfrwt>
<totfact> 0.57566186E+00</totfact>
</mgrwt>
</event>
<event>
 6    1  0.9885206E-007  0.3173495E+04  0.7818608E-02  0.8195852E-01
          1   -1    0    0  501    0  0.00000000000E+00  0.00000000000E+00  0.18933481250E+04  0.18933481250E+04  0.00000000000E+00 0. -1.
         -1   -1    0    0    0  501 -0.00000000000E+00 -0.00000000000E+00 -0.13297961085E+04  0.13297961085E+04  0.00000000000E+00 0.  1.
         23    2    1    2    0    0  0.11448584024E+04  0.66554754320E+03  0.11673489309E+04  0.17677319182E+04  0.92294716190E+02 0.  0.
         11    1    3    3    0    0  0.84964082680E+03  0.44925457641E+03  0.82605602756E+03  0.12673151817E+04  0.00000000000E+00 0. -1.
        -11    1    3    3    0    0  0.29521757560E+03  0.21629296679E+03  0.34129290329E+03  0.50041673659E+03  0.00000000000E+00 0.  1.
         22    1    1    2    0    0 -0.11448584024E+04 -0.66554754320E+03 -0.60379691428E+03  0.14554123153E+04  0.00000000000E+00 0.  1.
<mgrwt>
<rscale>  0 0.31734946E+04</rscale>
<asrwt>0</asrwt>
<pdfrwt beam="1">  1        1 0.29128433E+00 0.31734946E+04</pdfrwt>
<pdfrwt beam="2">  1       -1 0.20458402E+00 0.31734946E+04</pdfrwt>
<totfact> 0.41322580E-01</totfact>
</mgrwt>
</event>
<event>
 6    1  0.9880892E-007  0.3932697E+04  0.7818608E-02  0.8018263E-01
         -2   -1    0    0    0  501 -0.00000000000E+00  0.00000000000E+00  0.17788103863E+04  0.17788103863E+04  0.00000000000E+00 0.  1.
          2   -1    0    0  501    0  0.00000000000E+00 -0.00000000000E+00 -0.21736584991E+04  0.21736584991E+04  0.00000000000E+00 0. -1.
         23    2    1    2    0    0 -0.96609282960E+02  0.19619311743E+04 -0.26268413031E+03  0.19837193827E+04  0.87363324885E+02 0.  0.
         13    1    3    3    0    0 -0.75617232250E+02  0.94212807447E+03 -0.93601522363E+02  0.94978130088E+03  0.00000000000E+00 0.  1.
        -13    1    3    3    0    0 -0.20992050710E+02  0.10198030998E+04 -0.16908260795E+03  0.10339380818E+04  0.00000000000E+00 0. -1.
         22    1    1    2    0    0  0.96609282960E+02 -0.19619311743E+04 -0.13216398254E+03  0.19687495028E+04  0.00000000000E+00 0. -1.
<mgrwt>
<rscale>  0 0.39326969E+04</rscale>
<asrwt>0</asrwt>
<pdfrwt beam="1">  1        2 0.33440900E+00 0.39326969E+04</pdfrwt>
<pdfrwt beam="2">  1       -2 0.27366314E+00 0.39326969E+04</pdfrwt>
<totfact> 0.19510247E-01</totfact>
</mgrwt>
</event>
<event>
 6    1  0.9364335E-007  0.6572185E+04  0.7818608E-02  0.7623241E-01
         -2   -1    0    0    0  501 -0.00000000000E+00  0.00000000000E+00  0.27290731992E+04  0.27290731992E+04  0.00000000000E+00 0.  1.
          2   -1    0    0  501    0  0.00000000000E+00 -0.00000000000E+00 -0.39568028155E+04  0.39568028155E+04  0.00000000000E+00 0. -1.
         23    2    1    2    0    0  0.20766500462E+04 -0.13453530375E+04  0.15848246214E+04  0.29398232187E+04  0.91876367285E+02 0.  0.
         11    1    3    3    0    0  0.73797919096E+03 -0.43284903916E+03  0.57342848747E+03  0.10299474779E+04  0.00000000000E+00 0. -1.
        -11    1    3    3    0    0  0.13386708552E+04 -0.91250399838E+03  0.10113961339E+04  0.19098757408E+04  0.00000000000E+00 0.  1.
         22    1    1    2    0    0 -0.20766500462E+04  0.13453530375E+04 -0.28125542378E+04  0.37460527960E+04  0.00000000000E+00 0. -1.
<mgrwt>
<rscale>  0 0.65721852E+04</rscale>
<asrwt>0</asrwt>
<pdfrwt beam="1">  1        2 0.60873889E+00 0.65721852E+04</pdfrwt>
<pdfrwt beam="2">  1       -2 0.41985742E+00 0.65721852E+04</pdfrwt>
<totfact> 0.13085071E-03</totfact>
</mgrwt>
</event>
<event>
 6    1  0.9364335E-007  0.8528490E+03  0.7818608E-02  0.9486521E-01
          1   -1    0    0  501    0  0.00000000000E+00  0.00000000000E+00  0.21890656995E+04  0.21890656995E+04  0.00000000000E+00 0. -1.
         -1   -1    0    0    0  501 -0.00000000000E+00 -0.00000000000E+00 -0.83066415727E+02  0.83066415727E+02  0.00000000000E+00 0.  1.
         23    2    1    2    0    0 -0.10160615220E+03  0.36704547093E+03  0.58604980133E+03  0.70519477855E+03  0.93803614849E+02 0.  0.
         11    1    3    3    0    0 -0.28127459054E+02  0.98840670919E+02  0.90425340350E+02  0.13688452929E+03  0.00000000000E+00 0. -1.
        -11    1    3    3    0    0 -0.73478693141E+02  0.26820480001E+03  0.49562446098E+03  0.56831024926E+03  0.00000000000E+00 0.  1.
         22    1    1    2    0    0  0.10160615220E+03 -0.36704547093E+03  0.15199494825E+04  0.15669373367E+04  0.00000000000E+00 0. -1.
<mgrwt>
<rscale>  0 0.85284897E+03</rscale>
<asrwt>0</asrwt>
<pdfrwt beam="1">  1        1 0.33677929E+00 0.85284897E+03</pdfrwt>
<pdfrwt beam="2">  1       -1 0.12779450E-01 0.85284897E+03</pdfrwt>
<totfact> 0.96810827E+01</totfact>
</mgrwt>
</event>
<event>
 6    1  0.9364335E-007  0.1268102E+04  0.7818608E-02  0.9055250E-01
          2   -1    0    0  501    0  0.00000000000E+00  0.00000000000E+00  0.66358038525E+03  0.66358038525E+03  0.00000000000E+00 0. -1.
         -2   -1    0    0    0  501 -0.00000000000E+00 -0.00000000000E+00 -0.60583610896E+03  0.60583610896E+03  0.00000000000E+00 0.  1.
         23    2    1    2    0    0 -0.14281810322E+03  0.28131760402E+03  0.57575818410E+03  0.66288948441E+03  0.91588083499E+02 0.  0.
         13    1    3    3    0    0 -0.87576491595E+01  0.80827723716E+01  0.82036412430E+02  0.82897530678E+02  0.00000000000E+00 0.  1.
        -13    1    3    3    0    0 -0.13406045406E+03  0.27323483165E+03  0.49372177167E+03  0.57999195373E+03  0.00000000000E+00 0. -1.
         22    1    1    2    0    0  0.14281810322E+03 -0.28131760402E+03 -0.51801390780E+03  0.60652700980E+03  0.00000000000E+00 0.  1.
<mgrwt>
<rscale>  0 0.12681025E+04</rscale>
<asrwt>0</asrwt>
<pdfrwt beam="1">  1        2 0.10208929E+00 0.12681025E+04</pdfrwt>
<pdfrwt beam="2">  1       -2 0.93205555E-01 0.12681025E+04</pdfrwt>
<totfact> 0.41960049E+01</totfact>
</mgrwt>
</event>
<event>
 6    1  0.9364335E-007  0.2819503E+04  0.7818608E-02  0.8297239E-01
         -3   -1    0    0    0  501 -0.00000000000E+00  0.00000000000E+00  0.10578531450E+04  0.10578531450E+04  0.00000000000E+00 0.  1.
          3   -1    0    0  501    0  0.00000000000E+00 -0.00000000000E+00 -0.18787099182E+04  0.18787099182E+04  0.00000000000E+00 0. -1.
         23    2    1    2    0    0  0.51629544721E+02  0.10388326095E+04  0.57804987938E+03  0.11933537748E+04  0.90070907021E+02 0.  0.
         13    1    3    3    0    0  0.43015774044E+02  0.89420590047E+03  0.46022744495E+03  0.10066100786E+04  0.00000000000E+00 0. -1.
        -13    1    3    3    0    0  0.86137706772E+01  0.14462670904E+03  0.11782243443E+03  0.18674369619E+03  0.00000000000E+00 0.  1.
         22    1    1    2    0    0 -0.51629544721E+02 -0.10388326095E+04 -0.13989066526E+04  0.17432092884E+04  0.00000000000E+00 0. -1.
<mgrwt>
<rscale>  0 0.28195029E+04</rscale>
<asrwt>0</asrwt>
<pdfrwt beam="1">  1        3 0.28903229E+00 0.28195029E+04</pdfrwt>
<pdfrwt beam="2">  1       -3 0.16274664E+00 0.28195029E+04</pdfrwt>
<totfact> 0.26120942E-02</totfact>
</mgrwt>
</event>
<event>
 6    1  0.9364335E-007  0.1843353E+04  0.7818608E-02  0.8683579E-01
         -2   -1    0    0    0  501 -0.00000000000E+00  0.00000000000E+00  0.10870709592E+04  0.10870709592E+04  0.00000000000E+00 0.  1.
          2   -1    0    0  501    0  0.00000000000E+00 -0.00000000000E+00 -0.78144594037E+03  0.78144594037E+03  0.00000000000E+00 0. -1.
         23    2    1    2    0    0  0.20867433597E+03  0.86974659466E+03  0.36781694901E+03  0.97192783344E+03  0.96696887328E+02 0.  0.
         11    1    3    3    0    0  0.83164607759E+02  0.33169322479E+03  0.90474379082E+02  0.35372639233E+03  0.00000000000E+00 0.  1.
        -11    1    3    3    0    0  0.12550972821E+03  0.53805336987E+03  0.27734256992E+03  0.61820144111E+03  0.00000000000E+00 0. -1.
         22    1    1    2    0    0 -0.20867433597E+03 -0.86974659466E+03 -0.62191930132E+02  0.89658906618E+03  0.00000000000E+00 0. -1.
<mgrwt>
<rscale>  0 0.18433526E+04</rscale>
<asrwt>0</asrwt>
<pdfrwt beam="1">  1        2 0.12022245E+00 0.18433526E+04</pdfrwt>
<pdfrwt beam="2">  1       -2 0.16724169E+00 0.18433526E+04</pdfrwt>
<totfact> 0.74529383E+00</totfact>
</mgrwt>
</event>
<event>
 6    1  0.9364335E-007  0.2498382E+04  0.7818608E-02  0.8403562E-01
          2   -1    0    0  501    0  0.00000000000E+00  0.00000000000E+00  0.11414605066E+04  0.11414605066E+04  0.00000000000E+00 0. -1.
         -2   -1    0    0    0  501 -0.00000000000E+00 -0.00000000000E+00 -0.13670889360E+04  0.13670889360E+04  0.00000000000E+00 0.  1.
         23    2    1    2    0    0 -0.63984216273E+03  0.86975255663E+03  0.51440076597E+03  0.11995380932E+04  0.91738682813E+02 0.  0.
         11    1    3    3    0    0 -0.46696617838E+03  0.65609824228E+03  0.42469928234E+03  0.91043494864E+03  0.00000000000E+00 0.  1.
        -11    1    3    3    0    0 -0.17287598435E+03  0.21365431434E+03  0.89701483627E+02  0.28910314452E+03  0.00000000000E+00 0. -1.
         22    1    1    2    0    0  0.63984216273E+03 -0.86975255663E+03 -0.74002919544E+03  0.13090113495E+04  0.00000000000E+00 0.  1.
<mgrwt>
<rscale>  0 0.24983819E+04</rscale>
<asrwt>0</asrwt>
<pdfrwt beam="1">  1        2 0.17560931E+00 0.24983819E+04</pdfrwt>
<pdfrwt beam="2">  1       -2 0.21032137E+00 0.24983819E+04</pdfrwt>
<totfact> 0.20885467E+00</totfact>
</mgrwt>
</event>
<event>
 6    1  0.9364335E-007  0.1000128E+04  0.7818608E-02  0.9308405E-01
         -2   -1    0    0    0  501 -0.00000000000E+00  0.00000000000E+00  0.21737665963E+03  0.21737665963E+03  0.00000000000E+00 0.  1.
          2   -1    0    0  501    0  0.00000000000E+00 -0.00000000000E+00 -0.11503712417E+04  0.11503712417E+04  0.00000000000E+00 0. -1.
         23    2    1    2    0    0  0.30114702276E+03  0.32687252242E+03 -0.77148631987E+03  0.89486303797E+03  0.89741516307E+02 0.  0.
         11    1    3    3    0    0  0.13613333997E+03  0.94301094107E+02 -0.23803575430E+03  0.28997586611E+03  0.00000000000E+00 0.  1.
        -11    1    3    3    0    0  0.16501368279E+03  0.23257142831E+03 -0.53345056557E+03  0.60488717186E+03  0.00000000000E+00 0. -1.
         22    1    1    2    0    0 -0.30114702276E+03 -0.32687252242E+03 -0.16150826219E+03  0.47288486335E+03  0.00000000000E+00 0.  1.
<mgrwt>
<rscale>  0 0.10001277E+04</rscale>
<asrwt>0</asrwt>
<pdfrwt beam="1">  1        2 0.17698019E+00 0.10001277E+04</pdfrwt>
<pdfrwt beam="2">  1       -2 0.33442563E-01 0.10001277E+04</pdfrwt>
<totfact> 0.16905434E+02</totfact>
</mgrwt>
</event>
<event>
 6    1  0.9364335E-007  0.3126232E+04  0.7818608E-02  0.8208575E-01
         -2   -1    0    0    0  501 -0.00000000000E+00  0.00000000000E+00  0.11861640246E+04  0.11861640246E+04  0.00000000000E+00 0.  1.
          2   -1    0    0  501    0  0.00000000000E+00 -0.00000000000E+00 -0.20598601979E+04  0.20598601979E+04  0.00000000000E+00 0. -1.
         23    2    1    2    0    0 -0.11895911671E+04  0.65912475861E+03 -0.12348498921E+04  0.18388978597E+04  0.84371144599E+02 0.  0.
         13    1    3    3    0    0 -0.49946611058E+03  0.23375939736E+03 -0.52343594260E+03  0.76032561279E+03  0.00000000000E+00 0. -1.
        -13    1    3    3    0    0 -0.69012505654E+03  0.42536536125E+03 -0.71141394951E+03  0.10785722469E+04  0.00000000000E+00 0.  1.
         22    1    1    2    0    0  0.11895911671E+04 -0.65912475861E+03  0.36115371874E+03  0.14071263628E+04  0.00000000000E+00 0.  1.
<mgrwt>
<rscale>  0 0.31262323E+04</rscale>
<asrwt>0</asrwt>
<pdfrwt beam="1">  1        2 0.31690156E+00 0.31262323E+04</pdfrwt>
<pdfrwt beam="2">  1       -2 0.18248678E+00 0.31262323E+04</pdfrwt>
<totfact> 0.91376394E-01</totfact>
</mgrwt>
</event>
<event>
 6    1  0.9364335E-007  0.1148474E+04  0.7818608E-02  0.9159192E-01
          1   -1    0    0  501    0  0.00000000000E+00  0.00000000000E+00  0.51248396501E+03  0.51248396501E+03  0.00000000000E+00 0. -1.
         -1   -1    0    0    0  501 -0.00000000000E+00 -0.00000000000E+00 -0.64343121608E+03  0.64343121608E+03  0.00000000000E+00 0.  1.
         23    2    1    2    0    0 -0.31009367732E+03 -0.14187096548E+03 -0.52627957243E+03  0.63382983953E+03  0.92111983756E+02 0.  0.
         13    1    3    3    0    0 -0.28612396255E+03 -0.12060946658E+03 -0.41672312537E+03  0.51968425856E+03  0.00000000000E+00 0. -1.
        -13    1    3    3    0    0 -0.23969714772E+02 -0.21261498904E+02 -0.10955644706E+03  0.11414558097E+03  0.00000000000E+00 0.  1.
         22    1    1    2    0    0  0.31009367732E+03  0.14187096548E+03  0.39533232136E+03  0.52208534156E+03  0.00000000000E+00 0. -1.
<mgrwt>
<rscale>  0 0.11484741E+04</rscale>
<asrwt>0</asrwt>
<pdfrwt beam="1">  1        1 0.78843687E-01 0.11484741E+04</pdfrwt>
<pdfrwt beam="2">  1       -1 0.98989417E-01 0.11484741E+04</pdfrwt>
<totfact> 0.41524985E+01</totfact>
</mgrwt>
</event>
<event>
 6    1  0.9364335E-007  0.1480650E+04  0.7818608E-02  0.8897424E-01
          2   -1    0    0  501    0  0.00000000000E+00  0.00000000000E+00  0.13688540430E+04  0.13688540430E+04  0.00000000000E+00 0. -1.
         -2   -1    0    0    0  501 -0.00000000000E+00 -0.00000000000E+00 -0.40039391324E+03  0.40039391324E+03  0.00000000000E+00 0.  1.
         23    2    1    2    0    0 -0.14422076970E+03  0.54907555370E+03 -0.76495557198E+02  0.58003982400E+03  0.91164867531E+02 0.  0.
         13    1    3    3    0    0 -0.10355483568E+03  0.42894160726E+03 -0.21467540437E+02  0.44178655675E+03  0.00000000000E+00 0. -1.
        -13    1    3    3    0    0 -0.40665934019E+02  0.12013394643E+03 -0.55028016761E+02  0.13825326724E+03  0.00000000000E+00 0.  1.
         22    1    1    2    0    0  0.14422076970E+03 -0.54907555370E+03  0.10449556870E+04  0.11892081323E+04  0.00000000000E+00 0. -1.
<mgrwt>
<rscale>  0 0.14806496E+04</rscale>
<asrwt>0</asrwt>
<pdfrwt beam="1">  1        2 0.21059293E+00 0.14806496E+04</pdfrwt>
<pdfrwt beam="2">  1       -2 0.61599064E-01 0.14806496E+04</pdfrwt>
<totfact> 0.35733760E+01</totfact>
</mgrwt>
</event>
<event>
 6    1  0.9364335E-007  0.3634851E+04  0.7818608E-02  0.8082555E-01
          2   -1    0    0  501    0  0.00000000000E+00  0.00000000000E+00  0.14664615270E+04  0.14664615270E+04  0.00000000000E+00 0. -1.
         -2   -1    0    0    0  501 -0.00000000000E+00 -0.00000000000E+00 -0.22523845984E+04  0.22523845984E+04  0.00000000000E+00 0.  1.
         23    2    1    2    0    0  0.25422498720E+03  0.94502890632E+03  0.11722333279E+04  0.15297626501E+04  0.91284241861E+02 0.  0.
         13    1    3    3    0    0  0.20248420663E+02  0.97778302253E+02  0.81102490603E+02  0.12863984186E+03  0.00000000000E+00 0. -1.
        -13    1    3    3    0    0  0.23397656653E+03  0.84725060406E+03  0.10911308373E+04  0.14011228082E+04  0.00000000000E+00 0.  1.
         22    1    1    2    0    0 -0.25422498720E+03 -0.94502890632E+03 -0.19581563993E+04  0.21890834753E+04  0.00000000000E+00 0.  1.
<mgrwt>
<rscale>  0 0.36348510E+04</rscale>
<asrwt>0</asrwt>
<pdfrwt beam="1">  1        2 0.22560947E+00 0.36348510E+04</pdfrwt>
<pdfrwt beam="2">  1       -2 0.34652070E+00 0.36348510E+04</pdfrwt>
<totfact> 0.17629549E-01</totfact>
</mgrwt>
</event>
<event>
 6    1  0.9364335E-007  0.2018830E+04  0.7818608E-02  0.8597867E-01
         -1   -1    0    0    0  501 -0.00000000000E+00  0.00000000000E+00  0.57309571400E+03  0.57309571400E+03  0.00000000000E+00 0.  1.
          1   -1    0    0  501    0  0.00000000000E+00 -0.00000000000E+00 -0.17779198198E+04  0.17779198198E+04  0.00000000000E+00 0. -1.
         23    2    1    2    0    0 -0.48542839276E+02  0.11038916458E+03 -0.17683792342E+04  0.17747026347E+04  0.88668770515E+02 0.  0.
         11    1    3    3    0    0  0.21422803444E+02  0.55967148176E+02 -0.82190617602E+03  0.82408799310E+03  0.00000000000E+00 0. -1.
        -11    1    3    3    0    0 -0.69965642720E+02  0.54422016403E+02 -0.94647305816E+03  0.95061464162E+03  0.00000000000E+00 0.  1.
         22    1    1    2    0    0  0.48542839276E+02 -0.11038916458E+03  0.56355512840E+03  0.57631289908E+03  0.00000000000E+00 0.  1.
<mgrwt>
<rscale>  0 0.20188296E+04</rscale>
<asrwt>0</asrwt>
<pdfrwt beam="1">  1        1 0.27352613E+00 0.20188296E+04</pdfrwt>
<pdfrwt beam="2">  1       -1 0.88168571E-01 0.20188296E+04</pdfrwt>
<totfact> 0.49362222E+00</totfact>
</mgrwt>
</event>
<event>
 6    1  0.9364335E-007  0.1265625E+04  0.7818608E-02  0.9057278E-01
          3   -1    0    0  501    0  0.00000000000E+00  0.00000000000E+00  0.10645723534E+04  0.10645723534E+04  0.00000000000E+00 0. -1.
         -3   -1    0    0    0  501 -0.00000000000E+00 -0.00000000000E+00 -0.37616193334E+03  0.37616193334E+03  0.00000000000E+00 0.  1.
         23    2    1    2    0    0 -0.26539205003E+03  0.11612273923E+03  0.98217268142E+03  0.10281646599E+04  0.92422729588E+02 0.  0.
         13    1    3    3    0    0 -0.61022714268E+02  0.54841132382E+02  0.39496969657E+03  0.40340101967E+03  0.00000000000E+00 0. -1.
        -13    1    3    3    0    0 -0.20436933576E+03  0.61281606844E+02  0.58720298484E+03  0.62476364023E+03  0.00000000000E+00 0.  1.
         22    1    1    2    0    0  0.26539205003E+03 -0.11612273923E+03 -0.29376226137E+03  0.41256962684E+03  0.00000000000E+00 0.  1.
<mgrwt>
<rscale>  0 0.12656249E+04</rscale>
<asrwt>0</asrwt>
<pdfrwt beam="1">  1        3 0.16378036E+00 0.12656249E+04</pdfrwt>
<pdfrwt beam="2">  1       -3 0.57871067E-01 0.12656249E+04</pdfrwt>
<totfact> 0.19375922E+00</totfact>
</mgrwt>
</event>
<event>
 6    1  0.9364335E-007  0.9700998E+03  0.7818608E-02  0.9341961E-01
         -2   -1    0    0    0  501 -0.00000000000E+00  0.00000000000E+00  0.14774797963E+03  0.14774797963E+03  0.00000000000E+00 0.  1.
          2   -1    0    0  501    0  0.00000000000E+00 -0.00000000000E+00 -0.15923969033E+04  0.15923969033E+04  0.00000000000E+00 0. -1.
         23    2    1    2    0    0 -0.20500403248E+03 -0.85044256828E+02 -0.14937512216E+04  0.15128340503E+04  0.90083144524E+02 0.  0.
         11    1    3    3    0    0 -0.10928265919E+02 -0.38399315479E+02 -0.24645115718E+03  0.24966398879E+03  0.00000000000E+00 0.  1.
        -11    1    3    3    0    0 -0.19407576656E+03 -0.46644941349E+02 -0.12473000644E+04  0.12631700616E+04  0.00000000000E+00 0. -1.
         22    1    1    2    0    0  0.20500403248E+03  0.85044256828E+02  0.49102297913E+02  0.22731083259E+03  0.00000000000E+00 0.  1.
<mgrwt>
<rscale>  0 0.97009984E+03</rscale>
<asrwt>0</asrwt>
<pdfrwt beam="1">  1        2 0.24498414E+00 0.97009984E+03</pdfrwt>
<pdfrwt beam="2">  1       -2 0.22730458E-01 0.97009984E+03</pdfrwt>
<totfact> 0.19175227E+02</totfact>
</mgrwt>
</event>
<event>
 6    1  0.9364335E-007  0.2627446E+04  0.7818608E-02  0.8358938E-01
         -2   -1    0    0    0  501 -0.00000000000E+00  0.00000000000E+00  0.12722417758E+04  0.12722417758E+04  0.00000000000E+00 0.  1.
          2   -1    0    0  501    0  0.00000000000E+00 -0.00000000000E+00 -0.13565568712E+04  0.13565568712E+04  0.00000000000E+00 0. -1.
         23    2    1    2    0    0 -0.11417431789E+04  0.16936289057E+03  0.58246328762E+03  0.12958115176E+04  0.87193649461E+02 0.  0.
         11    1    3    3    0    0 -0.80717144597E+03  0.96462822393E+02  0.37300146624E+03  0.89440534050E+03  0.00000000000E+00 0.  1.
        -11    1    3    3    0    0 -0.33457173290E+03  0.72900068179E+02  0.20946182138E+03  0.40140617710E+03  0.00000000000E+00 0. -1.
         22    1    1    2    0    0  0.11417431789E+04 -0.16936289057E+03 -0.66677838294E+03  0.13329871294E+04  0.00000000000E+00 0. -1.
<mgrwt>
<rscale>  0 0.26274462E+04</rscale>
<asrwt>0</asrwt>
<pdfrwt beam="1">  1        2 0.20870106E+00 0.26274462E+04</pdfrwt>
<pdfrwt beam="2">  1       -2 0.19572951E+00 0.26274462E+04</pdfrwt>
<totfact> 0.19200366E+00</totfact>
</mgrwt>
</event>
<event>
 6    1  0.9364335E-007  0.4202235E+04  0.7818608E-02  0.7964947E-01
          1   -1    0    0  501    0  0.00000000000E+00  0.00000000000E+00  0.35262344646E+04  0.35262344646E+04  0.00000000000E+00 0. -1.
         -1   -1    0    0    0  501 -0.00000000000E+00 -0.00000000000E+00 -0.12519571073E+04  0.12519571073E+04  0.00000000000E+00 0.  1.
         23    2    1    2    0    0 -0.11628493176E+04  0.70750452147E+03 -0.68084723064E+03  0.15246485011E+04  0.90658243120E+02 0.  0.
         13    1    3    3    0    0 -0.11223209851E+04  0.66514173350E+03 -0.63959491713E+03  0.14529623455E+04  0.00000000000E+00 0.  1.
        -13    1    3    3    0    0 -0.40528332444E+02  0.42362787976E+02 -0.41252313512E+02  0.71686155608E+02  0.00000000000E+00 0. -1.
         22    1    1    2    0    0  0.11628493176E+04 -0.70750452147E+03  0.29551245879E+04  0.32535430708E+04  0.00000000000E+00 0. -1.
<mgrwt>
<rscale>  0 0.42022348E+04</rscale>
<asrwt>0</asrwt>
<pdfrwt beam="1">  1        1 0.54249761E+00 0.42022348E+04</pdfrwt>
<pdfrwt beam="2">  1       -1 0.19260879E+00 0.42022348E+04</pdfrwt>
<totfact> 0.31022129E-02</totfact>
</mgrwt>
</event>
<event>
 6    1  0.9364335E-007  0.2469056E+04  0.7818608E-02  0.8414093E-01
          2   -1    0    0  501    0  0.00000000000E+00  0.00000000000E+00  0.17208381263E+04  0.17208381263E+04  0.00000000000E+00 0. -1.
         -2   -1    0    0    0  501 -0.00000000000E+00 -0.00000000000E+00 -0.88564982124E+03  0.88564982124E+03  0.00000000000E+00 0.  1.
         23    2    1    2    0    0 -0.10276373262E+04  0.55737321496E+03  0.50667878649E+01  0.11726800426E+04  0.91920807917E+02 0.  0.
         13    1    3    3    0    0 -0.79952943943E+03  0.46289981600E+03  0.31294492795E+02  0.92439326558E+03  0.00000000000E+00 0.  1.
        -13    1    3    3    0    0 -0.22810788680E+03  0.94473398956E+02 -0.26227704930E+02  0.24828677700E+03  0.00000000000E+00 0. -1.
         22    1    1    2    0    0  0.10276373262E+04 -0.55737321496E+03  0.83012151719E+03  0.14338079050E+04  0.00000000000E+00 0. -1.
<mgrwt>
<rscale>  0 0.24690565E+04</rscale>
<asrwt>0</asrwt>
<pdfrwt beam="1">  1        2 0.26474433E+00 0.24690565E+04</pdfrwt>
<pdfrwt beam="2">  1       -2 0.13625382E+00 0.24690565E+04</pdfrwt>
<totfact> 0.32899484E+00</totfact>
</mgrwt>
</event>
<event>
 6    1  0.9364335E-007  0.2249978E+04  0.7818608E-02  0.8497910E-01
          1   -1    0    0  501    0  0.00000000000E+00  0.00000000000E+00  0.28045682894E+04  0.28045682894E+04  0.00000000000E+00 0. -1.
         -1   -1    0    0    0  501 -0.00000000000E+00 -0.00000000000E+00 -0.45126368096E+03  0.45126368096E+03  0.00000000000E+00 0.  1.
         23    2    1    2    0    0  0.37740920196E+02 -0.89005054815E+03  0.18883422817E+03  0.91520248613E+03  0.91229762606E+02 0.  0.
         13    1    3    3    0    0  0.25363088034E+02 -0.50845493975E+03  0.61787639682E+02  0.51282299520E+03  0.00000000000E+00 0. -1.
        -13    1    3    3    0    0  0.12377832163E+02 -0.38159560840E+03  0.12704658849E+03  0.40237949094E+03  0.00000000000E+00 0.  1.
         22    1    1    2    0    0 -0.37740920196E+02  0.89005054815E+03  0.21644703803E+04  0.23406294842E+04  0.00000000000E+00 0. -1.
<mgrwt>
<rscale>  0 0.22499776E+04</rscale>
<asrwt>0</asrwt>
<pdfrwt beam="1">  1        1 0.43147203E+00 0.22499776E+04</pdfrwt>
<pdfrwt beam="2">  1       -1 0.69425183E-01 0.22499776E+04</pdfrwt>
<totfact> 0.15762503E+00</totfact>
</mgrwt>
</event>
<event>
 6    1  0.9364335E-007  0.3273633E+04  0.7818608E-02  0.8169637E-01
         -2   -1    0    0    0  501 -0.00000000000E+00  0.00000000000E+00  0.24231921731E+04  0.24231921731E+04  0.00000000000E+00 0.  1.
          2   -1    0    0  501    0  0.00000000000E+00 -0.00000000000E+00 -0.11056357463E+04  0.11056357463E+04  0.00000000000E+00 0. -1.
         23    2    1    2    0    0  0.97368675626E+03 -0.12236348645E+04  0.11756532624E+04  0.19586417237E+04  0.93640951671E+02 0.  0.
         11    1    3    3    0    0  0.66577529760E+03 -0.77077999032E+03  0.78647318310E+03  0.12868172396E+04  0.00000000000E+00 0. -1.
        -11    1    3    3    0    0  0.30791145866E+03 -0.45285487414E+03  0.38918007925E+03  0.67182448415E+03  0.00000000000E+00 0.  1.
         22    1    1    2    0    0 -0.97368675626E+03  0.12236348645E+04  0.14190316446E+03  0.15701861956E+04  0.00000000000E+00 0. -1.
<mgrwt>
<rscale>  0 0.32736328E+04</rscale>
<asrwt>0</asrwt>
<pdfrwt beam="1">  1        2 0.17009781E+00 0.32736328E+04</pdfrwt>
<pdfrwt beam="2">  1       -2 0.37279880E+00 0.32736328E+04</pdfrwt>
<totfact> 0.20139054E-01</totfact>
</mgrwt>
</event>
<event>
 6    1  0.9364335E-007  0.1073719E+04  0.7818608E-02  0.9231193E-01
          2   -1    0    0  501    0  0.00000000000E+00  0.00000000000E+00  0.12826732584E+03  0.12826732584E+03  0.00000000000E+00 0. -1.
         -2   -1    0    0    0  501 -0.00000000000E+00 -0.00000000000E+00 -0.22470093922E+04  0.22470093922E+04  0.00000000000E+00 0.  1.
         23    2    1    2    0    0  0.34638430982E+03  0.34907039484E+03 -0.61152000960E+03  0.78985861577E+03  0.89931530163E+02 0.  0.
         13    1    3    3    0    0  0.53098621152E+02  0.33804584691E+02 -0.12639783540E+03  0.14120420075E+03  0.00000000000E+00 0.  1.
        -13    1    3    3    0    0  0.29328568866E+03  0.31526581015E+03 -0.48512217420E+03  0.64865441502E+03  0.00000000000E+00 0. -1.
         22    1    1    2    0    0 -0.34638430982E+03 -0.34907039484E+03 -0.15072220568E+04  0.15854181023E+04  0.00000000000E+00 0. -1.
<mgrwt>
<rscale>  0 0.10737186E+04</rscale>
<asrwt>0</asrwt>
<pdfrwt beam="1">  1        2 0.19733435E-01 0.10737186E+04</pdfrwt>
<pdfrwt beam="2">  1       -2 0.34569374E+00 0.10737186E+04</pdfrwt>
<totfact> 0.48529761E+00</totfact>
</mgrwt>
</event>
<event>
 6    1  0.9364335E-007  0.3784608E+04  0.7818608E-02  0.8049466E-01
          2   -1    0    0  501    0  0.00000000000E+00  0.00000000000E+00  0.39387251439E+04  0.39387251439E+04  0.00000000000E+00 0. -1.
         -2   -1    0    0    0  501 -0.00000000000E+00 -0.00000000000E+00 -0.90913033831E+03  0.90913033831E+03  0.00000000000E+00 0.  1.
         23    2    1    2    0    0  0.11676260595E+04 -0.12882753186E+04  0.24688664451E+04  0.30209947307E+04  0.90020705809E+02 0.  0.
         11    1    3    3    0    0  0.98105801758E+03 -0.11273083143E+04  0.21341516833E+04  0.26053602969E+04  0.00000000000E+00 0. -1.
        -11    1    3    3    0    0  0.18656804196E+03 -0.16096700430E+03  0.33471476186E+03  0.41563443380E+03  0.00000000000E+00 0.  1.
         22    1    1    2    0    0 -0.11676260595E+04  0.12882753186E+04  0.56072836045E+03  0.18268607515E+04  0.00000000000E+00 0.  1.
<mgrwt>
<rscale>  0 0.37846080E+04</rscale>
<asrwt>0</asrwt>
<pdfrwt beam="1">  1        2 0.60595771E+00 0.37846080E+04</pdfrwt>
<pdfrwt beam="2">  1       -2 0.13986621E+00 0.37846080E+04</pdfrwt>
<totfact> 0.11040367E-01</totfact>
</mgrwt>
</event>
<event>
 6    1  0.9364335E-007  0.2386052E+04  0.7818608E-02  0.8444744E-01
          1   -1    0    0  501    0  0.00000000000E+00  0.00000000000E+00  0.18008832620E+04  0.18008832620E+04  0.00000000000E+00 0. -1.
         -1   -1    0    0    0  501 -0.00000000000E+00 -0.00000000000E+00 -0.79034075920E+03  0.79034075920E+03  0.00000000000E+00 0.  1.
         23    2    1    2    0    0  0.57706791347E+03  0.60353081011E+03  0.14287361884E+04  0.16573381747E+04  0.90696822996E+02 0.  0.
         11    1    3    3    0    0  0.22536283134E+03  0.29962604721E+03  0.62019251944E+03  0.72470886229E+03  0.00000000000E+00 0.  1.
        -11    1    3    3    0    0  0.35170508213E+03  0.30390476290E+03  0.80854366900E+03  0.93262931243E+03  0.00000000000E+00 0. -1.
         22    1    1    2    0    0 -0.57706791347E+03 -0.60353081011E+03 -0.41819368566E+03  0.93388584647E+03  0.00000000000E+00 0.  1.
<mgrwt>
<rscale>  0 0.23860523E+04</rscale>
<asrwt>0</asrwt>
<pdfrwt beam="1">  1        1 0.27705896E+00 0.23860523E+04</pdfrwt>
<pdfrwt beam="2">  1       -1 0.12159089E+00 0.23860523E+04</pdfrwt>
<totfact> 0.21874868E+00</totfact>
</mgrwt>
</event>
<event>
 6    1  0.9364335E-007  0.9871028E+03  0.7818608E-02  0.9322804E-01
         -2   -1    0    0    0  501 -0.00000000000E+00  0.00000000000E+00  0.34643144533E+03  0.34643144533E+03  0.00000000000E+00 0.  1.
          2   -1    0    0  501    0  0.00000000000E+00 -0.00000000000E+00 -0.70314922780E+03  0.70314922780E+03  0.00000000000E+00 0. -1.
         23    2    1    2    0    0 -0.45079932525E+03 -0.17336595983E+01 -0.38215454822E+03  0.59806094346E+03  0.91715626569E+02 0.  0.
         11    1    3    3    0    0 -0.37909201096E+03  0.26176700465E+02 -0.29004570397E+03  0.47804025229E+03  0.00000000000E+00 0.  1.
        -11    1    3    3    0    0 -0.71707314291E+02 -0.27910360064E+02 -0.92108844246E+02  0.12002069117E+03  0.00000000000E+00 0. -1.
         22    1    1    2    0    0  0.45079932525E+03  0.17336595983E+01  0.25436765746E+02  0.45151972966E+03  0.00000000000E+00 0.  1.
<mgrwt>
<rscale>  0 0.98710284E+03</rscale>
<asrwt>0</asrwt>
<pdfrwt beam="1">  1        2 0.10817680E+00 0.98710284E+03</pdfrwt>
<pdfrwt beam="2">  1       -2 0.53297146E-01 0.98710284E+03</pdfrwt>
<totfact> 0.13511097E+02</totfact>
</mgrwt>
</event>
<event>
 6    1  0.9364335E-007  0.1300740E+04  0.7818608E-02  0.9028978E-01
         -2   -1    0    0    0  501 -0.00000000000E+00  0.00000000000E+00  0.82378264451E+03  0.82378264451E+03  0.00000000000E+00 0.  1.
          2   -1    0    0  501    0  0.00000000000E+00 -0.00000000000E+00 -0.51346218469E+03  0.51346218469E+03  0.00000000000E+00 0. -1.
         23    2    1    2    0    0  0.30878422324E+03 -0.52626487704E+03  0.37836763949E+03  0.72329626784E+03  0.87709766390E+02 0.  0.
         11    1    3    3    0    0  0.14731074959E+03 -0.30695769734E+03  0.24887723790E+03  0.42173850245E+03  0.00000000000E+00 0. -1.
        -11    1    3    3    0    0  0.16147347366E+03 -0.21930717970E+03  0.12949040159E+03  0.30155776539E+03  0.00000000000E+00 0.  1.
         22    1    1    2    0    0 -0.30878422324E+03  0.52626487704E+03 -0.68047179681E+02  0.61394856136E+03  0.00000000000E+00 0. -1.
<mgrwt>
<rscale>  0 0.13007402E+04</rscale>
<asrwt>0</asrwt>
<pdfrwt beam="1">  1        2 0.78994182E-01 0.13007402E+04</pdfrwt>
<pdfrwt beam="2">  1       -2 0.12673579E+00 0.13007402E+04</pdfrwt>
<totfact> 0.27086711E+01</totfact>
</mgrwt>
</event>
<event>
 6    1  0.9364335E-007  0.3743622E+04  0.7818608E-02  0.8058363E-01
         -3   -1    0    0    0  501 -0.00000000000E+00  0.00000000000E+00  0.10444401384E+04  0.10444401384E+04  0.00000000000E+00 0.  1.
          3   -1    0    0  501    0  0.00000000000E+00 -0.00000000000E+00 -0.33545980921E+04  0.33545980921E+04  0.00000000000E+00 0. -1.
         23    2    1    2    0    0 -0.49294170296E+03  0.27929249450E+03 -0.32507596770E+04  0.33009820289E+04  0.89710967293E+02 0.  0.
         13    1    3    3    0    0 -0.32853659433E+03  0.22976545406E+03 -0.21839186685E+04  0.22204119456E+04  0.00000000000E+00 0. -1.
        -13    1    3    3    0    0 -0.16440510863E+03  0.49527040448E+02 -0.10668410085E+04  0.10805700833E+04  0.00000000000E+00 0.  1.
         22    1    1    2    0    0  0.49294170296E+03 -0.27929249450E+03  0.94060172323E+03  0.10980562015E+04  0.00000000000E+00 0.  1.
<mgrwt>
<rscale>  0 0.37436223E+04</rscale>
<asrwt>0</asrwt>
<pdfrwt beam="1">  1        3 0.51609202E+00 0.37436223E+04</pdfrwt>
<pdfrwt beam="2">  1       -3 0.16068310E+00 0.37436223E+04</pdfrwt>
<totfact> 0.16025638E-03</totfact>
</mgrwt>
</event>
<event>
 6    1  0.9364335E-007  0.1830438E+04  0.7818608E-02  0.8690278E-01
          1   -1    0    0  501    0  0.00000000000E+00  0.00000000000E+00  0.18215550847E+04  0.18215550847E+04  0.00000000000E+00 0. -1.
         -1   -1    0    0    0  501 -0.00000000000E+00 -0.00000000000E+00 -0.45984121785E+03  0.45984121785E+03  0.00000000000E+00 0.  1.
         23    2    1    2    0    0 -0.33951090730E+03 -0.84260586801E+03  0.57065596848E+03  0.10768113518E+04  0.92855522543E+02 0.  0.
         13    1    3    3    0    0 -0.25892779866E+03 -0.70558553362E+03  0.50093709812E+03  0.90323448032E+03  0.00000000000E+00 0. -1.
        -13    1    3    3    0    0 -0.80583108641E+02 -0.13702033439E+03  0.69718870364E+02  0.17357687150E+03  0.00000000000E+00 0.  1.
         22    1    1    2    0    0  0.33951090730E+03  0.84260586801E+03  0.79105789841E+03  0.12045849508E+04  0.00000000000E+00 0. -1.
<mgrwt>
<rscale>  0 0.18304383E+04</rscale>
<asrwt>0</asrwt>
<pdfrwt beam="1">  1        1 0.28023924E+00 0.18304383E+04</pdfrwt>
<pdfrwt beam="2">  1       -1 0.70744804E-01 0.18304383E+04</pdfrwt>
<totfact> 0.74832288E+00</totfact>
</mgrwt>
</event>
<event>
 6    1  0.9364335E-007  0.1232704E+04  0.7818608E-02  0.9084703E-01
         -1   -1    0    0    0  501 -0.00000000000E+00  0.00000000000E+00  0.74053295125E+03  0.74053295125E+03  0.00000000000E+00 0.  1.
          1   -1    0    0  501    0  0.00000000000E+00 -0.00000000000E+00 -0.51299503254E+03  0.51299503254E+03  0.00000000000E+00 0. -1.
         23    2    1    2    0    0  0.43174920367E+03 -0.31069029921E+03 -0.19535292053E+03  0.57398953836E+03  0.91462504322E+02 0.  0.
         11    1    3    3    0    0  0.30743940404E+02 -0.52925147973E+02 -0.37727166096E+02  0.71899931996E+02  0.00000000000E+00 0.  1.
        -11    1    3    3    0    0  0.40100526327E+03 -0.25776515124E+03 -0.15762575444E+03  0.50208960637E+03  0.00000000000E+00 0. -1.
         22    1    1    2    0    0 -0.43174920367E+03  0.31069029921E+03  0.42289083924E+03  0.67953844542E+03  0.00000000000E+00 0.  1.
<mgrwt>
<rscale>  0 0.12327039E+04</rscale>
<asrwt>0</asrwt>
<pdfrwt beam="1">  1        1 0.78922313E-01 0.12327039E+04</pdfrwt>
<pdfrwt beam="2">  1       -1 0.11392815E+00 0.12327039E+04</pdfrwt>
<totfact> 0.29661355E+01</totfact>
</mgrwt>
</event>
<event>
 6    1  0.9364335E-007  0.2652977E+04  0.7818608E-02  0.8350426E-01
          2   -1    0    0  501    0  0.00000000000E+00  0.00000000000E+00  0.13575052099E+04  0.13575052099E+04  0.00000000000E+00 0. -1.
         -2   -1    0    0    0  501 -0.00000000000E+00 -0.00000000000E+00 -0.12961804490E+04  0.12961804490E+04  0.00000000000E+00 0.  1.
         23    2    1    2    0    0  0.80363098784E+03  0.10230030171E+04  0.28197171948E+03  0.13341997674E+04  0.90680930416E+02 0.  0.
         13    1    3    3    0    0  0.36940486180E+03  0.45366863973E+03  0.17180640695E+03  0.60974800374E+03  0.00000000000E+00 0. -1.
        -13    1    3    3    0    0  0.43422612604E+03  0.56933437734E+03  0.11016531253E+03  0.72445176364E+03  0.00000000000E+00 0.  1.
         22    1    1    2    0    0 -0.80363098784E+03 -0.10230030171E+04 -0.22064695857E+03  0.13194858915E+04  0.00000000000E+00 0. -1.
<mgrwt>
<rscale>  0 0.26529770E+04</rscale>
<asrwt>0</asrwt>
<pdfrwt beam="1">  1        2 0.20884696E+00 0.26529770E+04</pdfrwt>
<pdfrwt beam="2">  1       -2 0.19941238E+00 0.26529770E+04</pdfrwt>
<totfact> 0.18092594E+00</totfact>
</mgrwt>
</event>
<event>
 6    1  0.9364335E-007  0.1011441E+04  0.7818608E-02  0.9296085E-01
          2   -1    0    0  501    0  0.00000000000E+00  0.00000000000E+00  0.30339489325E+03  0.30339489325E+03  0.00000000000E+00 0. -1.
         -2   -1    0    0    0  501 -0.00000000000E+00 -0.00000000000E+00 -0.84297075757E+03  0.84297075757E+03  0.00000000000E+00 0.  1.
         23    2    1    2    0    0  0.37802557448E+02  0.32844103064E+03  0.15553391605E+03  0.37663832851E+03  0.91449918031E+02 0.  0.
         13    1    3    3    0    0 -0.23354836101E+02  0.19266589750E+03  0.90666634687E+02  0.21421025903E+03  0.00000000000E+00 0. -1.
        -13    1    3    3    0    0  0.61157393550E+02  0.13577513314E+03  0.64867281360E+02  0.16242806948E+03  0.00000000000E+00 0.  1.
         22    1    1    2    0    0 -0.37802557448E+02 -0.32844103064E+03 -0.69510978036E+03  0.76972732231E+03  0.00000000000E+00 0.  1.
<mgrwt>
<rscale>  0 0.10114406E+04</rscale>
<asrwt>0</asrwt>
<pdfrwt beam="1">  1        2 0.46676137E-01 0.10114406E+04</pdfrwt>
<pdfrwt beam="2">  1       -2 0.12968781E+00 0.10114406E+04</pdfrwt>
<totfact> 0.47238380E+01</totfact>
</mgrwt>
</event>
<event>
 6    1  0.9364335E-007  0.1838190E+04  0.7818608E-02  0.8686250E-01
         -2   -1    0    0    0  501 -0.00000000000E+00  0.00000000000E+00  0.67553877134E+03  0.67553877134E+03  0.00000000000E+00 0.  1.
          2   -1    0    0  501    0  0.00000000000E+00 -0.00000000000E+00 -0.12504626642E+04  0.12504626642E+04  0.00000000000E+00 0. -1.
         23    2    1    2    0    0  0.75601924668E+02 -0.62416646610E+03  0.41072324665E+03  0.75689933904E+03  0.94358866420E+02 0.  0.
         13    1    3    3    0    0  0.56539492937E+02 -0.28511259708E+03  0.23929074072E+03  0.37649165445E+03  0.00000000000E+00 0.  1.
        -13    1    3    3    0    0  0.19062431731E+02 -0.33905386902E+03  0.17143250593E+03  0.38040768459E+03  0.00000000000E+00 0. -1.
         22    1    1    2    0    0 -0.75601924668E+02  0.62416646610E+03 -0.98564713950E+03  0.11691020965E+04  0.00000000000E+00 0. -1.
<mgrwt>
<rscale>  0 0.18381904E+04</rscale>
<asrwt>0</asrwt>
<pdfrwt beam="1">  1        2 0.19237887E+00 0.18381904E+04</pdfrwt>
<pdfrwt beam="2">  1       -2 0.10392904E+00 0.18381904E+04</pdfrwt>
<totfact> 0.12536468E+01</totfact>
</mgrwt>
</event>
<event>
 6    1  0.9364335E-007  0.1298805E+04  0.7818608E-02  0.9030513E-01
          2   -1    0    0  501    0  0.00000000000E+00  0.00000000000E+00  0.32888427488E+03  0.32888427488E+03  0.00000000000E+00 0. -1.
         -2   -1    0    0    0  501 -0.00000000000E+00 -0.00000000000E+00 -0.12822859611E+04  0.12822859611E+04  0.00000000000E+00 0.  1.
         23    2    1    2    0    0 -0.45998577572E+03 -0.72247523837E+02  0.76008728586E+02  0.48135059521E+03  0.95469629303E+02 0.  0.
         13    1    3    3    0    0 -0.38074010675E+03 -0.63879438031E+02  0.25282380479E+02  0.38688862771E+03  0.00000000000E+00 0.  1.
        -13    1    3    3    0    0 -0.79245668974E+02 -0.83680858059E+01  0.50726348107E+02  0.94461967498E+02  0.00000000000E+00 0. -1.
         22    1    1    2    0    0  0.45998577572E+03  0.72247523837E+02 -0.10294104148E+04  0.11298196408E+04  0.00000000000E+00 0.  1.
<mgrwt>
<rscale>  0 0.12988051E+04</rscale>
<asrwt>0</asrwt>
<pdfrwt beam="1">  1        2 0.50597581E-01 0.12988051E+04</pdfrwt>
<pdfrwt beam="2">  1       -2 0.19727476E+00 0.12988051E+04</pdfrwt>
<totfact> 0.13450524E+01</totfact>
</mgrwt>
</event>
<event>
 6    1  0.9364335E-007  0.1045113E+04  0.7818608E-02  0.9260405E-01
         -2   -1    0    0    0  501 -0.00000000000E+00  0.00000000000E+00  0.64733711254E+03  0.64733711254E+03  0.00000000000E+00 0.  1.
          2   -1    0    0  501    0  0.00000000000E+00 -0.00000000000E+00 -0.42182822382E+03  0.42182822382E+03  0.00000000000E+00 0. -1.
         23    2    1    2    0    0 -0.44701506630E+03 -0.40636804094E+02 -0.15207455082E+03  0.48261348599E+03  0.91188203767E+02 0.  0.
         11    1    3    3    0    0 -0.76818012290E+02  0.19980672295E+02 -0.50137269199E+02  0.93882799491E+02  0.00000000000E+00 0. -1.
        -11    1    3    3    0    0 -0.37019705401E+03 -0.60617476389E+02 -0.10193728162E+03  0.38873068650E+03  0.00000000000E+00 0.  1.
         22    1    1    2    0    0  0.44701506630E+03  0.40636804094E+02  0.37758343954E+03  0.58655185036E+03  0.00000000000E+00 0.  1.
<mgrwt>
<rscale>  0 0.10451126E+04</rscale>
<asrwt>0</asrwt>
<pdfrwt beam="1">  1        2 0.64896650E-01 0.10451126E+04</pdfrwt>
<pdfrwt beam="2">  1       -2 0.99590325E-01 0.10451126E+04</pdfrwt>
<totfact> 0.62215257E+01</totfact>
</mgrwt>
</event>
<event>
 6    1  0.9364335E-007  0.1764564E+04  0.7818608E-02  0.8725374E-01
          2   -1    0    0  501    0  0.00000000000E+00  0.00000000000E+00  0.31194063865E+04  0.31194063865E+04  0.00000000000E+00 0. -1.
         -2   -1    0    0    0  501 -0.00000000000E+00 -0.00000000000E+00 -0.24954166957E+03  0.24954166957E+03  0.00000000000E+00 0.  1.
         23    2    1    2    0    0  0.60163034711E+03 -0.51998012640E+03  0.21581823128E+04  0.23017881567E+04  0.90218716012E+02 0.  0.
         11    1    3    3    0    0  0.37837216012E+03 -0.38258949201E+03  0.14647319370E+04  0.15604421996E+04  0.00000000000E+00 0. -1.
        -11    1    3    3    0    0  0.22325818699E+03 -0.13739063439E+03  0.69345037574E+03  0.74134595709E+03  0.00000000000E+00 0.  1.
         22    1    1    2    0    0 -0.60163034711E+03  0.51998012640E+03  0.71168240411E+03  0.10671598993E+04  0.00000000000E+00 0.  1.
<mgrwt>
<rscale>  0 0.17645644E+04</rscale>
<asrwt>0</asrwt>
<pdfrwt beam="1">  1        2 0.47990865E+00 0.17645644E+04</pdfrwt>
<pdfrwt beam="2">  1       -2 0.38391028E-01 0.17645644E+04</pdfrwt>
<totfact> 0.89174309E+00</totfact>
</mgrwt>
</event>
<event>
 6    1  0.9364335E-007  0.1202195E+04  0.7818608E-02  0.9110938E-01
         -2   -1    0    0    0  501 -0.00000000000E+00  0.00000000000E+00  0.78496197340E+03  0.78496197340E+03  0.00000000000E+00 0.  1.
          2   -1    0    0  501    0  0.00000000000E+00 -0.00000000000E+00 -0.46030011703E+03  0.46030011703E+03  0.00000000000E+00 0. -1.
         23    2    1    2    0    0 -0.26881342231E+03  0.36369141408E+03  0.56796835959E+03  0.73171544677E+03  0.91034811280E+02 0.  0.
         13    1    3    3    0    0 -0.15839618986E+03  0.28104919129E+03  0.37783144905E+03  0.49682452112E+03  0.00000000000E+00 0.  1.
        -13    1    3    3    0    0 -0.11041723245E+03  0.82642222790E+02  0.19013691053E+03  0.23489092566E+03  0.00000000000E+00 0. -1.
         22    1    1    2    0    0  0.26881342231E+03 -0.36369141408E+03 -0.24330650322E+03  0.51354664365E+03  0.00000000000E+00 0. -1.
<mgrwt>
<rscale>  0 0.12021948E+04</rscale>
<asrwt>0</asrwt>
<pdfrwt beam="1">  1        2 0.70815403E-01 0.12021948E+04</pdfrwt>
<pdfrwt beam="2">  1       -2 0.12076338E+00 0.12021948E+04</pdfrwt>
<totfact> 0.34932680E+01</totfact>
</mgrwt>
</event>
<event>
 6    1  0.9364335E-007  0.1791080E+04  0.7818608E-02  0.8711058E-01
          1   -1    0    0  501    0  0.00000000000E+00  0.00000000000E+00  0.15162975618E+04  0.15162975618E+04  0.00000000000E+00 0. -1.
         -1   -1    0    0    0  501 -0.00000000000E+00 -0.00000000000E+00 -0.52891441338E+03  0.52891441338E+03  0.00000000000E+00 0.  1.
         23    2    1    2    0    0  0.12379202642E+02 -0.87646811050E+03  0.69009165042E+03  0.11196138831E+04  0.94652880458E+02 0.  0.
         11    1    3    3    0    0  0.25001188477E+02 -0.74610416538E+02  0.77598678396E+02  0.11051392930E+03  0.00000000000E+00 0. -1.
        -11    1    3    3    0    0 -0.12621985835E+02 -0.80185769396E+03  0.61249297203E+03  0.10090999538E+04  0.00000000000E+00 0.  1.
         22    1    1    2    0    0 -0.12379202642E+02  0.87646811050E+03  0.29729149800E+03  0.92559809213E+03  0.00000000000E+00 0.  1.
<mgrwt>
<rscale>  0 0.17910797E+04</rscale>
<asrwt>0</asrwt>
<pdfrwt beam="1">  1        1 0.23327655E+00 0.17910797E+04</pdfrwt>
<pdfrwt beam="2">  1       -1 0.81371449E-01 0.17910797E+04</pdfrwt>
<totfact> 0.90531680E+00</totfact>
</mgrwt>
</event>
<event>
 6    1  0.9364335E-007  0.2305260E+04  0.7818608E-02  0.8475850E-01
         -2   -1    0    0    0  501 -0.00000000000E+00  0.00000000000E+00  0.41782386362E+03  0.41782386362E+03  0.00000000000E+00 0.  1.
          2   -1    0    0  501    0  0.00000000000E+00 -0.00000000000E+00 -0.31797036900E+04  0.31797036900E+04  0.00000000000E+00 0. -1.
         23    2    1    2    0    0 -0.38527452492E+02  0.10409027583E+04 -0.21467321452E+04  0.23878294150E+04  0.91145460629E+02 0.  0.
         13    1    3    3    0    0 -0.98733323769E+01  0.53546667733E+03 -0.10018182822E+04  0.11359849981E+04  0.00000000000E+00 0. -1.
        -13    1    3    3    0    0 -0.28654120115E+02  0.50543608099E+03 -0.11449138630E+04  0.12518444169E+04  0.00000000000E+00 0.  1.
         22    1    1    2    0    0  0.38527452492E+02 -0.10409027583E+04 -0.61514768112E+03  0.12096981386E+04  0.00000000000E+00 0. -1.
<mgrwt>
<rscale>  0 0.23052601E+04</rscale>
<asrwt>0</asrwt>
<pdfrwt beam="1">  1        2 0.48918518E+00 0.23052601E+04</pdfrwt>
<pdfrwt beam="2">  1       -2 0.64280595E-01 0.23052601E+04</pdfrwt>
<totfact> 0.27125471E+00</totfact>
</mgrwt>
</event>
<event>
 6    1  0.9364335E-007  0.2001367E+04  0.7818608E-02  0.8605982E-01
          2   -1    0    0  501    0  0.00000000000E+00  0.00000000000E+00  0.57393249815E+03  0.57393249815E+03  0.00000000000E+00 0. -1.
         -2   -1    0    0    0  501 -0.00000000000E+00 -0.00000000000E+00 -0.17447483325E+04  0.17447483325E+04  0.00000000000E+00 0.  1.
         23    2    1    2    0    0 -0.23256042042E+03 -0.32706043541E+03 -0.16459652946E+04  0.16967323705E+04  0.92984453388E+02 0.  0.
         13    1    3    3    0    0 -0.20611556608E+03 -0.21981613823E+03 -0.12247151912E+04  0.12612414760E+04  0.00000000000E+00 0.  1.
        -13    1    3    3    0    0 -0.26444854344E+02 -0.10724429718E+03 -0.42125010341E+03  0.43549089453E+03  0.00000000000E+00 0. -1.
         22    1    1    2    0    0  0.23256042042E+03  0.32706043541E+03  0.47514946022E+03  0.62194846016E+03  0.00000000000E+00 0. -1.
<mgrwt>
<rscale>  0 0.20013673E+04</rscale>
<asrwt>0</asrwt>
<pdfrwt beam="1">  1        2 0.88297309E-01 0.20013673E+04</pdfrwt>
<pdfrwt beam="2">  1       -2 0.26842282E+00 0.20013673E+04</pdfrwt>
<totfact> 0.24091514E+00</totfact>
</mgrwt>
</event>
<event>
 6    1  0.9364335E-007  0.2521248E+04  0.7818608E-02  0.8395455E-01
          2   -1    0    0  501    0  0.00000000000E+00  0.00000000000E+00  0.22240159071E+04  0.22240159071E+04  0.00000000000E+00 0. -1.
         -2   -1    0    0    0  501 -0.00000000000E+00 -0.00000000000E+00 -0.71455114858E+03  0.71455114858E+03  0.00000000000E+00 0.  1.
         23    2    1    2    0    0  0.81879164762E+03  0.81364418160E+03  0.16994120530E+03  0.11703023792E+04  0.91055087776E+02 0.  0.
         13    1    3    3    0    0  0.57071161623E+03  0.52130114414E+03  0.85276095636E+02  0.77764943533E+03  0.00000000000E+00 0.  1.
        -13    1    3    3    0    0  0.24808003139E+03  0.29234303746E+03  0.84665109665E+02  0.39265294385E+03  0.00000000000E+00 0. -1.
         22    1    1    2    0    0 -0.81879164762E+03 -0.81364418160E+03  0.13395235532E+04  0.17682646765E+04  0.00000000000E+00 0. -1.
<mgrwt>
<rscale>  0 0.25212482E+04</rscale>
<asrwt>0</asrwt>
<pdfrwt beam="1">  1        2 0.34215629E+00 0.25212482E+04</pdfrwt>
<pdfrwt beam="2">  1       -2 0.10993095E+00 0.25212482E+04</pdfrwt>
<totfact> 0.29320268E+00</totfact>
</mgrwt>
</event>
<event>
 6    1  0.9364335E-007  0.3427028E+04  0.7818608E-02  0.8131304E-01
          2   -1    0    0  501    0  0.00000000000E+00  0.00000000000E+00  0.18774634918E+04  0.18774634918E+04  0.00000000000E+00 0. -1.
         -2   -1    0    0    0  501 -0.00000000000E+00 -0.00000000000E+00 -0.15638817932E+04  0.15638817932E+04  0.00000000000E+00 0.  1.
         23    2    1    2    0    0  0.16202509879E+04  0.15903555112E+03  0.68951525188E+03  0.17704677889E+04  0.92840394075E+02 0.  0.
         11    1    3    3    0    0  0.77763793141E+03  0.11684417238E+03  0.30773882495E+03  0.84443856933E+03  0.00000000000E+00 0. -1.
        -11    1    3    3    0    0  0.84261305647E+03  0.42191378740E+02  0.38177642693E+03  0.92602921959E+03  0.00000000000E+00 0.  1.
         22    1    1    2    0    0 -0.16202509879E+04 -0.15903555112E+03 -0.37593355334E+03  0.16708774960E+04  0.00000000000E+00 0.  1.
<mgrwt>
<rscale>  0 0.34270284E+04</rscale>
<asrwt>0</asrwt>
<pdfrwt beam="1">  1        2 0.28884054E+00 0.34270284E+04</pdfrwt>
<pdfrwt beam="2">  1       -2 0.24059720E+00 0.34270284E+04</pdfrwt>
<totfact> 0.47452260E-01</totfact>
</mgrwt>
</event>
<event>
 6    1  0.9364335E-007  0.6069902E+03  0.7818608E-02  0.9891009E-01
         -2   -1    0    0    0  501 -0.00000000000E+00  0.00000000000E+00  0.50578916572E+02  0.50578916572E+02  0.00000000000E+00 0.  1.
          2   -1    0    0  501    0  0.00000000000E+00 -0.00000000000E+00 -0.18211002600E+04  0.18211002600E+04  0.00000000000E+00 0. -1.
         23    2    1    2    0    0 -0.39268872368E+02 -0.11626179939E+02 -0.18110610331E+04  0.18140538450E+04  0.95770947258E+02 0.  0.
         13    1    3    3    0    0 -0.69592504412E+02 -0.13350027517E+02 -0.10509536684E+04  0.10533399038E+04  0.00000000000E+00 0.  1.
        -13    1    3    3    0    0  0.30323632044E+02  0.17238475777E+01 -0.76010736477E+03  0.76071394117E+03  0.00000000000E+00 0. -1.
         22    1    1    2    0    0  0.39268872368E+02  0.11626179939E+02  0.40539689722E+02  0.57625331580E+02  0.00000000000E+00 0.  1.
<mgrwt>
<rscale>  0 0.60699021E+03</rscale>
<asrwt>0</asrwt>
<pdfrwt beam="1">  1        2 0.28016927E+00 0.60699021E+03</pdfrwt>
<pdfrwt beam="2">  1       -2 0.77813719E-02 0.60699021E+03</pdfrwt>
<totfact> 0.88748627E+02</totfact>
</mgrwt>
</event>
<event>
 6    1  0.9364335E-007  0.3886223E+04  0.7818608E-02  0.8027901E-01
          2   -1    0    0  501    0  0.00000000000E+00  0.00000000000E+00  0.32116388943E+04  0.32116388943E+04  0.00000000000E+00 0. -1.
         -2   -1    0    0    0  501 -0.00000000000E+00 -0.00000000000E+00 -0.11756246888E+04  0.11756246888E+04  0.00000000000E+00 0.  1.
         23    2    1    2    0    0  0.46947583061E+03 -0.13403039601E+04  0.25140227749E+04  0.28888262460E+04  0.90467152186E+02 0.  0.
         11    1    3    3    0    0  0.28321501334E+03 -0.78870102586E+03  0.13931852622E+04  0.16257998729E+04  0.00000000000E+00 0. -1.
        -11    1    3    3    0    0  0.18626081727E+03 -0.55160293427E+03  0.11208375127E+04  0.12630263731E+04  0.00000000000E+00 0.  1.
         22    1    1    2    0    0 -0.46947583061E+03  0.13403039601E+04 -0.47800856936E+03  0.14984373372E+04  0.00000000000E+00 0.  1.
<mgrwt>
<rscale>  0 0.38862228E+04</rscale>
<asrwt>0</asrwt>
<pdfrwt beam="1">  1        2 0.49409829E+00 0.38862228E+04</pdfrwt>
<pdfrwt beam="2">  1       -2 0.18086534E+00 0.38862228E+04</pdfrwt>
<totfact> 0.18125297E-01</totfact>
</mgrwt>
</event>
<event>
 6    1  0.9364335E-007  0.2355690E+04  0.7818608E-02  0.8456281E-01
         -2   -1    0    0    0  501 -0.00000000000E+00  0.00000000000E+00  0.62548306918E+03  0.62548306918E+03  0.00000000000E+00 0.  1.
          2   -1    0    0  501    0  0.00000000000E+00 -0.00000000000E+00 -0.22179958475E+04  0.22179958475E+04  0.00000000000E+00 0. -1.
         23    2    1    2    0    0 -0.64067972828E+03 -0.10689089236E+03 -0.19808935836E+04  0.20866857963E+04  0.91771704678E+02 0.  0.
         13    1    3    3    0    0 -0.36037010483E+03 -0.63641861535E+02 -0.96913622775E+03  0.10359256377E+04  0.00000000000E+00 0.  1.
        -13    1    3    3    0    0 -0.28030962345E+03 -0.43249030828E+02 -0.10117573559E+04  0.10507601586E+04  0.00000000000E+00 0. -1.
         22    1    1    2    0    0  0.64067972828E+03  0.10689089236E+03  0.38838080531E+03  0.75679312036E+03  0.00000000000E+00 0.  1.
<mgrwt>
<rscale>  0 0.23556900E+04</rscale>
<asrwt>0</asrwt>
<pdfrwt beam="1">  1        2 0.34123013E+00 0.23556900E+04</pdfrwt>
<pdfrwt beam="2">  1       -2 0.96228164E-01 0.23556900E+04</pdfrwt>
<totfact> 0.41169168E+00</totfact>
</mgrwt>
</event>
<event>
 6    1  0.9364335E-007  0.1066169E+04  0.7818608E-02  0.9238808E-01
          1   -1    0    0  501    0  0.00000000000E+00  0.00000000000E+00  0.14282559956E+04  0.14282559956E+04  0.00000000000E+00 0. -1.
         -1   -1    0    0    0  501 -0.00000000000E+00 -0.00000000000E+00 -0.19896940211E+03  0.19896940211E+03  0.00000000000E+00 0.  1.
         23    2    1    2    0    0 -0.11579326737E+03  0.50518660228E+03  0.78266916421E+03  0.94305530770E+03  0.90336642005E+02 0.  0.
         13    1    3    3    0    0 -0.12196833815E+03  0.37162835617E+03  0.55382047989E+03  0.67801256225E+03  0.00000000000E+00 0.  1.
        -13    1    3    3    0    0  0.61750707769E+01  0.13355824611E+03  0.22884868432E+03  0.26504274545E+03  0.00000000000E+00 0. -1.
         22    1    1    2    0    0  0.11579326737E+03 -0.50518660228E+03  0.44661742924E+03  0.68417008996E+03  0.00000000000E+00 0. -1.
<mgrwt>
<rscale>  0 0.10661693E+04</rscale>
<asrwt>0</asrwt>
<pdfrwt beam="1">  1        1 0.21973168E+00 0.10661693E+04</pdfrwt>
<pdfrwt beam="2">  1       -1 0.30610678E-01 0.10661693E+04</pdfrwt>
<totfact> 0.72152793E+01</totfact>
</mgrwt>
</event>
<event>
 6    1  0.9364335E-007  0.1831284E+04  0.7818608E-02  0.8689838E-01
          1   -1    0    0  501    0  0.00000000000E+00  0.00000000000E+00  0.87892893508E+03  0.87892893508E+03  0.00000000000E+00 0. -1.
         -1   -1    0    0    0  501 -0.00000000000E+00 -0.00000000000E+00 -0.95388858700E+03  0.95388858700E+03  0.00000000000E+00 0.  1.
         23    2    1    2    0    0 -0.42609513794E+03 -0.29890725056E+03  0.71359092805E+03  0.88798175424E+03  0.91634994734E+02 0.  0.
         11    1    3    3    0    0 -0.23560810219E+03 -0.11087570468E+03  0.36992730030E+03  0.45238347363E+03  0.00000000000E+00 0.  1.
        -11    1    3    3    0    0 -0.19048703575E+03 -0.18803154588E+03  0.34366362775E+03  0.43559828061E+03  0.00000000000E+00 0. -1.
         22    1    1    2    0    0  0.42609513794E+03  0.29890725056E+03 -0.78855057997E+03  0.94483576784E+03  0.00000000000E+00 0.  1.
<mgrwt>
<rscale>  0 0.18312840E+04</rscale>
<asrwt>0</asrwt>
<pdfrwt beam="1">  1        1 0.13521984E+00 0.18312840E+04</pdfrwt>
<pdfrwt beam="2">  1       -1 0.14675209E+00 0.18312840E+04</pdfrwt>
<totfact> 0.65965459E+00</totfact>
</mgrwt>
</event>
<event>
 6    1  0.9364335E-007  0.1944869E+04  0.7818608E-02  0.8632839E-01
         -1   -1    0    0    0  501 -0.00000000000E+00  0.00000000000E+00  0.99566462186E+03  0.99566462186E+03  0.00000000000E+00 0.  1.
          1   -1    0    0  501    0  0.00000000000E+00 -0.00000000000E+00 -0.94974630819E+03  0.94974630819E+03  0.00000000000E+00 0. -1.
         23    2    1    2    0    0 -0.14648666782E+03 -0.72456701842E+03  0.65164451156E+03  0.98971226686E+03  0.91837321899E+02 0.  0.
         13    1    3    3    0    0 -0.79022747360E+02 -0.23285270791E+03  0.25627033821E+03  0.35516118091E+03  0.00000000000E+00 0.  1.
        -13    1    3    3    0    0 -0.67463920462E+02 -0.49171431050E+03  0.39537417336E+03  0.63455108595E+03  0.00000000000E+00 0. -1.
         22    1    1    2    0    0  0.14648666782E+03  0.72456701842E+03 -0.60572619789E+03  0.95569866320E+03  0.00000000000E+00 0. -1.
<mgrwt>
<rscale>  0 0.19448689E+04</rscale>
<asrwt>0</asrwt>
<pdfrwt beam="1">  1        1 0.14611482E+00 0.19448689E+04</pdfrwt>
<pdfrwt beam="2">  1       -1 0.15317917E+00 0.19448689E+04</pdfrwt>
<totfact> 0.50945816E+00</totfact>
</mgrwt>
</event>
<event>
 6    1  0.9364335E-007  0.3701476E+04  0.7818608E-02  0.8067635E-01
         -1   -1    0    0    0  501 -0.00000000000E+00  0.00000000000E+00  0.17881663960E+04  0.17881663960E+04  0.00000000000E+00 0.  1.
          1   -1    0    0  501    0  0.00000000000E+00 -0.00000000000E+00 -0.19154994439E+04  0.19154994439E+04  0.00000000000E+00 0. -1.
         23    2    1    2    0    0 -0.10782169178E+04  0.10413497996E+04  0.10204275768E+04  0.18157263339E+04  0.92890006136E+02 0.  0.
         13    1    3    3    0    0 -0.41701250567E+03  0.39920199139E+03  0.44799801187E+03  0.73072832055E+03  0.00000000000E+00 0. -1.
        -13    1    3    3    0    0 -0.66120441213E+03  0.64214780817E+03  0.57242956489E+03  0.10849980133E+04  0.00000000000E+00 0.  1.
         22    1    1    2    0    0  0.10782169178E+04 -0.10413497996E+04 -0.11477606247E+04  0.18879395060E+04  0.00000000000E+00 0.  1.
<mgrwt>
<rscale>  0 0.37014763E+04</rscale>
<asrwt>0</asrwt>
<pdfrwt beam="1">  1        1 0.29469222E+00 0.37014763E+04</pdfrwt>
<pdfrwt beam="2">  1       -1 0.27510252E+00 0.37014763E+04</pdfrwt>
<totfact> 0.13062532E-01</totfact>
</mgrwt>
</event>
<event>
 6    1  0.9364335E-007  0.1820908E+04  0.7818608E-02  0.8695259E-01
          2   -1    0    0  501    0  0.00000000000E+00  0.00000000000E+00  0.10266565133E+04  0.10266565133E+04  0.00000000000E+00 0. -1.
         -2   -1    0    0    0  501 -0.00000000000E+00 -0.00000000000E+00 -0.80740424604E+03  0.80740424604E+03  0.00000000000E+00 0.  1.
         23    2    1    2    0    0  0.53927351293E+03  0.44427340407E+03 -0.47443319716E+03  0.84948252330E+03  0.91317684562E+02 0.  0.
         11    1    3    3    0    0  0.48552565448E+03  0.40529847050E+03 -0.39381510052E+03  0.74504519644E+03  0.00000000000E+00 0.  1.
        -11    1    3    3    0    0  0.53747858456E+02  0.38974933567E+02 -0.80618096645E+02  0.10443732686E+03  0.00000000000E+00 0. -1.
         22    1    1    2    0    0 -0.53927351293E+03 -0.44427340407E+03  0.69368546438E+03  0.98457823600E+03  0.00000000000E+00 0. -1.
<mgrwt>
<rscale>  0 0.18209084E+04</rscale>
<asrwt>0</asrwt>
<pdfrwt beam="1">  1        2 0.15794716E+00 0.18209084E+04</pdfrwt>
<pdfrwt beam="2">  1       -2 0.12421604E+00 0.18209084E+04</pdfrwt>
<totfact> 0.11119431E+01</totfact>
</mgrwt>
</event>
<event>
 6    1  0.9364335E-007  0.1093617E+04  0.7818608E-02  0.9211435E-01
         -2   -1    0    0    0  501 -0.00000000000E+00  0.00000000000E+00  0.16789088742E+03  0.16789088742E+03  0.00000000000E+00 0.  1.
          2   -1    0    0  501    0  0.00000000000E+00 -0.00000000000E+00 -0.17809168224E+04  0.17809168224E+04  0.00000000000E+00 0. -1.
         23    2    1    2    0    0  0.37561589919E+03 -0.19657442825E+03 -0.14170605751E+04  0.14817624959E+04  0.88490740503E+02 0.  0.
         13    1    3    3    0    0  0.24258922001E+03 -0.92355218769E+02 -0.95953925203E+03  0.99402947254E+03  0.00000000000E+00 0. -1.
        -13    1    3    3    0    0  0.13302667918E+03 -0.10421920948E+03 -0.45752132307E+03  0.48773302335E+03  0.00000000000E+00 0.  1.
         22    1    1    2    0    0 -0.37561589919E+03  0.19657442825E+03 -0.19596535985E+03  0.46704521390E+03  0.00000000000E+00 0.  1.
<mgrwt>
<rscale>  0 0.10936173E+04</rscale>
<asrwt>0</asrwt>
<pdfrwt beam="1">  1        2 0.27398719E+00 0.10936173E+04</pdfrwt>
<pdfrwt beam="2">  1       -2 0.25829369E-01 0.10936173E+04</pdfrwt>
<totfact> 0.11877815E+02</totfact>
</mgrwt>
</event>
<event>
 6    1  0.9364335E-007  0.3350464E+04  0.7818608E-02  0.8150172E-01
          2   -1    0    0  501    0  0.00000000000E+00  0.00000000000E+00  0.10298844053E+04  0.10298844053E+04  0.00000000000E+00 0. -1.
         -2   -1    0    0    0  501 -0.00000000000E+00 -0.00000000000E+00 -0.27249680063E+04  0.27249680063E+04  0.00000000000E+00 0.  1.
         23    2    1    2    0    0  0.27537801954E+03  0.14879237482E+04 -0.43684562412E+02  0.15150156053E+04  0.60114967217E+02 0.  0.
         11    1    3    3    0    0  0.14093958662E+03  0.91673875491E+03 -0.34491838310E+02  0.92815063365E+03  0.00000000000E+00 0.  1.
        -11    1    3    3    0    0  0.13443843292E+03  0.57118499324E+03 -0.91927241026E+01  0.58686497163E+03  0.00000000000E+00 0. -1.
         22    1    1    2    0    0 -0.27537801954E+03 -0.14879237482E+04 -0.16513990386E+04  0.22398368063E+04  0.00000000000E+00 0.  1.
<mgrwt>
<rscale>  0 0.33504639E+04</rscale>
<asrwt>0</asrwt>
<pdfrwt beam="1">  1        2 0.15844376E+00 0.33504639E+04</pdfrwt>
<pdfrwt beam="2">  1       -2 0.41922584E+00 0.33504639E+04</pdfrwt>
<totfact> 0.11111385E-01</totfact>
</mgrwt>
</event>
<event>
 6    1  0.9364335E-007  0.2332120E+04  0.7818608E-02  0.8465363E-01
         -3   -1    0    0    0  501 -0.00000000000E+00  0.00000000000E+00  0.32569581445E+03  0.32569581445E+03  0.00000000000E+00 0.  1.
          3   -1    0    0  501    0  0.00000000000E+00 -0.00000000000E+00 -0.41747413093E+04  0.41747413093E+04  0.00000000000E+00 0. -1.
         23    2    1    2    0    0 -0.10033829111E+04 -0.40000762209E+03 -0.10887039658E+04  0.15362730391E+04  0.89861901890E+02 0.  0.
         11    1    3    3    0    0 -0.33323455115E+03 -0.16409653574E+03 -0.33008456053E+03  0.49691926530E+03  0.00000000000E+00 0.  1.
        -11    1    3    3    0    0 -0.67014835993E+03 -0.23591108635E+03 -0.75861940531E+03  0.10393537738E+04  0.00000000000E+00 0. -1.
         22    1    1    2    0    0  0.10033829111E+04  0.40000762209E+03 -0.27603415290E+04  0.29641640846E+04  0.00000000000E+00 0.  1.
<mgrwt>
<rscale>  0 0.23321199E+04</rscale>
<asrwt>0</asrwt>
<pdfrwt beam="1">  1        3 0.64226786E+00 0.23321199E+04</pdfrwt>
<pdfrwt beam="2">  1       -3 0.50107051E-01 0.23321199E+04</pdfrwt>
<totfact> 0.64788250E-03</totfact>
</mgrwt>
</event>
<event>
 6    1  0.9364335E-007  0.1309652E+04  0.7818608E-02  0.9021946E-01
          2   -1    0    0  501    0  0.00000000000E+00  0.00000000000E+00  0.27782546288E+04  0.27782546288E+04  0.00000000000E+00 0. -1.
         -2   -1    0    0    0  501 -0.00000000000E+00 -0.00000000000E+00 -0.15434034590E+03  0.15434034590E+03  0.00000000000E+00 0.  1.
         23    2    1    2    0    0 -0.31107441881E+03  0.57244619969E+03  0.12990632778E+04  0.14562169298E+04  0.92414292840E+02 0.  0.
         13    1    3    3    0    0 -0.18561266947E+03  0.37856137764E+03  0.92589165798E+03  0.10173672601E+04  0.00000000000E+00 0. -1.
        -13    1    3    3    0    0 -0.12546174934E+03  0.19388482204E+03  0.37317161978E+03  0.43884966968E+03  0.00000000000E+00 0.  1.
         22    1    1    2    0    0  0.31107441881E+03 -0.57244619969E+03  0.13248510051E+04  0.14763780449E+04  0.00000000000E+00 0. -1.
<mgrwt>
<rscale>  0 0.13096515E+04</rscale>
<asrwt>0</asrwt>
<pdfrwt beam="1">  1        2 0.42742375E+00 0.13096515E+04</pdfrwt>
<pdfrwt beam="2">  1       -2 0.23744671E-01 0.13096515E+04</pdfrwt>
<totfact> 0.37058478E+01</totfact>
</mgrwt>
</event>
<event>
 6    1  0.9364335E-007  0.4427667E+04  0.7818608E-02  0.7923424E-01
          2   -1    0    0  501    0  0.00000000000E+00  0.00000000000E+00  0.35523479861E+04  0.35523479861E+04  0.00000000000E+00 0. -1.
         -2   -1    0    0    0  501 -0.00000000000E+00 -0.00000000000E+00 -0.13796673948E+04  0.13796673948E+04  0.00000000000E+00 0.  1.
         23    2    1    2    0    0  0.52092196634E+03  0.31426943791E+03  0.34567752676E+04  0.35110916981E+04  0.91349260412E+02 0.  0.
         11    1    3    3    0    0  0.13451260856E+03  0.46245143369E+02  0.94967386861E+03  0.96026700031E+03  0.00000000000E+00 0. -1.
        -11    1    3    3    0    0  0.38640935778E+03  0.26802429454E+03  0.25071013990E+04  0.25508246978E+04  0.00000000000E+00 0.  1.
         22    1    1    2    0    0 -0.52092196634E+03 -0.31426943791E+03 -0.12840946763E+04  0.14209236828E+04  0.00000000000E+00 0.  1.
<mgrwt>
<rscale>  0 0.44276670E+04</rscale>
<asrwt>0</asrwt>
<pdfrwt beam="1">  1        2 0.54651507E+00 0.44276670E+04</pdfrwt>
<pdfrwt beam="2">  1       -2 0.21225652E+00 0.44276670E+04</pdfrwt>
<totfact> 0.62893537E-02</totfact>
</mgrwt>
</event>
<event>
 6    1  0.9364335E-007  0.1462192E+04  0.7818608E-02  0.8909992E-01
          2   -1    0    0  501    0  0.00000000000E+00  0.00000000000E+00  0.16036940997E+04  0.16036940997E+04  0.00000000000E+00 0. -1.
         -2   -1    0    0    0  501 -0.00000000000E+00 -0.00000000000E+00 -0.33329381752E+03  0.33329381752E+03  0.00000000000E+00 0.  1.
         23    2    1    2    0    0 -0.12010463455E+03  0.68674000911E+03  0.35931300198E+03  0.78976649329E+03  0.92673173982E+02 0.  0.
         13    1    3    3    0    0 -0.32344553970E+02  0.49843028604E+02  0.19273653248E+02  0.62465761673E+02  0.00000000000E+00 0. -1.
        -13    1    3    3    0    0 -0.87760080581E+02  0.63689698051E+03  0.34003934873E+03  0.72730073161E+03  0.00000000000E+00 0.  1.
         22    1    1    2    0    0  0.12010463455E+03 -0.68674000911E+03  0.91108728018E+03  0.11472214239E+04  0.00000000000E+00 0.  1.
<mgrwt>
<rscale>  0 0.14621920E+04</rscale>
<asrwt>0</asrwt>
<pdfrwt beam="1">  1        2 0.24672216E+00 0.14621920E+04</pdfrwt>
<pdfrwt beam="2">  1       -2 0.51275973E-01 0.14621920E+04</pdfrwt>
<totfact> 0.38641332E+01</totfact>
</mgrwt>
</event>
<event>
 6    1  0.9364335E-007  0.2735536E+04  0.7818608E-02  0.8323566E-01
          2   -1    0    0  501    0  0.00000000000E+00  0.00000000000E+00  0.15963705292E+04  0.15963705292E+04  0.00000000000E+00 0. -1.
         -2   -1    0    0    0  501 -0.00000000000E+00 -0.00000000000E+00 -0.11719015544E+04  0.11719015544E+04  0.00000000000E+00 0.  1.
         23    2    1    2    0    0  0.11035544408E+04 -0.36722064452E+03  0.93785797174E+03  0.14969532142E+04  0.92779009769E+02 0.  0.
         11    1    3    3    0    0  0.36973843557E+03 -0.16787643284E+03  0.34183528184E+03  0.53079220732E+03  0.00000000000E+00 0. -1.
        -11    1    3    3    0    0  0.73381600522E+03 -0.19934421168E+03  0.59602268991E+03  0.96616100684E+03  0.00000000000E+00 0.  1.
         22    1    1    2    0    0 -0.11035544408E+04  0.36722064452E+03 -0.51338899691E+03  0.12713188694E+04  0.00000000000E+00 0.  1.
<mgrwt>
<rscale>  0 0.27355359E+04</rscale>
<asrwt>0</asrwt>
<pdfrwt beam="1">  1        2 0.24559547E+00 0.27355359E+04</pdfrwt>
<pdfrwt beam="2">  1       -2 0.18029255E+00 0.27355359E+04</pdfrwt>
<totfact> 0.17691939E+00</totfact>
</mgrwt>
</event>
<event>
 6    1  0.9364335E-007  0.2427469E+04  0.7818608E-02  0.8429291E-01
          2   -1    0    0  501    0  0.00000000000E+00  0.00000000000E+00  0.77299273878E+03  0.77299273878E+03  0.00000000000E+00 0. -1.
         -2   -1    0    0    0  501 -0.00000000000E+00 -0.00000000000E+00 -0.19057760540E+04  0.19057760540E+04  0.00000000000E+00 0.  1.
         23    2    1    2    0    0 -0.55851203047E+02  0.10636450229E+04  0.71007969322E+02  0.10714189403E+04  0.91849453956E+02 0.  0.
         13    1    3    3    0    0 -0.27572910431E+01  0.26421971176E+03  0.55940806992E+02  0.27009078589E+03  0.00000000000E+00 0. -1.
        -13    1    3    3    0    0 -0.53093912004E+02  0.79942531116E+03  0.15067162330E+02  0.80132815438E+03  0.00000000000E+00 0.  1.
         22    1    1    2    0    0  0.55851203047E+02 -0.10636450229E+04 -0.12037912846E+04  0.16073498525E+04  0.00000000000E+00 0.  1.
<mgrwt>
<rscale>  0 0.24274687E+04</rscale>
<asrwt>0</asrwt>
<pdfrwt beam="1">  1        2 0.11892196E+00 0.24274687E+04</pdfrwt>
<pdfrwt beam="2">  1       -2 0.29319632E+00 0.24274687E+04</pdfrwt>
<totfact> 0.11315822E+00</totfact>
</mgrwt>
</event>
<event>
 6    1  0.9364335E-007  0.7506013E+03  0.7818608E-02  0.9634407E-01
         -3   -1    0    0    0  501 -0.00000000000E+00  0.00000000000E+00  0.18516337828E+04  0.18516337828E+04  0.00000000000E+00 0.  1.
          3   -1    0    0  501    0  0.00000000000E+00 -0.00000000000E+00 -0.76068269271E+02  0.76068269271E+02  0.00000000000E+00 0. -1.
         23    2    1    2    0    0  0.36519426727E+03  0.18054854092E+02  0.75984865999E+03  0.84817736168E+03  0.91334660301E+02 0.  0.
         13    1    3    3    0    0  0.27383613256E+03 -0.15149764535E+02  0.49260664465E+03  0.56380586128E+03  0.00000000000E+00 0. -1.
        -13    1    3    3    0    0  0.91358134712E+02  0.33204618627E+02  0.26724201534E+03  0.28437150040E+03  0.00000000000E+00 0.  1.
         22    1    1    2    0    0 -0.36519426727E+03 -0.18054854092E+02  0.10157168536E+04  0.10795246904E+04  0.00000000000E+00 0.  1.
<mgrwt>
<rscale>  0 0.75060130E+03</rscale>
<asrwt>0</asrwt>
<pdfrwt beam="1">  1        3 0.11702812E-01 0.75060130E+03</pdfrwt>
<pdfrwt beam="2">  1       -3 0.28486670E+00 0.75060130E+03</pdfrwt>
<totfact> 0.73499831E+00</totfact>
</mgrwt>
</event>
<event>
 6    1  0.1202916E-006  0.3967013E+04  0.7818608E-02  0.8011234E-01
         -2   -1    0    0    0  501 -0.00000000000E+00  0.00000000000E+00  0.25248958098E+04  0.25248958098E+04  0.00000000000E+00 0.  1.
          2   -1    0    0  501    0  0.00000000000E+00 -0.00000000000E+00 -0.15582020146E+04  0.15582020146E+04  0.00000000000E+00 0. -1.
         23    2    1    2    0    0 -0.49576392095E+03  0.17044841494E+04 -0.42479514308E+03  0.18275957636E+04  0.92775432440E+02 0.  0.
         13    1    3    3    0    0 -0.32737229407E+03  0.11714132954E+04 -0.24852646136E+03  0.12414294702E+04  0.00000000000E+00 0.  1.
        -13    1    3    3    0    0 -0.16839162688E+03  0.53307085402E+03 -0.17626868172E+03  0.58616629344E+03  0.00000000000E+00 0. -1.
         22    1    1    2    0    0  0.49576392095E+03 -0.17044841494E+04  0.13914889382E+04  0.22555020607E+04  0.00000000000E+00 0.  1.
<mgrwt>
<rscale>  0 0.39670128E+04</rscale>
<asrwt>0</asrwt>
<pdfrwt beam="1">  1        2 0.23972339E+00 0.39670128E+04</pdfrwt>
<pdfrwt beam="2">  1       -2 0.38844551E+00 0.39670128E+04</pdfrwt>
<totfact> 0.82149303E-02</totfact>
</mgrwt>
</event>
<event>
 6    1  0.9364335E-007  0.2737398E+04  0.7818608E-02  0.8322972E-01
         -1   -1    0    0    0  501 -0.00000000000E+00  0.00000000000E+00  0.67572060422E+03  0.67572060422E+03  0.00000000000E+00 0.  1.
          1   -1    0    0  501    0  0.00000000000E+00 -0.00000000000E+00 -0.27723537464E+04  0.27723537464E+04  0.00000000000E+00 0. -1.
         23    2    1    2    0    0 -0.11139646045E+04 -0.79180093964E+03 -0.11147559020E+04  0.17652348506E+04  0.74212456507E+02 0.  0.
         13    1    3    3    0    0 -0.32648377015E+03 -0.21232385105E+03 -0.28019477950E+03  0.47977305506E+03  0.00000000000E+00 0.  1.
        -13    1    3    3    0    0 -0.78748083433E+03 -0.57947708858E+03 -0.83456112247E+03  0.12854617955E+04  0.00000000000E+00 0. -1.
         22    1    1    2    0    0  0.11139646045E+04  0.79180093964E+03 -0.98187724021E+03  0.16828395000E+04  0.00000000000E+00 0. -1.
<mgrwt>
<rscale>  0 0.27373977E+04</rscale>
<asrwt>0</asrwt>
<pdfrwt beam="1">  1        1 0.42651595E+00 0.27373977E+04</pdfrwt>
<pdfrwt beam="2">  1       -1 0.10395702E+00 0.27373977E+04</pdfrwt>
<totfact> 0.66104811E-01</totfact>
</mgrwt>
</event>
<event>
 6    1  0.9364335E-007  0.1987620E+04  0.7818608E-02  0.8612430E-01
          2   -1    0    0  501    0  0.00000000000E+00  0.00000000000E+00  0.57431342792E+03  0.57431342792E+03  0.00000000000E+00 0. -1.
         -2   -1    0    0    0  501 -0.00000000000E+00 -0.00000000000E+00 -0.17197208582E+04  0.17197208582E+04  0.00000000000E+00 0.  1.
         23    2    1    2    0    0 -0.78206084280E+03  0.17368450809E+03 -0.12485148608E+04  0.14863111823E+04  0.92445134267E+02 0.  0.
         13    1    3    3    0    0 -0.49058788761E+03  0.14733769291E+03 -0.74980774028E+03  0.90807296987E+03  0.00000000000E+00 0. -1.
        -13    1    3    3    0    0 -0.29147295518E+03  0.26346815181E+02 -0.49870712054E+03  0.57823821246E+03  0.00000000000E+00 0.  1.
         22    1    1    2    0    0  0.78206084280E+03 -0.17368450809E+03  0.10310743052E+03  0.80772310380E+03  0.00000000000E+00 0.  1.
<mgrwt>
<rscale>  0 0.19876205E+04</rscale>
<asrwt>0</asrwt>
<pdfrwt beam="1">  1        2 0.88355913E-01 0.19876205E+04</pdfrwt>
<pdfrwt beam="2">  1       -2 0.26457244E+00 0.19876205E+04</pdfrwt>
<totfact> 0.25439229E+00</totfact>
</mgrwt>
</event>
<event>
 6    1  0.9364335E-007  0.4727220E+03  0.7818608E-02  0.1021155E+00
          1   -1    0    0  501    0  0.00000000000E+00  0.00000000000E+00  0.18957808521E+03  0.18957808521E+03  0.00000000000E+00 0. -1.
         -1   -1    0    0    0  501 -0.00000000000E+00 -0.00000000000E+00 -0.29468876897E+03  0.29468876897E+03  0.00000000000E+00 0.  1.
         23    2    1    2    0    0 -0.13844033299E+02  0.18223937902E+03  0.84201075571E+02  0.22112850511E+03  0.91679583992E+02 0.  0.
         13    1    3    3    0    0  0.27093412636E+02  0.52519501766E+02  0.57604545520E+02  0.82526569894E+02  0.00000000000E+00 0. -1.
        -13    1    3    3    0    0 -0.40937445935E+02  0.12971987726E+03  0.26596530051E+02  0.13860193522E+03  0.00000000000E+00 0.  1.
         22    1    1    2    0    0  0.13844033299E+02 -0.18223937902E+03 -0.18931175934E+03  0.26313834906E+03  0.00000000000E+00 0.  1.
<mgrwt>
<rscale>  0 0.47272204E+03</rscale>
<asrwt>0</asrwt>
<pdfrwt beam="1">  1        1 0.29165859E-01 0.47272204E+03</pdfrwt>
<pdfrwt beam="2">  1       -1 0.45336734E-01 0.47272204E+03</pdfrwt>
<totfact> 0.77498581E+02</totfact>
</mgrwt>
</event>
<event>
 6    1  0.9364335E-007  0.3914863E+04  0.7818608E-02  0.8021945E-01
         -1   -1    0    0    0  501 -0.00000000000E+00  0.00000000000E+00  0.15106072355E+04  0.15106072355E+04  0.00000000000E+00 0.  1.
          1   -1    0    0  501    0  0.00000000000E+00 -0.00000000000E+00 -0.25364230337E+04  0.25364230337E+04  0.00000000000E+00 0. -1.
         23    2    1    2    0    0  0.18999764427E+04 -0.33801800917E+03 -0.84519893842E+03  0.21087864488E+04  0.91936846846E+02 0.  0.
         13    1    3    3    0    0  0.42897477904E+03 -0.11103430778E+03 -0.21369189170E+03  0.49194735810E+03  0.00000000000E+00 0. -1.
        -13    1    3    3    0    0  0.14710016637E+04 -0.22698370139E+03 -0.63150704671E+03  0.16168390907E+04  0.00000000000E+00 0.  1.
         22    1    1    2    0    0 -0.18999764427E+04  0.33801800917E+03 -0.18061685974E+03  0.19382438204E+04  0.00000000000E+00 0.  1.
<mgrwt>
<rscale>  0 0.39148635E+04</rscale>
<asrwt>0</asrwt>
<pdfrwt beam="1">  1        1 0.39021893E+00 0.39148635E+04</pdfrwt>
<pdfrwt beam="2">  1       -1 0.23240111E+00 0.39148635E+04</pdfrwt>
<totfact> 0.91647899E-02</totfact>
</mgrwt>
</event>
<event>
 6    1  0.9364335E-007  0.3051232E+04  0.7818608E-02  0.8229251E-01
         -1   -1    0    0    0  501 -0.00000000000E+00  0.00000000000E+00  0.13271990115E+04  0.13271990115E+04  0.00000000000E+00 0.  1.
          1   -1    0    0  501    0  0.00000000000E+00 -0.00000000000E+00 -0.17536969213E+04  0.17536969213E+04  0.00000000000E+00 0. -1.
         23    2    1    2    0    0 -0.14884573375E+04 -0.13631644070E+03 -0.51506278765E+03  0.15835879634E+04  0.91508168523E+02 0.  0.
         11    1    3    3    0    0 -0.11271202735E+04 -0.64169514469E+02 -0.38170649543E+03  0.11917288643E+04  0.00000000000E+00 0. -1.
        -11    1    3    3    0    0 -0.36133706406E+03 -0.72146926231E+02 -0.13335629222E+03  0.39185909904E+03  0.00000000000E+00 0.  1.
         22    1    1    2    0    0  0.14884573375E+04  0.13631644070E+03  0.88564877783E+02  0.14973079694E+04  0.00000000000E+00 0.  1.
<mgrwt>
<rscale>  0 0.30512324E+04</rscale>
<asrwt>0</asrwt>
<pdfrwt beam="1">  1        1 0.26979953E+00 0.30512324E+04</pdfrwt>
<pdfrwt beam="2">  1       -1 0.20418446E+00 0.30512324E+04</pdfrwt>
<totfact> 0.52286122E-01</totfact>
</mgrwt>
</event>
<event>
 6    1  0.9364335E-007  0.1284316E+04  0.7818608E-02  0.9042096E-01
         -1   -1    0    0    0  501 -0.00000000000E+00  0.00000000000E+00  0.48817923102E+03  0.48817923102E+03  0.00000000000E+00 0.  1.
          1   -1    0    0  501    0  0.00000000000E+00 -0.00000000000E+00 -0.84470443518E+03  0.84470443518E+03  0.00000000000E+00 0. -1.
         23    2    1    2    0    0  0.41934486186E+03 -0.38176090003E+03  0.12557324142E+03  0.58856491111E+03  0.95123696661E+02 0.  0.
         13    1    3    3    0    0  0.32344562091E+03 -0.28832063432E+03  0.53734353362E+02  0.43661566462E+03  0.00000000000E+00 0. -1.
        -13    1    3    3    0    0  0.95899240946E+02 -0.93440265712E+02  0.71838888056E+02  0.15194924649E+03  0.00000000000E+00 0.  1.
         22    1    1    2    0    0 -0.41934486186E+03  0.38176090003E+03 -0.48209844557E+03  0.74431875509E+03  0.00000000000E+00 0. -1.
<mgrwt>
<rscale>  0 0.12843164E+04</rscale>
<asrwt>0</asrwt>
<pdfrwt beam="1">  1        1 0.12995453E+00 0.12843164E+04</pdfrwt>
<pdfrwt beam="2">  1       -1 0.75104497E-01 0.12843164E+04</pdfrwt>
<totfact> 0.35496771E+01</totfact>
</mgrwt>
</event>
<event>
 6    1  0.9364335E-007  0.5133719E+03  0.7818608E-02  0.1010346E+00
         -1   -1    0    0    0  501 -0.00000000000E+00  0.00000000000E+00  0.41150561615E+02  0.41150561615E+02  0.00000000000E+00 0.  1.
          1   -1    0    0  501    0  0.00000000000E+00 -0.00000000000E+00 -0.16011366591E+04  0.16011366591E+04  0.00000000000E+00 0. -1.
         23    2    1    2    0    0 -0.15869470419E+02  0.21051961372E+03 -0.38104275972E+03  0.44459037197E+03  0.88863188416E+02 0.  0.
         11    1    3    3    0    0  0.34368668067E+02  0.52223056780E+02 -0.91972601970E+02  0.11120886888E+03  0.00000000000E+00 0. -1.
        -11    1    3    3    0    0 -0.50238138485E+02  0.15829655694E+03 -0.28907015775E+03  0.33338150309E+03  0.00000000000E+00 0.  1.
         22    1    1    2    0    0  0.15869470419E+02 -0.21051961372E+03 -0.11789433378E+04  0.11976968488E+04  0.00000000000E+00 0. -1.
<mgrwt>
<rscale>  0 0.51337188E+03</rscale>
<asrwt>0</asrwt>
<pdfrwt beam="1">  1        1 0.24632866E+00 0.51337188E+03</pdfrwt>
<pdfrwt beam="2">  1       -1 0.63308570E-02 0.51337188E+03</pdfrwt>
<totfact> 0.74241546E+02</totfact>
</mgrwt>
</event>
<event>
 6    1  0.9364335E-007  0.2190981E+04  0.7818608E-02  0.8522191E-01
         -1   -1    0    0    0  501 -0.00000000000E+00  0.00000000000E+00  0.40456008087E+03  0.40456008087E+03  0.00000000000E+00 0.  1.
          1   -1    0    0  501    0  0.00000000000E+00 -0.00000000000E+00 -0.29664306394E+04  0.29664306394E+04  0.00000000000E+00 0. -1.
         23    2    1    2    0    0  0.57531065040E+03 -0.53891944269E+03 -0.24493991899E+04  0.25747079068E+04  0.90265739588E+02 0.  0.
         11    1    3    3    0    0  0.43991668594E+02 -0.38683669489E+02 -0.11755105370E+03  0.13133903996E+03  0.00000000000E+00 0. -1.
        -11    1    3    3    0    0  0.53131898181E+03 -0.50023577320E+03 -0.23318481362E+04  0.24433688669E+04  0.00000000000E+00 0.  1.
         22    1    1    2    0    0 -0.57531065040E+03  0.53891944269E+03 -0.11247136859E+03  0.79628281341E+03  0.00000000000E+00 0.  1.
<mgrwt>
<rscale>  0 0.21909810E+04</rscale>
<asrwt>0</asrwt>
<pdfrwt beam="1">  1        1 0.45637396E+00 0.21909810E+04</pdfrwt>
<pdfrwt beam="2">  1       -1 0.62240010E-01 0.21909810E+04</pdfrwt>
<totfact> 0.15121108E+00</totfact>
</mgrwt>
</event>
<event>
 6    1  0.1155340E-006  0.3075156E+04  0.7818608E-02  0.8222589E-01
          2   -1    0    0  501    0  0.00000000000E+00  0.00000000000E+00  0.12440235125E+04  0.12440235125E+04  0.00000000000E+00 0. -1.
         -2   -1    0    0    0  501 -0.00000000000E+00 -0.00000000000E+00 -0.19004034959E+04  0.19004034959E+04  0.00000000000E+00 0.  1.
         23    2    1    2    0    0 -0.84129113464E+03  0.87508947782E+03  0.63428977768E+03  0.13725972198E+04  0.90262054175E+02 0.  0.
         13    1    3    3    0    0 -0.38568894812E+03  0.45629101432E+03  0.33867738600E+03  0.68677494585E+03  0.00000000000E+00 0.  1.
        -13    1    3    3    0    0 -0.45560218652E+03  0.41879846350E+03  0.29561239168E+03  0.68582227400E+03  0.00000000000E+00 0. -1.
         22    1    1    2    0    0  0.84129113464E+03 -0.87508947782E+03 -0.12906697610E+04  0.17718297885E+04  0.00000000000E+00 0.  1.
<mgrwt>
<rscale>  0 0.30751563E+04</rscale>
<asrwt>0</asrwt>
<pdfrwt beam="1">  1        2 0.19138823E+00 0.30751563E+04</pdfrwt>
<pdfrwt beam="2">  1       -2 0.29236977E+00 0.30751563E+04</pdfrwt>
<totfact> 0.53685300E-01</totfact>
</mgrwt>
</event>
<event>
 6    1  0.9364335E-007  0.2566187E+04  0.7818608E-02  0.8379778E-01
          1   -1    0    0  501    0  0.00000000000E+00  0.00000000000E+00  0.62311054366E+03  0.62311054366E+03  0.00000000000E+00 0. -1.
         -1   -1    0    0    0  501 -0.00000000000E+00 -0.00000000000E+00 -0.26421144856E+04  0.26421144856E+04  0.00000000000E+00 0.  1.
         23    2    1    2    0    0  0.10833190173E+04 -0.43673387797E+03 -0.16817088666E+04  0.20494600268E+04  0.88459687415E+02 0.  0.
         11    1    3    3    0    0  0.52260578605E+03 -0.21885662451E+03 -0.73961310307E+03  0.93168802286E+03  0.00000000000E+00 0. -1.
        -11    1    3    3    0    0  0.56071323121E+03 -0.21787725346E+03 -0.94209576349E+03  0.11177720040E+04  0.00000000000E+00 0.  1.
         22    1    1    2    0    0 -0.10833190173E+04  0.43673387797E+03 -0.33729507539E+03  0.12157650025E+04  0.00000000000E+00 0. -1.
<mgrwt>
<rscale>  0 0.25661874E+04</rscale>
<asrwt>0</asrwt>
<pdfrwt beam="1">  1        1 0.95863160E-01 0.25661874E+04</pdfrwt>
<pdfrwt beam="2">  1       -1 0.40647915E+00 0.25661874E+04</pdfrwt>
<totfact> 0.18490173E-01</totfact>
</mgrwt>
</event>
<event>
 6    1  0.9364335E-007  0.2168134E+04  0.7818608E-02  0.8531810E-01
         -1   -1    0    0    0  501 -0.00000000000E+00  0.00000000000E+00  0.69424230180E+03  0.69424230180E+03  0.00000000000E+00 0.  1.
          1   -1    0    0  501    0  0.00000000000E+00 -0.00000000000E+00 -0.16927827799E+04  0.16927827799E+04  0.00000000000E+00 0. -1.
         23    2    1    2    0    0  0.80576305546E+03 -0.62297230651E+03 -0.90075690796E+03  0.13638387727E+04  0.10651100666E+03 0.  0.
         11    1    3    3    0    0  0.36442656183E+03 -0.34879414187E+03 -0.45006672678E+03  0.67603559886E+03  0.00000000000E+00 0. -1.
        -11    1    3    3    0    0  0.44133649363E+03 -0.27417816465E+03 -0.45069018118E+03  0.68780317387E+03  0.00000000000E+00 0.  1.
         22    1    1    2    0    0 -0.80576305546E+03  0.62297230651E+03 -0.97783570107E+02  0.10231863089E+04  0.00000000000E+00 0.  1.
<mgrwt>
<rscale>  0 0.21681341E+04</rscale>
<asrwt>0</asrwt>
<pdfrwt beam="1">  1        1 0.26042812E+00 0.21681341E+04</pdfrwt>
<pdfrwt beam="2">  1       -1 0.10680651E+00 0.21681341E+04</pdfrwt>
<totfact> 0.36048832E+00</totfact>
</mgrwt>
</event>
<event>
 6    1  0.9364335E-007  0.3618959E+04  0.7818608E-02  0.8086163E-01
         -1   -1    0    0    0  501 -0.00000000000E+00  0.00000000000E+00  0.21342124678E+04  0.21342124678E+04  0.00000000000E+00 0.  1.
          1   -1    0    0  501    0  0.00000000000E+00 -0.00000000000E+00 -0.15341566280E+04  0.15341566280E+04  0.00000000000E+00 0. -1.
         23    2    1    2    0    0  0.51919065132E+03 -0.91076346438E+03  0.17937335798E+04  0.20796855001E+04  0.92534335752E+02 0.  0.
         13    1    3    3    0    0  0.35784223473E+03 -0.69827675748E+03  0.13771827794E+04  0.15850154267E+04  0.00000000000E+00 0. -1.
        -13    1    3    3    0    0  0.16134841659E+03 -0.21248670690E+03  0.41655080049E+03  0.49467007341E+03  0.00000000000E+00 0.  1.
         22    1    1    2    0    0 -0.51919065132E+03  0.91076346438E+03 -0.11936777400E+04  0.15886835957E+04  0.00000000000E+00 0. -1.
<mgrwt>
<rscale>  0 0.36189591E+04</rscale>
<asrwt>0</asrwt>
<pdfrwt beam="1">  1        1 0.23602410E+00 0.36189591E+04</pdfrwt>
<pdfrwt beam="2">  1       -1 0.32834038E+00 0.36189591E+04</pdfrwt>
<totfact> 0.10798303E-01</totfact>
</mgrwt>
</event>
<event>
 6    1  0.9364335E-007  0.1638945E+04  0.7818608E-02  0.8796974E-01
         -2   -1    0    0    0  501 -0.00000000000E+00  0.00000000000E+00  0.37159958882E+03  0.37159958882E+03  0.00000000000E+00 0.  1.
          2   -1    0    0  501    0  0.00000000000E+00 -0.00000000000E+00 -0.18071470527E+04  0.18071470527E+04  0.00000000000E+00 0. -1.
         23    2    1    2    0    0  0.56784453674E+02 -0.30757130130E+03  0.28355918284E+03  0.43141947057E+03  0.88839010835E+02 0.  0.
         13    1    3    3    0    0  0.39693347352E+02 -0.16259243273E+03  0.20820604524E+03  0.26713595468E+03  0.00000000000E+00 0.  1.
        -13    1    3    3    0    0  0.17091106322E+02 -0.14497886857E+03  0.75353137599E+02  0.16428351589E+03  0.00000000000E+00 0. -1.
         22    1    1    2    0    0 -0.56784453674E+02  0.30757130130E+03 -0.17191066468E+04  0.17473271710E+04  0.00000000000E+00 0. -1.
<mgrwt>
<rscale>  0 0.16389449E+04</rscale>
<asrwt>0</asrwt>
<pdfrwt beam="1">  1        2 0.27802262E+00 0.16389449E+04</pdfrwt>
<pdfrwt beam="2">  1       -2 0.57169169E-01 0.16389449E+04</pdfrwt>
<totfact> 0.23439925E+01</totfact>
</mgrwt>
</event>
<event>
 6    1  0.9364335E-007  0.2969318E+04  0.7818608E-02  0.8252547E-01
         -2   -1    0    0    0  501 -0.00000000000E+00  0.00000000000E+00  0.85308966345E+03  0.85308966345E+03  0.00000000000E+00 0.  1.
          2   -1    0    0  501    0  0.00000000000E+00 -0.00000000000E+00 -0.25837984485E+04  0.25837984485E+04  0.00000000000E+00 0. -1.
         23    2    1    2    0    0  0.70555869754E+03 -0.12955168046E+04 -0.10448194798E+04  0.18100442332E+04  0.91845055610E+02 0.  0.
         11    1    3    3    0    0  0.37856456552E+03 -0.61503706207E+03 -0.47982335742E+03  0.86707103072E+03  0.00000000000E+00 0.  1.
        -11    1    3    3    0    0  0.32699413202E+03 -0.68047974253E+03 -0.56499612233E+03  0.94297320249E+03  0.00000000000E+00 0. -1.
         22    1    1    2    0    0 -0.70555869754E+03  0.12955168046E+04 -0.68588930529E+03  0.16268438787E+04  0.00000000000E+00 0. -1.
<mgrwt>
<rscale>  0 0.29693176E+04</rscale>
<asrwt>0</asrwt>
<pdfrwt beam="1">  1        2 0.39750745E+00 0.29693176E+04</pdfrwt>
<pdfrwt beam="2">  1       -2 0.13124456E+00 0.29693176E+04</pdfrwt>
<totfact> 0.11313371E+00</totfact>
</mgrwt>
</event>
<event>
 6    1  0.9364335E-007  0.4057137E+04  0.7818608E-02  0.7993118E-01
          2   -1    0    0  501    0  0.00000000000E+00  0.00000000000E+00  0.22528172375E+04  0.22528172375E+04  0.00000000000E+00 0. -1.
         -2   -1    0    0    0  501 -0.00000000000E+00 -0.00000000000E+00 -0.18266421991E+04  0.18266421991E+04  0.00000000000E+00 0.  1.
         23    2    1    2    0    0 -0.14689135974E+04  0.84146064587E+03  0.13349140679E+04  0.21581136065E+04  0.98466210986E+02 0.  0.
         11    1    3    3    0    0 -0.10188364565E+04  0.63430446483E+03  0.95553584003E+03  0.15340855976E+04  0.00000000000E+00 0. -1.
        -11    1    3    3    0    0 -0.45007714089E+03  0.20715618104E+03  0.37937822783E+03  0.62402800886E+03  0.00000000000E+00 0.  1.
         22    1    1    2    0    0  0.14689135974E+04 -0.84146064587E+03 -0.90873902946E+03  0.19213458301E+04  0.00000000000E+00 0.  1.
<mgrwt>
<rscale>  0 0.40571374E+04</rscale>
<asrwt>0</asrwt>
<pdfrwt beam="1">  1        2 0.34658727E+00 0.40571374E+04</pdfrwt>
<pdfrwt beam="2">  1       -2 0.28102188E+00 0.40571374E+04</pdfrwt>
<totfact> 0.15717754E-01</totfact>
</mgrwt>
</event>
<event>
 6    1  0.9364335E-007  0.3864636E+04  0.7818608E-02  0.8032425E-01
         -1   -1    0    0    0  501 -0.00000000000E+00  0.00000000000E+00  0.16120967563E+04  0.16120967563E+04  0.00000000000E+00 0.  1.
          1   -1    0    0  501    0  0.00000000000E+00 -0.00000000000E+00 -0.23161472650E+04  0.23161472650E+04  0.00000000000E+00 0. -1.
         23    2    1    2    0    0 -0.87294967531E+03  0.11194112229E+04 -0.16831815084E+04  0.22037672496E+04  0.91473922767E+02 0.  0.
         11    1    3    3    0    0 -0.56102330768E+03  0.74296909106E+03 -0.10391771403E+04  0.13952201801E+04  0.00000000000E+00 0. -1.
        -11    1    3    3    0    0 -0.31192636764E+03  0.37644213185E+03 -0.64400436807E+03  0.80854706948E+03  0.00000000000E+00 0.  1.
         22    1    1    2    0    0  0.87294967531E+03 -0.11194112229E+04  0.97913099971E+03  0.17244767717E+04  0.00000000000E+00 0.  1.
<mgrwt>
<rscale>  0 0.38646363E+04</rscale>
<asrwt>0</asrwt>
<pdfrwt beam="1">  1        1 0.35633035E+00 0.38646363E+04</pdfrwt>
<pdfrwt beam="2">  1       -1 0.24801489E+00 0.38646363E+04</pdfrwt>
<totfact> 0.10314992E-01</totfact>
</mgrwt>
</event>
<event>
 6    1  0.9364335E-007  0.1651355E+04  0.7818608E-02  0.8789605E-01
          1   -1    0    0  501    0  0.00000000000E+00  0.00000000000E+00  0.11718563105E+04  0.11718563105E+04  0.00000000000E+00 0. -1.
         -1   -1    0    0    0  501 -0.00000000000E+00 -0.00000000000E+00 -0.58176339880E+03  0.58176339880E+03  0.00000000000E+00 0.  1.
         23    2    1    2    0    0  0.23373389044E+03  0.42247624530E+03 -0.41208618892E+03  0.64119862937E+03  0.90570115532E+02 0.  0.
         11    1    3    3    0    0  0.61727338348E+02  0.13079982459E+03 -0.73085006800E+02  0.16205022873E+03  0.00000000000E+00 0.  1.
        -11    1    3    3    0    0  0.17200655210E+03  0.29167642071E+03 -0.33900118212E+03  0.47914840064E+03  0.00000000000E+00 0. -1.
         22    1    1    2    0    0 -0.23373389044E+03 -0.42247624530E+03  0.10021791006E+04  0.11124210800E+04  0.00000000000E+00 0. -1.
<mgrwt>
<rscale>  0 0.16513547E+04</rscale>
<asrwt>0</asrwt>
<pdfrwt beam="1">  1        1 0.18028559E+00 0.16513547E+04</pdfrwt>
<pdfrwt beam="2">  1       -1 0.89502061E-01 0.16513547E+04</pdfrwt>
<totfact> 0.13095755E+01</totfact>
</mgrwt>
</event>
<event>
 6    1  0.9364335E-007  0.7257104E+04  0.7818608E-02  0.7551486E-01
         -2   -1    0    0    0  501 -0.00000000000E+00  0.00000000000E+00  0.27362604545E+04  0.27362604545E+04  0.00000000000E+00 0.  1.
          2   -1    0    0  501    0  0.00000000000E+00 -0.00000000000E+00 -0.48118190813E+04  0.48118190813E+04  0.00000000000E+00 0. -1.
         23    2    1    2    0    0  0.33688245893E+04  0.62534919798E+03  0.20235271678E+03  0.34336025555E+04  0.92947051757E+02 0.  0.
         11    1    3    3    0    0  0.70949855988E+03  0.12075103211E+03  0.61753995909E+01  0.71972713842E+03  0.00000000000E+00 0. -1.
        -11    1    3    3    0    0  0.26593260294E+04  0.50459816587E+03  0.19617731719E+03  0.27138754171E+04  0.00000000000E+00 0.  1.
         22    1    1    2    0    0 -0.33688245893E+04 -0.62534919798E+03 -0.22779113436E+04  0.41144769804E+04  0.00000000000E+00 0. -1.
<mgrwt>
<rscale>  0 0.72571042E+04</rscale>
<asrwt>0</asrwt>
<pdfrwt beam="1">  1        2 0.74027985E+00 0.72571042E+04</pdfrwt>
<pdfrwt beam="2">  1       -2 0.42096315E+00 0.72571042E+04</pdfrwt>
<totfact> 0.18756740E-04</totfact>
</mgrwt>
</event>
<event>
 6    1  0.9854508E-007  0.4312437E+04  0.7818608E-02  0.7944322E-01
         -1   -1    0    0    0  501 -0.00000000000E+00  0.00000000000E+00  0.15738223156E+04  0.15738223156E+04  0.00000000000E+00 0.  1.
          1   -1    0    0  501    0  0.00000000000E+00 -0.00000000000E+00 -0.29541318997E+04  0.29541318997E+04  0.00000000000E+00 0. -1.
         23    2    1    2    0    0 -0.44790652527E+03  0.42495983484E+03  0.14776574013E+04  0.16040550368E+04  0.91159470784E+02 0.  0.
         13    1    3    3    0    0 -0.36683556504E+03  0.32029256542E+03  0.10742422797E+04  0.11794711250E+04  0.00000000000E+00 0. -1.
        -13    1    3    3    0    0 -0.81070960234E+02  0.10466726941E+03  0.40341512161E+03  0.42458391188E+03  0.00000000000E+00 0.  1.
         22    1    1    2    0    0  0.44790652527E+03 -0.42495983484E+03 -0.28579669853E+04  0.29238991785E+04  0.00000000000E+00 0. -1.
<mgrwt>
<rscale>  0 0.43124372E+04</rscale>
<asrwt>0</asrwt>
<pdfrwt beam="1">  1        1 0.45448183E+00 0.43124372E+04</pdfrwt>
<pdfrwt beam="2">  1       -1 0.24212651E+00 0.43124372E+04</pdfrwt>
<totfact> 0.38655790E-02</totfact>
</mgrwt>
</event>
<event>
 6    1  0.9364335E-007  0.5120108E+04  0.7818608E-02  0.7810242E-01
         -2   -1    0    0    0  501 -0.00000000000E+00  0.00000000000E+00  0.22119480414E+04  0.22119480414E+04  0.00000000000E+00 0.  1.
          2   -1    0    0  501    0  0.00000000000E+00 -0.00000000000E+00 -0.29629434123E+04  0.29629434123E+04  0.00000000000E+00 0. -1.
         23    2    1    2    0    0  0.12954409479E+04 -0.45419788888E+03  0.18073997028E+04  0.22714713454E+04  0.91790062255E+02 0.  0.
         11    1    3    3    0    0  0.47469067826E+03 -0.13321614692E+03  0.59791861976E+03  0.77497384323E+03  0.00000000000E+00 0. -1.
        -11    1    3    3    0    0  0.82075026968E+03 -0.32098174196E+03  0.12094810830E+04  0.14964975022E+04  0.00000000000E+00 0.  1.
         22    1    1    2    0    0 -0.12954409479E+04  0.45419788888E+03 -0.25583950737E+04  0.29034201082E+04  0.00000000000E+00 0. -1.
<mgrwt>
<rscale>  0 0.51201082E+04</rscale>
<asrwt>0</asrwt>
<pdfrwt beam="1">  1        2 0.45583745E+00 0.51201082E+04</pdfrwt>
<pdfrwt beam="2">  1       -2 0.34029970E+00 0.51201082E+04</pdfrwt>
<totfact> 0.23702536E-02</totfact>
</mgrwt>
</event>
<event>
 6    1  0.9364335E-007  0.1650821E+04  0.7818608E-02  0.8789921E-01
         -1   -1    0    0    0  501 -0.00000000000E+00  0.00000000000E+00  0.29148974086E+03  0.29148974086E+03  0.00000000000E+00 0.  1.
          1   -1    0    0  501    0  0.00000000000E+00 -0.00000000000E+00 -0.23373125829E+04  0.23373125829E+04  0.00000000000E+00 0. -1.
         23    2    1    2    0    0 -0.53931015299E+03 -0.61973974387E+03 -0.95136003000E+03  0.12603062009E+04  0.91394869614E+02 0.  0.
         13    1    3    3    0    0 -0.19638260936E+03 -0.23290648555E+03 -0.42119463955E+03  0.51982351299E+03  0.00000000000E+00 0.  1.
        -13    1    3    3    0    0 -0.34292754363E+03 -0.38683325831E+03 -0.53016539045E+03  0.74048268795E+03  0.00000000000E+00 0. -1.
         22    1    1    2    0    0  0.53931015299E+03  0.61973974387E+03 -0.10944628120E+04  0.13684961228E+04  0.00000000000E+00 0. -1.
<mgrwt>
<rscale>  0 0.16508212E+04</rscale>
<asrwt>0</asrwt>
<pdfrwt beam="1">  1        1 0.35958655E+00 0.16508212E+04</pdfrwt>
<pdfrwt beam="2">  1       -1 0.44844576E-01 0.16508212E+04</pdfrwt>
<totfact> 0.82738738E+00</totfact>
</mgrwt>
</event>
<event>
 6    1  0.9364335E-007  0.5986372E+03  0.7818608E-02  0.9908238E-01
         -2   -1    0    0    0  501 -0.00000000000E+00  0.00000000000E+00  0.63558312452E+02  0.63558312452E+02  0.00000000000E+00 0.  1.
          2   -1    0    0  501    0  0.00000000000E+00 -0.00000000000E+00 -0.14095970882E+04  0.14095970882E+04  0.00000000000E+00 0. -1.
         23    2    1    2    0    0  0.28176802589E+03  0.34323258257E+02 -0.85801379273E+03  0.90858504142E+03  0.93636544737E+02 0.  0.
         13    1    3    3    0    0  0.25284193811E+03  0.15787177874E+02 -0.64764883666E+03  0.69543317169E+03  0.00000000000E+00 0. -1.
        -13    1    3    3    0    0  0.28926087779E+02  0.18536080383E+02 -0.21036495607E+03  0.21315186974E+03  0.00000000000E+00 0.  1.
         22    1    1    2    0    0 -0.28176802589E+03 -0.34323258257E+02 -0.48802498302E+03  0.56457035923E+03  0.00000000000E+00 0.  1.
<mgrwt>
<rscale>  0 0.59863716E+03</rscale>
<asrwt>0</asrwt>
<pdfrwt beam="1">  1        2 0.21686109E+00 0.59863716E+03</pdfrwt>
<pdfrwt beam="2">  1       -2 0.97782019E-02 0.59863716E+03</pdfrwt>
<totfact> 0.10339842E+03</totfact>
</mgrwt>
</event>
<event>
 6    1  0.9364335E-007  0.3238447E+04  0.7818608E-02  0.8178737E-01
         -2   -1    0    0    0  501 -0.00000000000E+00  0.00000000000E+00  0.17079559665E+04  0.17079559665E+04  0.00000000000E+00 0.  1.
          2   -1    0    0  501    0  0.00000000000E+00 -0.00000000000E+00 -0.15351011331E+04  0.15351011331E+04  0.00000000000E+00 0. -1.
         23    2    1    2    0    0 -0.28126249244E+03 -0.10636110515E+04 -0.11017800124E+04  0.15592901773E+04  0.84199778540E+02 0.  0.
         11    1    3    3    0    0 -0.14281520229E+03 -0.40625082515E+03 -0.46272876002E+03  0.63210269759E+03  0.00000000000E+00 0.  1.
        -11    1    3    3    0    0 -0.13844729014E+03 -0.65736022638E+03 -0.63905125240E+03  0.92718747973E+03  0.00000000000E+00 0. -1.
         22    1    1    2    0    0  0.28126249244E+03  0.10636110515E+04  0.12746348457E+04  0.16837669223E+04  0.00000000000E+00 0.  1.
<mgrwt>
<rscale>  0 0.32384472E+04</rscale>
<asrwt>0</asrwt>
<pdfrwt beam="1">  1        2 0.23616941E+00 0.32384472E+04</pdfrwt>
<pdfrwt beam="2">  1       -2 0.26276246E+00 0.32384472E+04</pdfrwt>
<totfact> 0.54631008E-01</totfact>
</mgrwt>
</event>
<event>
 6    1  0.9364335E-007  0.1110895E+04  0.7818608E-02  0.9194637E-01
         -2   -1    0    0    0  501 -0.00000000000E+00  0.00000000000E+00  0.27050335474E+03  0.27050335474E+03  0.00000000000E+00 0.  1.
          2   -1    0    0  501    0  0.00000000000E+00 -0.00000000000E+00 -0.11405482052E+04  0.11405482052E+04  0.00000000000E+00 0. -1.
         23    2    1    2    0    0 -0.18094006503E+03 -0.27052647751E+03  0.12775704001E+03  0.36151237782E+03  0.91899161466E+02 0.  0.
         11    1    3    3    0    0 -0.67804195339E+02 -0.10949495959E+03  0.99382340760E+02  0.16267576567E+03  0.00000000000E+00 0.  1.
        -11    1    3    3    0    0 -0.11313586969E+03 -0.16103151792E+03  0.28374699253E+02  0.19883661215E+03  0.00000000000E+00 0. -1.
         22    1    1    2    0    0  0.18094006503E+03  0.27052647751E+03 -0.99780189050E+03  0.10495391821E+04  0.00000000000E+00 0. -1.
<mgrwt>
<rscale>  0 0.11108953E+04</rscale>
<asrwt>0</asrwt>
<pdfrwt beam="1">  1        2 0.17546896E+00 0.11108953E+04</pdfrwt>
<pdfrwt beam="2">  1       -2 0.41615900E-01 0.11108953E+04</pdfrwt>
<totfact> 0.11160142E+02</totfact>
</mgrwt>
</event>
<event>
 6    1  0.9364335E-007  0.3154519E+03  0.7818608E-02  0.1077762E+00
          2   -1    0    0  501    0  0.00000000000E+00  0.00000000000E+00  0.91978340417E+03  0.91978340417E+03  0.00000000000E+00 0. -1.
         -2   -1    0    0    0  501 -0.00000000000E+00 -0.00000000000E+00 -0.27047103627E+02  0.27047103627E+02  0.00000000000E+00 0.  1.
         23    2    1    2    0    0  0.11086883965E+03 -0.92590162575E+02  0.50218905448E+03  0.53042687043E+03  0.91071294132E+02 0.  0.
         13    1    3    3    0    0 -0.45607905004E+01  0.12923403027E+02  0.29237071737E+02  0.32289650347E+02  0.00000000000E+00 0.  1.
        -13    1    3    3    0    0  0.11542963015E+03 -0.10551356560E+03  0.47295198275E+03  0.49813722008E+03  0.00000000000E+00 0. -1.
         22    1    1    2    0    0 -0.11086883965E+03  0.92590162575E+02  0.39054724606E+03  0.41640363737E+03  0.00000000000E+00 0. -1.
<mgrwt>
<rscale>  0 0.31545191E+03</rscale>
<asrwt>0</asrwt>
<pdfrwt beam="1">  1        2 0.14150512E+00 0.31545191E+03</pdfrwt>
<pdfrwt beam="2">  1       -2 0.41610936E-02 0.31545191E+03</pdfrwt>
<totfact> 0.76534961E+03</totfact>
</mgrwt>
</event>
<event>
 6    1  0.9364335E-007  0.4848278E+04  0.7818608E-02  0.7852348E-01
         -1   -1    0    0    0  501 -0.00000000000E+00  0.00000000000E+00  0.32450008965E+04  0.32450008965E+04  0.00000000000E+00 0.  1.
          1   -1    0    0  501    0  0.00000000000E+00 -0.00000000000E+00 -0.18109237367E+04  0.18109237367E+04  0.00000000000E+00 0. -1.
         23    2    1    2    0    0  0.76264943306E+03  0.15407122783E+04  0.24983286770E+04  0.30340295384E+04  0.90887730700E+02 0.  0.
         11    1    3    3    0    0  0.71526448718E+03  0.13946592275E+04  0.22977328913E+04  0.27814122469E+04  0.00000000000E+00 0.  1.
        -11    1    3    3    0    0  0.47384945882E+02  0.14605305081E+03  0.20059578567E+03  0.25261729152E+03  0.00000000000E+00 0. -1.
         22    1    1    2    0    0 -0.76264943306E+03 -0.15407122783E+04 -0.10642515172E+04  0.20218950947E+04  0.00000000000E+00 0. -1.
<mgrwt>
<rscale>  0 0.48482777E+04</rscale>
<asrwt>0</asrwt>
<pdfrwt beam="1">  1        1 0.27860365E+00 0.48482777E+04</pdfrwt>
<pdfrwt beam="2">  1       -1 0.49923091E+00 0.48482777E+04</pdfrwt>
<totfact> 0.44332944E-03</totfact>
</mgrwt>
</event>
<event>
 6    1  0.9364335E-007  0.2963472E+04  0.7818608E-02  0.8254239E-01
          2   -1    0    0  501    0  0.00000000000E+00  0.00000000000E+00  0.27788709689E+04  0.27788709689E+04  0.00000000000E+00 0. -1.
         -2   -1    0    0    0  501 -0.00000000000E+00 -0.00000000000E+00 -0.79008406195E+03  0.79008406195E+03  0.00000000000E+00 0.  1.
         23    2    1    2    0    0 -0.29813543055E+03 -0.12966277537E+04  0.17770331755E+04  0.22217475823E+04  0.90482851592E+02 0.  0.
         11    1    3    3    0    0 -0.24811020156E+03 -0.89365233175E+03  0.12400813461E+04  0.15485396046E+04  0.00000000000E+00 0. -1.
        -11    1    3    3    0    0 -0.50025228994E+02 -0.40297542192E+03  0.53695182939E+03  0.67320797774E+03  0.00000000000E+00 0.  1.
         22    1    1    2    0    0  0.29813543055E+03  0.12966277537E+04  0.21175373150E+03  0.13472074485E+04  0.00000000000E+00 0.  1.
<mgrwt>
<rscale>  0 0.29634721E+04</rscale>
<asrwt>0</asrwt>
<pdfrwt beam="1">  1        2 0.42751860E+00 0.29634721E+04</pdfrwt>
<pdfrwt beam="2">  1       -2 0.12155140E+00 0.29634721E+04</pdfrwt>
<totfact> 0.10510782E+00</totfact>
</mgrwt>
</event>
<event>
 6    1  0.9364335E-007  0.3470644E+04  0.7818608E-02  0.8120782E-01
          2   -1    0    0  501    0  0.00000000000E+00  0.00000000000E+00  0.17585021965E+04  0.17585021965E+04  0.00000000000E+00 0. -1.
         -2   -1    0    0    0  501 -0.00000000000E+00 -0.00000000000E+00 -0.17124476893E+04  0.17124476893E+04  0.00000000000E+00 0.  1.
         23    2    1    2    0    0  0.33906105202E+02  0.17271496770E+04  0.17547473033E+03  0.17386262368E+04  0.88510899501E+02 0.  0.
         11    1    3    3    0    0  0.32445668526E+02  0.14854672079E+04  0.18148816182E+03  0.14968645564E+04  0.00000000000E+00 0. -1.
        -11    1    3    3    0    0  0.14604366753E+01  0.24168246908E+03 -0.60134314940E+01  0.24176168037E+03  0.00000000000E+00 0.  1.
         22    1    1    2    0    0 -0.33906105202E+02 -0.17271496770E+04 -0.12942022314E+03  0.17323236490E+04  0.00000000000E+00 0.  1.
<mgrwt>
<rscale>  0 0.34706443E+04</rscale>
<asrwt>0</asrwt>
<pdfrwt beam="1">  1        2 0.27053880E+00 0.34706443E+04</pdfrwt>
<pdfrwt beam="2">  1       -2 0.26345349E+00 0.34706443E+04</pdfrwt>
<totfact> 0.39831367E-01</totfact>
</mgrwt>
</event>
<event>
 6    1  0.9364335E-007  0.4242468E+04  0.7818608E-02  0.7957343E-01
         -1   -1    0    0    0  501 -0.00000000000E+00  0.00000000000E+00  0.14365994177E+04  0.14365994177E+04  0.00000000000E+00 0.  1.
          1   -1    0    0  501    0  0.00000000000E+00 -0.00000000000E+00 -0.31321428681E+04  0.31321428681E+04  0.00000000000E+00 0. -1.
         23    2    1    2    0    0  0.80227708299E+03 -0.19377937447E+04 -0.51036128909E+03  0.21597279914E+04  0.72548167174E+02 0.  0.
         13    1    3    3    0    0  0.35686122827E+03 -0.94180727267E+03 -0.26505746069E+03  0.10414443492E+04  0.00000000000E+00 0.  1.
        -13    1    3    3    0    0  0.44541585472E+03 -0.99598647204E+03 -0.24530382839E+03  0.11182836422E+04  0.00000000000E+00 0. -1.
         22    1    1    2    0    0 -0.80227708299E+03  0.19377937447E+04 -0.11851821613E+04  0.24090142944E+04  0.00000000000E+00 0.  1.
<mgrwt>
<rscale>  0 0.42424684E+04</rscale>
<asrwt>0</asrwt>
<pdfrwt beam="1">  1        1 0.48186813E+00 0.42424684E+04</pdfrwt>
<pdfrwt beam="2">  1       -1 0.22101530E+00 0.42424684E+04</pdfrwt>
<totfact> 0.39688498E-02</totfact>
</mgrwt>
</event>
<event>
 6    1  0.9364335E-007  0.4770406E+04  0.7818608E-02  0.7864934E-01
         -1   -1    0    0    0  501 -0.00000000000E+00  0.00000000000E+00  0.19325637417E+04  0.19325637417E+04  0.00000000000E+00 0.  1.
          1   -1    0    0  501    0  0.00000000000E+00 -0.00000000000E+00 -0.29438582255E+04  0.29438582255E+04  0.00000000000E+00 0. -1.
         23    2    1    2    0    0 -0.22440182192E+04 -0.49471392891E+03 -0.11561207817E+04  0.25739593081E+04  0.91058323738E+02 0.  0.
         13    1    3    3    0    0 -0.62762696892E+03 -0.17832756197E+03 -0.31384187405E+03  0.72402558890E+03  0.00000000000E+00 0.  1.
        -13    1    3    3    0    0 -0.16163912503E+04 -0.31638636694E+03 -0.84227890763E+03  0.18499337192E+04  0.00000000000E+00 0. -1.
         22    1    1    2    0    0  0.22440182192E+04  0.49471392891E+03  0.14482629781E+03  0.23024626590E+04  0.00000000000E+00 0.  1.
<mgrwt>
<rscale>  0 0.47704061E+04</rscale>
<asrwt>0</asrwt>
<pdfrwt beam="1">  1        1 0.45290126E+00 0.47704061E+04</pdfrwt>
<pdfrwt beam="2">  1       -1 0.29731750E+00 0.47704061E+04</pdfrwt>
<totfact> 0.16595102E-02</totfact>
</mgrwt>
</event>
<event>
 6    1  0.9364335E-007  0.4026587E+04  0.7818608E-02  0.7999205E-01
         -1   -1    0    0    0  501 -0.00000000000E+00  0.00000000000E+00  0.18373872862E+04  0.18373872862E+04  0.00000000000E+00 0.  1.
          1   -1    0    0  501    0  0.00000000000E+00 -0.00000000000E+00 -0.22060403713E+04  0.22060403713E+04  0.00000000000E+00 0. -1.
         23    2    1    2    0    0 -0.63555781933E+02 -0.18666843162E+04 -0.93571036696E+03  0.20914789812E+04  0.10089977335E+03 0.  0.
         11    1    3    3    0    0  0.44893572288E+01 -0.94320475294E+03 -0.51100481323E+03  0.10727447410E+04  0.00000000000E+00 0. -1.
        -11    1    3    3    0    0 -0.68045139162E+02 -0.92347956330E+03 -0.42470555373E+03  0.10187342402E+04  0.00000000000E+00 0.  1.
         22    1    1    2    0    0  0.63555781933E+02  0.18666843162E+04  0.56705728183E+03  0.19519486763E+04  0.00000000000E+00 0.  1.
<mgrwt>
<rscale>  0 0.40265869E+04</rscale>
<asrwt>0</asrwt>
<pdfrwt beam="1">  1        1 0.33939082E+00 0.40265869E+04</pdfrwt>
<pdfrwt beam="2">  1       -1 0.28267497E+00 0.40265869E+04</pdfrwt>
<totfact> 0.72077553E-02</totfact>
</mgrwt>
</event>
<event>
 6    1  0.9364335E-007  0.1695480E+04  0.7818608E-02  0.8763946E-01
         -2   -1    0    0    0  501 -0.00000000000E+00  0.00000000000E+00  0.46520166042E+03  0.46520166042E+03  0.00000000000E+00 0.  1.
          2   -1    0    0  501    0  0.00000000000E+00 -0.00000000000E+00 -0.15448429153E+04  0.15448429153E+04  0.00000000000E+00 0. -1.
         23    2    1    2    0    0  0.62852251582E+03  0.55609665350E+03 -0.41999514333E+03  0.94260978456E+03  0.88505619017E+02 0.  0.
         11    1    3    3    0    0  0.38737410989E+02  0.31416152645E+02 -0.50659254715E+02  0.71090939967E+02  0.00000000000E+00 0. -1.
        -11    1    3    3    0    0  0.58978510483E+03  0.52468050086E+03 -0.36933588862E+03  0.87151884459E+03  0.00000000000E+00 0.  1.
         22    1    1    2    0    0 -0.62852251582E+03 -0.55609665350E+03 -0.65964611157E+03  0.10674347912E+04  0.00000000000E+00 0. -1.
<mgrwt>
<rscale>  0 0.16954805E+04</rscale>
<asrwt>0</asrwt>
<pdfrwt beam="1">  1        2 0.23766815E+00 0.16954805E+04</pdfrwt>
<pdfrwt beam="2">  1       -2 0.71569485E-01 0.16954805E+04</pdfrwt>
<totfact> 0.20184291E+01</totfact>
</mgrwt>
</event>
<event>
 6    1  0.9364335E-007  0.4198525E+04  0.7818608E-02  0.7965653E-01
          1   -1    0    0  501    0  0.00000000000E+00  0.00000000000E+00  0.37360606629E+04  0.37360606629E+04  0.00000000000E+00 0. -1.
         -1   -1    0    0    0  501 -0.00000000000E+00 -0.00000000000E+00 -0.11795588897E+04  0.11795588897E+04  0.00000000000E+00 0.  1.
         23    2    1    2    0    0 -0.71579824802E+03  0.25608792610E+03 -0.10108718266E+04  0.12681406207E+04  0.91491126753E+02 0.  0.
         11    1    3    3    0    0 -0.39578350506E+03  0.14083989654E+03 -0.48250080594E+03  0.63975580268E+03  0.00000000000E+00 0. -1.
        -11    1    3    3    0    0 -0.32001474296E+03  0.11524802956E+03 -0.52837102069E+03  0.62838481803E+03  0.00000000000E+00 0.  1.
         22    1    1    2    0    0  0.71579824802E+03 -0.25608792610E+03  0.35673735998E+04  0.36474789319E+04  0.00000000000E+00 0. -1.
<mgrwt>
<rscale>  0 0.41985252E+04</rscale>
<asrwt>0</asrwt>
<pdfrwt beam="1">  1        1 0.57477856E+00 0.41985252E+04</pdfrwt>
<pdfrwt beam="2">  1       -1 0.18147060E+00 0.41985252E+04</pdfrwt>
<totfact> 0.25144214E-02</totfact>
</mgrwt>
</event>
<event>
 6    1  0.9364335E-007  0.2270854E+04  0.7818608E-02  0.8489502E-01
         -2   -1    0    0    0  501 -0.00000000000E+00  0.00000000000E+00  0.16220770713E+04  0.16220770713E+04  0.00000000000E+00 0.  1.
          2   -1    0    0  501    0  0.00000000000E+00 -0.00000000000E+00 -0.79478035989E+03  0.79478035989E+03  0.00000000000E+00 0. -1.
         23    2    1    2    0    0  0.11283794509E+04  0.88794051476E+02  0.48044496552E+03  0.12330370469E+04  0.91806456086E+02 0.  0.
         13    1    3    3    0    0  0.33578198426E+03  0.48486852300E+02  0.18326464532E+03  0.38559881487E+03  0.00000000000E+00 0.  1.
        -13    1    3    3    0    0  0.79259746659E+03  0.40307199176E+02  0.29718032020E+03  0.84743823200E+03  0.00000000000E+00 0. -1.
         22    1    1    2    0    0 -0.11283794509E+04 -0.88794051476E+02  0.34685174589E+03  0.11838203843E+04  0.00000000000E+00 0.  1.
<mgrwt>
<rscale>  0 0.22708545E+04</rscale>
<asrwt>0</asrwt>
<pdfrwt beam="1">  1        2 0.12227390E+00 0.22708545E+04</pdfrwt>
<pdfrwt beam="2">  1       -2 0.24955032E+00 0.22708545E+04</pdfrwt>
<totfact> 0.20418220E+00</totfact>
</mgrwt>
</event>
<event>
 6    1  0.9364335E-007  0.1252206E+04  0.7818608E-02  0.9068350E-01
         -2   -1    0    0    0  501 -0.00000000000E+00  0.00000000000E+00  0.30493112713E+03  0.30493112713E+03  0.00000000000E+00 0.  1.
          2   -1    0    0  501    0  0.00000000000E+00 -0.00000000000E+00 -0.12855515432E+04  0.12855515432E+04  0.00000000000E+00 0. -1.
         23    2    1    2    0    0  0.15783082234E+03  0.56189972882E+03 -0.76926696415E+03  0.96974749706E+03  0.89424114097E+02 0.  0.
         13    1    3    3    0    0  0.88374367207E+02  0.17642996454E+03 -0.29044020498E+03  0.35113113481E+03  0.00000000000E+00 0.  1.
        -13    1    3    3    0    0  0.69456455129E+02  0.38546976429E+03 -0.47882675917E+03  0.61861636225E+03  0.00000000000E+00 0. -1.
         22    1    1    2    0    0 -0.15783082234E+03 -0.56189972882E+03 -0.21135345197E+03  0.62073517331E+03  0.00000000000E+00 0.  1.
<mgrwt>
<rscale>  0 0.12522055E+04</rscale>
<asrwt>0</asrwt>
<pdfrwt beam="1">  1        2 0.19777716E+00 0.12522055E+04</pdfrwt>
<pdfrwt beam="2">  1       -2 0.46912482E-01 0.12522055E+04</pdfrwt>
<totfact> 0.71367804E+01</totfact>
</mgrwt>
</event>
<event>
 6    1  0.9364335E-007  0.5922524E+03  0.7818608E-02  0.9921612E-01
          2   -1    0    0  501    0  0.00000000000E+00  0.00000000000E+00  0.15342608420E+03  0.15342608420E+03  0.00000000000E+00 0. -1.
         -2   -1    0    0    0  501 -0.00000000000E+00 -0.00000000000E+00 -0.57155024759E+03  0.57155024759E+03  0.00000000000E+00 0.  1.
         23    2    1    2    0    0  0.10897537161E+03 -0.75905567077E+02  0.98577859988E+02  0.19148006406E+03  0.96486961400E+02 0.  0.
         13    1    3    3    0    0  0.22369037919E+02 -0.56968101042E+02  0.80297246262E+02  0.10096230064E+03  0.00000000000E+00 0. -1.
        -13    1    3    3    0    0  0.86606333691E+02 -0.18937466035E+02  0.18280613725E+02  0.90517763413E+02  0.00000000000E+00 0.  1.
         22    1    1    2    0    0 -0.10897537161E+03  0.75905567077E+02 -0.51670202338E+03  0.53349626774E+03  0.00000000000E+00 0.  1.
<mgrwt>
<rscale>  0 0.59225237E+03</rscale>
<asrwt>0</asrwt>
<pdfrwt beam="1">  1        2 0.23604013E-01 0.59225237E+03</pdfrwt>
<pdfrwt beam="2">  1       -2 0.87930806E-01 0.59225237E+03</pdfrwt>
<totfact> 0.26409694E+02</totfact>
</mgrwt>
</event>
<event>
 6    1  0.9364335E-007  0.2419365E+04  0.7818608E-02  0.8432289E-01
         -1   -1    0    0    0  501 -0.00000000000E+00  0.00000000000E+00  0.39303180268E+04  0.39303180268E+04  0.00000000000E+00 0.  1.
          1   -1    0    0  501    0  0.00000000000E+00 -0.00000000000E+00 -0.37231901665E+03  0.37231901665E+03  0.00000000000E+00 0. -1.
         23    2    1    2    0    0 -0.24442607153E+03 -0.62357145511E+03 -0.61551793959E+01  0.67609867320E+03  0.92119843710E+02 0.  0.
         11    1    3    3    0    0 -0.13569836220E+03 -0.31961613367E+03  0.41810848201E+02  0.34973799541E+03  0.00000000000E+00 0. -1.
        -11    1    3    3    0    0 -0.10872770933E+03 -0.30395532144E+03 -0.47966027597E+02  0.32636067779E+03  0.00000000000E+00 0.  1.
         22    1    1    2    0    0  0.24442607153E+03  0.62357145511E+03  0.35641541896E+04  0.36265383703E+04  0.00000000000E+00 0.  1.
<mgrwt>
<rscale>  0 0.24193653E+04</rscale>
<asrwt>0</asrwt>
<pdfrwt beam="1">  1        1 0.57279852E-01 0.24193653E+04</pdfrwt>
<pdfrwt beam="2">  1       -1 0.60466428E+00 0.24193653E+04</pdfrwt>
<totfact> 0.24498369E-02</totfact>
</mgrwt>
</event>
<event>
 6    1  0.9364335E-007  0.3360925E+04  0.7818608E-02  0.8147564E-01
         -2   -1    0    0    0  501 -0.00000000000E+00  0.00000000000E+00  0.27965550333E+04  0.27965550333E+04  0.00000000000E+00 0.  1.
          2   -1    0    0  501    0  0.00000000000E+00 -0.00000000000E+00 -0.10097972688E+04  0.10097972688E+04  0.00000000000E+00 0. -1.
         23    2    1    2    0    0 -0.12074241836E+04 -0.11225736196E+04  0.53188150765E+03  0.17344548358E+04  0.85970627028E+02 0.  0.
         13    1    3    3    0    0 -0.97102004256E+03 -0.92403911380E+03  0.40073613243E+03  0.13990416916E+04  0.00000000000E+00 0. -1.
        -13    1    3    3    0    0 -0.23640414108E+03 -0.19853450583E+03  0.13114537521E+03  0.33541314429E+03  0.00000000000E+00 0.  1.
         22    1    1    2    0    0  0.12074241836E+04  0.11225736196E+04  0.12548762569E+04  0.20718974663E+04  0.00000000000E+00 0.  1.
<mgrwt>
<rscale>  0 0.33609247E+04</rscale>
<asrwt>0</asrwt>
<pdfrwt beam="1">  1        2 0.15535343E+00 0.33609247E+04</pdfrwt>
<pdfrwt beam="2">  1       -2 0.43023923E+00 0.33609247E+04</pdfrwt>
<totfact> 0.96682422E-02</totfact>
</mgrwt>
</event>
<event>
 6    1  0.9364335E-007  0.1210031E+04  0.7818608E-02  0.9104122E-01
         -2   -1    0    0    0  501 -0.00000000000E+00  0.00000000000E+00  0.57312293110E+03  0.57312293110E+03  0.00000000000E+00 0.  1.
          2   -1    0    0  501    0  0.00000000000E+00 -0.00000000000E+00 -0.63868251855E+03  0.63868251855E+03  0.00000000000E+00 0. -1.
         23    2    1    2    0    0  0.40903899145E+01  0.48936215514E+03 -0.38516614642E+03  0.62730531901E+03  0.75279165366E+02 0.  0.
         11    1    3    3    0    0  0.25150221329E+02  0.16227018181E+03 -0.95986224426E+02  0.19020384018E+03  0.00000000000E+00 0.  1.
        -11    1    3    3    0    0 -0.21059831414E+02  0.32709197333E+03 -0.28917992199E+03  0.43710147883E+03  0.00000000000E+00 0. -1.
         22    1    1    2    0    0 -0.40903899145E+01 -0.48936215514E+03  0.31960655897E+03  0.58450013063E+03  0.00000000000E+00 0.  1.
<mgrwt>
<rscale>  0 0.12100307E+04</rscale>
<asrwt>0</asrwt>
<pdfrwt beam="1">  1        2 0.98258849E-01 0.12100307E+04</pdfrwt>
<pdfrwt beam="2">  1       -2 0.88172759E-01 0.12100307E+04</pdfrwt>
<totfact> 0.50225085E+01</totfact>
</mgrwt>
</event>
<event>
 6    1  0.9364335E-007  0.4997594E+04  0.7818608E-02  0.7828878E-01
          2   -1    0    0  501    0  0.00000000000E+00  0.00000000000E+00  0.23373592180E+04  0.23373592180E+04  0.00000000000E+00 0. -1.
         -2   -1    0    0    0  501 -0.00000000000E+00 -0.00000000000E+00 -0.26713855721E+04  0.26713855721E+04  0.00000000000E+00 0.  1.
         23    2    1    2    0    0 -0.30690550854E+03  0.17634696091E+04 -0.19133599569E+04  0.26216313277E+04  0.89378074934E+02 0.  0.
         11    1    3    3    0    0 -0.11781834130E+03  0.45669346339E+03 -0.48753526693E+03  0.67833672873E+03  0.00000000000E+00 0. -1.
        -11    1    3    3    0    0 -0.18908716724E+03  0.13067761458E+04 -0.14258246900E+04  0.19432945990E+04  0.00000000000E+00 0.  1.
         22    1    1    2    0    0  0.30690550854E+03 -0.17634696091E+04  0.15793336028E+04  0.23871134624E+04  0.00000000000E+00 0. -1.
<mgrwt>
<rscale>  0 0.49975945E+04</rscale>
<asrwt>0</asrwt>
<pdfrwt beam="1">  1        2 0.35959373E+00 0.49975945E+04</pdfrwt>
<pdfrwt beam="2">  1       -2 0.41098240E+00 0.49975945E+04</pdfrwt>
<totfact> 0.19785210E-02</totfact>
</mgrwt>
</event>
<event>
 6    1  0.9364335E-007  0.1773689E+04  0.7818608E-02  0.8720418E-01
          2   -1    0    0  501    0  0.00000000000E+00  0.00000000000E+00  0.12406361302E+04  0.12406361302E+04  0.00000000000E+00 0. -1.
         -2   -1    0    0    0  501 -0.00000000000E+00 -0.00000000000E+00 -0.63394334984E+03  0.63394334984E+03  0.00000000000E+00 0.  1.
         23    2    1    2    0    0  0.60354018493E+03  0.61758409041E+03  0.10160886088E+03  0.87418924157E+03  0.90617911683E+02 0.  0.
         11    1    3    3    0    0  0.17509699174E+03  0.16769195319E+03 -0.11487439560E+02  0.24271693173E+03  0.00000000000E+00 0.  1.
        -11    1    3    3    0    0  0.42844319319E+03  0.44989213722E+03  0.11309630044E+03  0.63147230984E+03  0.00000000000E+00 0. -1.
         22    1    1    2    0    0 -0.60354018493E+03 -0.61758409041E+03  0.50508391953E+03  0.10003902385E+04  0.00000000000E+00 0.  1.
<mgrwt>
<rscale>  0 0.17736888E+04</rscale>
<asrwt>0</asrwt>
<pdfrwt beam="1">  1        2 0.19086710E+00 0.17736888E+04</pdfrwt>
<pdfrwt beam="2">  1       -2 0.97529746E-01 0.17736888E+04</pdfrwt>
<totfact> 0.14853528E+01</totfact>
</mgrwt>
</event>
<event>
 6    1  0.9364335E-007  0.3892367E+04  0.7818608E-02  0.8026619E-01
         -2   -1    0    0    0  501 -0.00000000000E+00  0.00000000000E+00  0.13578391245E+04  0.13578391245E+04  0.00000000000E+00 0.  1.
          2   -1    0    0  501    0  0.00000000000E+00 -0.00000000000E+00 -0.27894540900E+04  0.27894540900E+04  0.00000000000E+00 0. -1.
         23    2    1    2    0    0  0.15655178648E+04  0.19605366290E+03 -0.19292919350E+04  0.24929155099E+04  0.56366170502E+02 0.  0.
         13    1    3    3    0    0  0.67404269560E+03  0.68477133921E+02 -0.79212205078E+03  0.10423435214E+04  0.00000000000E+00 0. -1.
        -13    1    3    3    0    0  0.89147516916E+03  0.12757652898E+03 -0.11371698842E+04  0.14505719884E+04  0.00000000000E+00 0.  1.
         22    1    1    2    0    0 -0.15655178648E+04 -0.19605366290E+03  0.49767696953E+03  0.16543777046E+04  0.00000000000E+00 0.  1.
<mgrwt>
<rscale>  0 0.38923668E+04</rscale>
<asrwt>0</asrwt>
<pdfrwt beam="1">  1        2 0.42914678E+00 0.38923668E+04</pdfrwt>
<pdfrwt beam="2">  1       -2 0.20889833E+00 0.38923668E+04</pdfrwt>
<totfact> 0.21729332E-01</totfact>
</mgrwt>
</event>
<event>
 6    1  0.9364335E-007  0.1872818E+04  0.7818608E-02  0.8668506E-01
          2   -1    0    0  501    0  0.00000000000E+00  0.00000000000E+00  0.12090815555E+04  0.12090815555E+04  0.00000000000E+00 0. -1.
         -2   -1    0    0    0  501 -0.00000000000E+00 -0.00000000000E+00 -0.72522951083E+03  0.72522951083E+03  0.00000000000E+00 0.  1.
         23    2    1    2    0    0 -0.24715758673E+03  0.87129818910E+03  0.62118096064E+01  0.91040306210E+03  0.92453998806E+02 0.  0.
         13    1    3    3    0    0 -0.20303964138E+03  0.71054919674E+03  0.40971529414E+02  0.74012426199E+03  0.00000000000E+00 0. -1.
        -13    1    3    3    0    0 -0.44117945350E+02  0.16074899235E+03 -0.34759719808E+02  0.17027880011E+03  0.00000000000E+00 0.  1.
         22    1    1    2    0    0  0.24715758673E+03 -0.87129818910E+03  0.47764023507E+03  0.10239080042E+04  0.00000000000E+00 0. -1.
<mgrwt>
<rscale>  0 0.18728178E+04</rscale>
<asrwt>0</asrwt>
<pdfrwt beam="1">  1        2 0.18601255E+00 0.18728178E+04</pdfrwt>
<pdfrwt beam="2">  1       -2 0.11157377E+00 0.18728178E+04</pdfrwt>
<totfact> 0.11146310E+01</totfact>
</mgrwt>
</event>
<event>
 6    1  0.9364335E-007  0.2608542E+04  0.7818608E-02  0.8365306E-01
         -1   -1    0    0    0  501 -0.00000000000E+00  0.00000000000E+00  0.73558584152E+03  0.73558584152E+03  0.00000000000E+00 0.  1.
          1   -1    0    0  501    0  0.00000000000E+00 -0.00000000000E+00 -0.23126087630E+04  0.23126087630E+04  0.00000000000E+00 0. -1.
         23    2    1    2    0    0 -0.26271998584E+03  0.99331936976E+03 -0.17251730774E+04  0.20100936316E+04  0.92461341140E+02 0.  0.
         13    1    3    3    0    0 -0.15114096555E+03  0.73236774525E+03 -0.12448810265E+04  0.14522172275E+04  0.00000000000E+00 0. -1.
        -13    1    3    3    0    0 -0.11157902029E+03  0.26095162451E+03 -0.48029205092E+03  0.55787640413E+03  0.00000000000E+00 0.  1.
         22    1    1    2    0    0  0.26271998584E+03 -0.99331936976E+03  0.14815015589E+03  0.10381009729E+04  0.00000000000E+00 0.  1.
<mgrwt>
<rscale>  0 0.26085416E+04</rscale>
<asrwt>0</asrwt>
<pdfrwt beam="1">  1        1 0.35578595E+00 0.26085416E+04</pdfrwt>
<pdfrwt beam="2">  1       -1 0.11316706E+00 0.26085416E+04</pdfrwt>
<totfact> 0.11450386E+00</totfact>
</mgrwt>
</event>
<event>
 6    1  0.9364335E-007  0.1573462E+04  0.7818608E-02  0.8837019E-01
         -1   -1    0    0    0  501 -0.00000000000E+00  0.00000000000E+00  0.32569048632E+03  0.32569048632E+03  0.00000000000E+00 0.  1.
          1   -1    0    0  501    0  0.00000000000E+00 -0.00000000000E+00 -0.19004114725E+04  0.19004114725E+04  0.00000000000E+00 0. -1.
         23    2    1    2    0    0 -0.12987545451E+03  0.52813071118E+03 -0.15890714311E+04  0.16820471666E+04  0.91350837305E+02 0.  0.
         11    1    3    3    0    0 -0.83483523420E+02  0.36841905905E+03 -0.12219955020E+04  0.12790524261E+04  0.00000000000E+00 0. -1.
        -11    1    3    3    0    0 -0.46391931091E+02  0.15971165213E+03 -0.36707592914E+03  0.40299474047E+03  0.00000000000E+00 0.  1.
         22    1    1    2    0    0  0.12987545451E+03 -0.52813071118E+03  0.14350444911E+02  0.54405479232E+03  0.00000000000E+00 0.  1.
<mgrwt>
<rscale>  0 0.15734623E+04</rscale>
<asrwt>0</asrwt>
<pdfrwt beam="1">  1        1 0.29237099E+00 0.15734623E+04</pdfrwt>
<pdfrwt beam="2">  1       -1 0.50106229E-01 0.15734623E+04</pdfrwt>
<totfact> 0.13388796E+01</totfact>
</mgrwt>
</event>
<event>
 6    1  0.9364335E-007  0.3557977E+04  0.7818608E-02  0.8100186E-01
         -2   -1    0    0    0  501 -0.00000000000E+00  0.00000000000E+00  0.18319511260E+04  0.18319511260E+04  0.00000000000E+00 0.  1.
          2   -1    0    0  501    0  0.00000000000E+00 -0.00000000000E+00 -0.17275573036E+04  0.17275573036E+04  0.00000000000E+00 0. -1.
         23    2    1    2    0    0 -0.11972646183E+04 -0.10148123418E+04  0.88784869023E+03  0.18053453285E+04  0.87805484876E+02 0.  0.
         13    1    3    3    0    0 -0.53960290564E+03 -0.50052791344E+03  0.38281511178E+03  0.82960647159E+03  0.00000000000E+00 0. -1.
        -13    1    3    3    0    0 -0.65766171266E+03 -0.51428442833E+03  0.50503357845E+03  0.97573885691E+03  0.00000000000E+00 0.  1.
         22    1    1    2    0    0  0.11972646183E+04  0.10148123418E+04 -0.78345486789E+03  0.17541631011E+04  0.00000000000E+00 0. -1.
<mgrwt>
<rscale>  0 0.35579773E+04</rscale>
<asrwt>0</asrwt>
<pdfrwt beam="1">  1        2 0.26577805E+00 0.35579773E+04</pdfrwt>
<pdfrwt beam="2">  1       -2 0.28183863E+00 0.35579773E+04</pdfrwt>
<totfact> 0.31772769E-01</totfact>
</mgrwt>
</event>
<event>
 6    1  0.9364335E-007  0.1462962E+04  0.7818608E-02  0.8909463E-01
          2   -1    0    0  501    0  0.00000000000E+00  0.00000000000E+00  0.14599555736E+04  0.14599555736E+04  0.00000000000E+00 0. -1.
         -2   -1    0    0    0  501 -0.00000000000E+00 -0.00000000000E+00 -0.36649374207E+03  0.36649374207E+03  0.00000000000E+00 0.  1.
         23    2    1    2    0    0  0.67146684098E+03  0.30707296269E+01  0.90082247108E+03  0.11278886017E+04  0.98865694852E+02 0.  0.
         11    1    3    3    0    0  0.37722177331E+03 -0.45441692683E+02  0.48213839786E+03  0.61385555987E+03  0.00000000000E+00 0. -1.
        -11    1    3    3    0    0  0.29424506767E+03  0.48512422310E+02  0.41868407322E+03  0.51403304187E+03  0.00000000000E+00 0.  1.
         22    1    1    2    0    0 -0.67146684098E+03 -0.30707296269E+01  0.19263936049E+03  0.69856071398E+03  0.00000000000E+00 0. -1.
<mgrwt>
<rscale>  0 0.14629622E+04</rscale>
<asrwt>0</asrwt>
<pdfrwt beam="1">  1        2 0.22460855E+00 0.14629622E+04</pdfrwt>
<pdfrwt beam="2">  1       -2 0.56383654E-01 0.14629622E+04</pdfrwt>
<totfact> 0.38244901E+01</totfact>
</mgrwt>
</event>
<event>
 6    1  0.9364335E-007  0.1145077E+04  0.7818608E-02  0.9162337E-01
          2   -1    0    0  501    0  0.00000000000E+00  0.00000000000E+00  0.12593101055E+04  0.12593101055E+04  0.00000000000E+00 0. -1.
         -2   -1    0    0    0  501 -0.00000000000E+00 -0.00000000000E+00 -0.26030149731E+03  0.26030149731E+03  0.00000000000E+00 0.  1.
         23    2    1    2    0    0 -0.37948740208E+03 -0.23275836125E+03  0.32720342280E+02  0.45570363878E+03  0.91695379035E+02 0.  0.
         11    1    3    3    0    0 -0.24812259847E+03 -0.10292188487E+03  0.35669082147E+02  0.27097974403E+03  0.00000000000E+00 0.  1.
        -11    1    3    3    0    0 -0.13136480361E+03 -0.12983647637E+03 -0.29487398670E+01  0.18472389475E+03  0.00000000000E+00 0. -1.
         22    1    1    2    0    0  0.37948740208E+03  0.23275836125E+03  0.96628826592E+03  0.10639079640E+04  0.00000000000E+00 0. -1.
<mgrwt>
<rscale>  0 0.11450770E+04</rscale>
<asrwt>0</asrwt>
<pdfrwt beam="1">  1        2 0.19374001E+00 0.11450770E+04</pdfrwt>
<pdfrwt beam="2">  1       -2 0.40046385E-01 0.11450770E+04</pdfrwt>
<totfact> 0.10197385E+02</totfact>
</mgrwt>
</event>
<event>
 6    1  0.9364335E-007  0.1977972E+04  0.7818608E-02  0.8616989E-01
         -2   -1    0    0    0  501 -0.00000000000E+00  0.00000000000E+00  0.40765814880E+03  0.40765814880E+03  0.00000000000E+00 0.  1.
          2   -1    0    0  501    0  0.00000000000E+00 -0.00000000000E+00 -0.23992985220E+04  0.23992985220E+04  0.00000000000E+00 0. -1.
         23    2    1    2    0    0 -0.21724833628E+03  0.75275828727E+03 -0.18494366327E+04  0.20106754501E+04  0.92509611483E+02 0.  0.
         11    1    3    3    0    0 -0.27196522789E+02  0.24691068948E+03 -0.60062808124E+03  0.64996817723E+03  0.00000000000E+00 0.  1.
        -11    1    3    3    0    0 -0.19005181349E+03  0.50584759780E+03 -0.12488085515E+04  0.13607072728E+04  0.00000000000E+00 0. -1.
         22    1    1    2    0    0  0.21724833628E+03 -0.75275828727E+03 -0.14220374043E+03  0.79628122072E+03  0.00000000000E+00 0.  1.
<mgrwt>
<rscale>  0 0.19779723E+04</rscale>
<asrwt>0</asrwt>
<pdfrwt beam="1">  1        2 0.36912285E+00 0.19779723E+04</pdfrwt>
<pdfrwt beam="2">  1       -2 0.62716638E-01 0.19779723E+04</pdfrwt>
<totfact> 0.87329343E+00</totfact>
</mgrwt>
</event>
<event>
 6    1  0.9364335E-007  0.3559562E+04  0.7818608E-02  0.8099818E-01
         -2   -1    0    0    0  501 -0.00000000000E+00  0.00000000000E+00  0.16657629937E+04  0.16657629937E+04  0.00000000000E+00 0.  1.
          2   -1    0    0  501    0  0.00000000000E+00 -0.00000000000E+00 -0.19016027700E+04  0.19016027700E+04  0.00000000000E+00 0. -1.
         23    2    1    2    0    0 -0.17953568755E+03  0.10383782405E+04  0.13183280399E+04  0.16896277537E+04  0.79941802877E+02 0.  0.
         11    1    3    3    0    0 -0.56901147243E+02  0.48223564285E+03  0.55875852633E+03  0.74027025237E+03  0.00000000000E+00 0. -1.
        -11    1    3    3    0    0 -0.12263454030E+03  0.55614259764E+03  0.75956951356E+03  0.94935750132E+03  0.00000000000E+00 0.  1.
         22    1    1    2    0    0  0.17953568755E+03 -0.10383782405E+04 -0.15541678162E+04  0.18777380101E+04  0.00000000000E+00 0. -1.
<mgrwt>
<rscale>  0 0.35595615E+04</rscale>
<asrwt>0</asrwt>
<pdfrwt beam="1">  1        2 0.29255427E+00 0.35595615E+04</pdfrwt>
<pdfrwt beam="2">  1       -2 0.25627123E+00 0.35595615E+04</pdfrwt>
<totfact> 0.36442277E-01</totfact>
</mgrwt>
</event>
<event>
 6    1  0.9364335E-007  0.7085779E+03  0.7818608E-02  0.9702674E-01
          2   -1    0    0  501    0  0.00000000000E+00  0.00000000000E+00  0.12538664495E+04  0.12538664495E+04  0.00000000000E+00 0. -1.
         -2   -1    0    0    0  501 -0.00000000000E+00 -0.00000000000E+00 -0.10010688819E+03  0.10010688819E+03  0.00000000000E+00 0.  1.
         23    2    1    2    0    0 -0.14863976986E+03 -0.29267232917E+03  0.36285385888E+03  0.49765406104E+03  0.90806211863E+02 0.  0.
         11    1    3    3    0    0 -0.72142490922E+02 -0.21403917938E+03  0.20243146917E+03  0.30330810905E+03  0.00000000000E+00 0. -1.
        -11    1    3    3    0    0 -0.76497278940E+02 -0.78633149788E+02  0.16042238972E+03  0.19434595199E+03  0.00000000000E+00 0.  1.
         22    1    1    2    0    0  0.14863976986E+03  0.29267232917E+03  0.79090570243E+03  0.85631927666E+03  0.00000000000E+00 0. -1.
<mgrwt>
<rscale>  0 0.70857792E+03</rscale>
<asrwt>0</asrwt>
<pdfrwt beam="1">  1        2 0.19290252E+00 0.70857792E+03</pdfrwt>
<pdfrwt beam="2">  1       -2 0.15401061E-01 0.70857792E+03</pdfrwt>
<totfact> 0.59536573E+02</totfact>
</mgrwt>
</event>
<event>
 6    1  0.9364335E-007  0.3626635E+04  0.7818608E-02  0.8084418E-01
         -1   -1    0    0    0  501 -0.00000000000E+00  0.00000000000E+00  0.25589396584E+04  0.25589396584E+04  0.00000000000E+00 0.  1.
          1   -1    0    0  501    0  0.00000000000E+00 -0.00000000000E+00 -0.12849540200E+04  0.12849540200E+04  0.00000000000E+00 0. -1.
         23    2    1    2    0    0 -0.13282662933E+04 -0.37212088716E+03  0.18830629813E+04  0.23360009401E+04  0.90602982431E+02 0.  0.
         11    1    3    3    0    0 -0.83985311893E+03 -0.20857369749E+03  0.11198337853E+04  0.14152328272E+04  0.00000000000E+00 0. -1.
        -11    1    3    3    0    0 -0.48841317437E+03 -0.16354718967E+03  0.76322919600E+03  0.92076811292E+03  0.00000000000E+00 0.  1.
         22    1    1    2    0    0  0.13282662933E+04  0.37212088716E+03 -0.60907734288E+03  0.15078927383E+04  0.00000000000E+00 0. -1.
<mgrwt>
<rscale>  0 0.36266347E+04</rscale>
<asrwt>0</asrwt>
<pdfrwt beam="1">  1        1 0.19768523E+00 0.36266347E+04</pdfrwt>
<pdfrwt beam="2">  1       -1 0.39368302E+00 0.36266347E+04</pdfrwt>
<totfact> 0.59094444E-02</totfact>
</mgrwt>
</event>
<event>
 6    1  0.9364335E-007  0.2388076E+04  0.7818608E-02  0.8443981E-01
         -1   -1    0    0    0  501 -0.00000000000E+00  0.00000000000E+00  0.52112639590E+03  0.52112639590E+03  0.00000000000E+00 0.  1.
          1   -1    0    0  501    0  0.00000000000E+00 -0.00000000000E+00 -0.27358564906E+04  0.27358564906E+04  0.00000000000E+00 0. -1.
         23    2    1    2    0    0 -0.47157937500E+03 -0.67334387948E+03 -0.22868646962E+04  0.24317662558E+04  0.89207046009E+02 0.  0.
         13    1    3    3    0    0 -0.20415278436E+03 -0.35459233652E+03 -0.10572393090E+04  0.11336529632E+04  0.00000000000E+00 0. -1.
        -13    1    3    3    0    0 -0.26742659064E+03 -0.31875154297E+03 -0.12296253871E+04  0.12981132925E+04  0.00000000000E+00 0.  1.
         22    1    1    2    0    0  0.47157937500E+03  0.67334387948E+03  0.72134601451E+02  0.82521663076E+03  0.00000000000E+00 0.  1.
<mgrwt>
<rscale>  0 0.23880762E+04</rscale>
<asrwt>0</asrwt>
<pdfrwt beam="1">  1        1 0.42090099E+00 0.23880762E+04</pdfrwt>
<pdfrwt beam="2">  1       -1 0.80173293E-01 0.23880762E+04</pdfrwt>
<totfact> 0.12892793E+00</totfact>
</mgrwt>
</event>
<event>
 6    1  0.9364335E-007  0.2090995E+04  0.7818608E-02  0.8565221E-01
         -1   -1    0    0    0  501 -0.00000000000E+00  0.00000000000E+00  0.20590875386E+04  0.20590875386E+04  0.00000000000E+00 0.  1.
          1   -1    0    0  501    0  0.00000000000E+00 -0.00000000000E+00 -0.53084918417E+03  0.53084918417E+03  0.00000000000E+00 0. -1.
         23    2    1    2    0    0  0.72484919859E+03  0.29912687422E+03  0.16183846651E+04  0.18006271480E+04  0.90586722551E+02 0.  0.
         13    1    3    3    0    0  0.25811922818E+03  0.64050951288E+02  0.58529880258E+03  0.64288626414E+03  0.00000000000E+00 0. -1.
        -13    1    3    3    0    0  0.46672997041E+03  0.23507592293E+03  0.10330858625E+04  0.11577408838E+04  0.00000000000E+00 0.  1.
         22    1    1    2    0    0 -0.72484919859E+03 -0.29912687422E+03 -0.90146310625E+02  0.78930957482E+03  0.00000000000E+00 0. -1.
<mgrwt>
<rscale>  0 0.20909949E+04</rscale>
<asrwt>0</asrwt>
<pdfrwt beam="1">  1        1 0.81669106E-01 0.20909949E+04</pdfrwt>
<pdfrwt beam="2">  1       -1 0.31678269E+00 0.20909949E+04</pdfrwt>
<totfact> 0.96480441E-01</totfact>
</mgrwt>
</event>
<event>
 6    1  0.9364335E-007  0.1717273E+04  0.7818608E-02  0.8751574E-01
          2   -1    0    0  501    0  0.00000000000E+00  0.00000000000E+00  0.24275457765E+04  0.24275457765E+04  0.00000000000E+00 0. -1.
         -2   -1    0    0    0  501 -0.00000000000E+00 -0.00000000000E+00 -0.30370467889E+03  0.30370467889E+03  0.00000000000E+00 0.  1.
         23    2    1    2    0    0 -0.72236230645E+03  0.42931993559E+03  0.80339255871E+03  0.11660963886E+04  0.90654703425E+02 0.  0.
         13    1    3    3    0    0 -0.48196700757E+03  0.32975445796E+03  0.58172856502E+03  0.82428048763E+03  0.00000000000E+00 0. -1.
        -13    1    3    3    0    0 -0.24039529888E+03  0.99565477629E+02  0.22166399369E+03  0.34181590097E+03  0.00000000000E+00 0.  1.
         22    1    1    2    0    0  0.72236230645E+03 -0.42931993559E+03  0.13204485389E+04  0.15651540668E+04  0.00000000000E+00 0. -1.
<mgrwt>
<rscale>  0 0.17172734E+04</rscale>
<asrwt>0</asrwt>
<pdfrwt beam="1">  1        2 0.37346857E+00 0.17172734E+04</pdfrwt>
<pdfrwt beam="2">  1       -2 0.46723798E-01 0.17172734E+04</pdfrwt>
<totfact> 0.15837241E+01</totfact>
</mgrwt>
</event>
<event>
 6    1  0.9364335E-007  0.3436869E+04  0.7818608E-02  0.8128916E-01
         -2   -1    0    0    0  501 -0.00000000000E+00  0.00000000000E+00  0.19795191185E+04  0.19795191185E+04  0.00000000000E+00 0.  1.
          2   -1    0    0  501    0  0.00000000000E+00 -0.00000000000E+00 -0.14917854165E+04  0.14917854165E+04  0.00000000000E+00 0. -1.
         23    2    1    2    0    0  0.78073919155E+03 -0.77978801076E+03  0.15729843105E+04  0.19235991657E+04  0.91274762283E+02 0.  0.
         13    1    3    3    0    0  0.79534653630E+02 -0.10318827953E+03  0.23035626538E+03  0.26464616218E+03  0.00000000000E+00 0. -1.
        -13    1    3    3    0    0  0.70120453792E+03 -0.67659973124E+03  0.13426280451E+04  0.16589530035E+04  0.00000000000E+00 0.  1.
         22    1    1    2    0    0 -0.78073919155E+03  0.77978801076E+03 -0.10852506085E+04  0.15477053693E+04  0.00000000000E+00 0. -1.
<mgrwt>
<rscale>  0 0.34368694E+04</rscale>
<asrwt>0</asrwt>
<pdfrwt beam="1">  1        2 0.22950545E+00 0.34368694E+04</pdfrwt>
<pdfrwt beam="2">  1       -2 0.30454140E+00 0.34368694E+04</pdfrwt>
<totfact> 0.31586666E-01</totfact>
</mgrwt>
</event>
<event>
 6    1  0.9364335E-007  0.3398957E+04  0.7818608E-02  0.8138162E-01
          2   -1    0    0  501    0  0.00000000000E+00  0.00000000000E+00  0.17594253118E+04  0.17594253118E+04  0.00000000000E+00 0. -1.
         -2   -1    0    0    0  501 -0.00000000000E+00 -0.00000000000E+00 -0.16415742946E+04  0.16415742946E+04  0.00000000000E+00 0.  1.
         23    2    1    2    0    0  0.62200087515E+03  0.13589542050E+04  0.86587096704E+03  0.17297200172E+04  0.92505061935E+02 0.  0.
         13    1    3    3    0    0  0.29661704889E+03  0.54164594849E+03  0.36939408723E+03  0.71959293971E+03  0.00000000000E+00 0.  1.
        -13    1    3    3    0    0  0.32538382626E+03  0.81730825650E+03  0.49647687981E+03  0.10101270775E+04  0.00000000000E+00 0. -1.
         22    1    1    2    0    0 -0.62200087515E+03 -0.13589542050E+04 -0.74801994975E+03  0.16712795892E+04  0.00000000000E+00 0.  1.
<mgrwt>
<rscale>  0 0.33989571E+04</rscale>
<asrwt>0</asrwt>
<pdfrwt beam="1">  1        2 0.27068082E+00 0.33989571E+04</pdfrwt>
<pdfrwt beam="2">  1       -2 0.25254989E+00 0.33989571E+04</pdfrwt>
<totfact> 0.46673370E-01</totfact>
</mgrwt>
</event>
<event>
 6    1  0.9364335E-007  0.1463309E+04  0.7818608E-02  0.8909226E-01
          1   -1    0    0  501    0  0.00000000000E+00  0.00000000000E+00  0.11423492176E+04  0.11423492176E+04  0.00000000000E+00 0. -1.
         -1   -1    0    0    0  501 -0.00000000000E+00 -0.00000000000E+00 -0.46861157443E+03  0.46861157443E+03  0.00000000000E+00 0.  1.
         23    2    1    2    0    0  0.11261850884E+03 -0.34690538034E+03  0.10328390356E+04  0.10991208937E+04  0.91016448727E+02 0.  0.
         13    1    3    3    0    0  0.16506893933E+02 -0.14282671085E+03  0.30625649920E+03  0.33832675062E+03  0.00000000000E+00 0.  1.
        -13    1    3    3    0    0  0.96111614909E+02 -0.20407866949E+03  0.72658253643E+03  0.76079414305E+03  0.00000000000E+00 0. -1.
         22    1    1    2    0    0 -0.11261850884E+03  0.34690538034E+03 -0.35910139248E+03  0.51183989833E+03  0.00000000000E+00 0.  1.
<mgrwt>
<rscale>  0 0.14633087E+04</rscale>
<asrwt>0</asrwt>
<pdfrwt beam="1">  1        1 0.17574603E+00 0.14633087E+04</pdfrwt>
<pdfrwt beam="2">  1       -1 0.72094089E-01 0.14633087E+04</pdfrwt>
<totfact> 0.22200751E+01</totfact>
</mgrwt>
</event>
<event>
 6    1  0.9364335E-007  0.2012854E+04  0.7818608E-02  0.8600635E-01
         -2   -1    0    0    0  501 -0.00000000000E+00  0.00000000000E+00  0.52719074137E+03  0.52719074137E+03  0.00000000000E+00 0.  1.
          2   -1    0    0  501    0  0.00000000000E+00 -0.00000000000E+00 -0.19213069257E+04  0.19213069257E+04  0.00000000000E+00 0. -1.
         23    2    1    2    0    0  0.10929268167E+03  0.72894978441E+03 -0.15282709047E+04  0.16992913086E+04  0.93093043865E+02 0.  0.
         13    1    3    3    0    0  0.10833218068E+03  0.61172801672E+03 -0.12109456427E+04  0.13610056493E+04  0.00000000000E+00 0. -1.
        -13    1    3    3    0    0  0.96050099505E+00  0.11722176769E+03 -0.31732526205E+03  0.33828565934E+03  0.00000000000E+00 0.  1.
         22    1    1    2    0    0 -0.10929268167E+03 -0.72894978441E+03  0.13415472045E+03  0.74920635841E+03  0.00000000000E+00 0.  1.
<mgrwt>
<rscale>  0 0.20128539E+04</rscale>
<asrwt>0</asrwt>
<pdfrwt beam="1">  1        2 0.29558568E+00 0.20128539E+04</pdfrwt>
<pdfrwt beam="2">  1       -2 0.81106269E-01 0.20128539E+04</pdfrwt>
<totfact> 0.91900337E+00</totfact>
</mgrwt>
</event>
<event>
 6    1  0.9364335E-007  0.6645310E+04  0.7818608E-02  0.7615163E-01
         -2   -1    0    0    0  501 -0.00000000000E+00  0.00000000000E+00  0.32067847178E+04  0.32067847178E+04  0.00000000000E+00 0.  1.
          2   -1    0    0  501    0  0.00000000000E+00 -0.00000000000E+00 -0.34427123377E+04  0.34427123377E+04  0.00000000000E+00 0. -1.
         23    2    1    2    0    0 -0.31507129854E+04  0.10079278241E+04  0.18982193963E+03  0.33142049389E+04  0.70789781176E+02 0.  0.
         13    1    3    3    0    0 -0.28487794337E+04  0.89460946387E+03  0.15760851270E+03  0.29901021384E+04  0.00000000000E+00 0. -1.
        -13    1    3    3    0    0 -0.30193355171E+03  0.11331836023E+03  0.32213426930E+02  0.32410280049E+03  0.00000000000E+00 0.  1.
         22    1    1    2    0    0  0.31507129854E+04 -0.10079278241E+04 -0.42574955959E+03  0.33352921165E+04  0.00000000000E+00 0. -1.
<mgrwt>
<rscale>  0 0.66453103E+04</rscale>
<asrwt>0</asrwt>
<pdfrwt beam="1">  1        2 0.52964805E+00 0.66453103E+04</pdfrwt>
<pdfrwt beam="2">  1       -2 0.49335149E+00 0.66453103E+04</pdfrwt>
<totfact> 0.10472796E-03</totfact>
</mgrwt>
</event>
<event>
 6    1  0.9364335E-007  0.2509209E+04  0.7818608E-02  0.8399712E-01
          1   -1    0    0  501    0  0.00000000000E+00  0.00000000000E+00  0.25444839350E+04  0.25444839350E+04  0.00000000000E+00 0. -1.
         -1   -1    0    0    0  501 -0.00000000000E+00 -0.00000000000E+00 -0.61860571269E+03  0.61860571269E+03  0.00000000000E+00 0.  1.
         23    2    1    2    0    0 -0.77731452566E+03 -0.71704106496E+03  0.11701516848E+03  0.10677731303E+04  0.89895202448E+02 0.  0.
         11    1    3    3    0    0 -0.55253115161E+03 -0.45355725477E+03  0.70230629315E+02  0.71828768481E+03  0.00000000000E+00 0.  1.
        -11    1    3    3    0    0 -0.22478337405E+03 -0.26348381019E+03  0.46784539166E+02  0.34948544546E+03  0.00000000000E+00 0. -1.
         22    1    1    2    0    0  0.77731452566E+03  0.71704106496E+03  0.18088630538E+04  0.20953165174E+04  0.00000000000E+00 0. -1.
<mgrwt>
<rscale>  0 0.25092089E+04</rscale>
<asrwt>0</asrwt>
<pdfrwt beam="1">  1        1 0.39145906E+00 0.25092089E+04</pdfrwt>
<pdfrwt beam="2">  1       -1 0.95170111E-01 0.25092089E+04</pdfrwt>
<totfact> 0.11939491E+00</totfact>
</mgrwt>
</event>
<event>
 6    1  0.9364335E-007  0.2774605E+04  0.7818608E-02  0.8311196E-01
          2   -1    0    0  501    0  0.00000000000E+00  0.00000000000E+00  0.50929622483E+04  0.50929622483E+04  0.00000000000E+00 0. -1.
         -2   -1    0    0    0  501 -0.00000000000E+00 -0.00000000000E+00 -0.37789568017E+03  0.37789568017E+03  0.00000000000E+00 0.  1.
         23    2    1    2    0    0 -0.12691234373E+04  0.20662789407E+03  0.13419354818E+04  0.18609572773E+04  0.94877631289E+02 0.  0.
         13    1    3    3    0    0 -0.10873535688E+04  0.16744617713E+03  0.10992473155E+04  0.15552236709E+04  0.00000000000E+00 0. -1.
        -13    1    3    3    0    0 -0.18176986849E+03  0.39181716941E+02  0.24268816628E+03  0.30573360641E+03  0.00000000000E+00 0.  1.
         22    1    1    2    0    0  0.12691234373E+04 -0.20662789407E+03  0.33731310863E+04  0.36099006512E+04  0.00000000000E+00 0. -1.
<mgrwt>
<rscale>  0 0.27746051E+04</rscale>
<asrwt>0</asrwt>
<pdfrwt beam="1">  1        2 0.78353261E+00 0.27746051E+04</pdfrwt>
<pdfrwt beam="2">  1       -2 0.58137800E-01 0.27746051E+04</pdfrwt>
<totfact> 0.62955315E-02</totfact>
</mgrwt>
</event>
<event>
 6    1  0.9364335E-007  0.2288548E+04  0.7818608E-02  0.8482450E-01
          2   -1    0    0  501    0  0.00000000000E+00  0.00000000000E+00  0.72579576751E+03  0.72579576751E+03  0.00000000000E+00 0. -1.
         -2   -1    0    0    0  501 -0.00000000000E+00 -0.00000000000E+00 -0.18040383607E+04  0.18040383607E+04  0.00000000000E+00 0.  1.
         23    2    1    2    0    0 -0.96845760039E+03 -0.27367969727E+03 -0.11377288366E+04  0.15216926136E+04  0.91163612093E+02 0.  0.
         11    1    3    3    0    0 -0.35994724833E+03 -0.71076507330E+02 -0.36580785838E+03  0.51810161235E+03  0.00000000000E+00 0.  1.
        -11    1    3    3    0    0 -0.60851035206E+03 -0.20260318994E+03 -0.77192097822E+03  0.10035910012E+04  0.00000000000E+00 0. -1.
         22    1    1    2    0    0  0.96845760039E+03  0.27367969727E+03  0.59486243369E+02  0.10081415147E+04  0.00000000000E+00 0. -1.
<mgrwt>
<rscale>  0 0.22885484E+04</rscale>
<asrwt>0</asrwt>
<pdfrwt beam="1">  1        2 0.11166089E+00 0.22885484E+04</pdfrwt>
<pdfrwt beam="2">  1       -2 0.27754436E+00 0.22885484E+04</pdfrwt>
<totfact> 0.15477438E+00</totfact>
</mgrwt>
</event>
<event>
 6    1  0.9364335E-007  0.3767769E+04  0.7818608E-02  0.8053107E-01
         -2   -1    0    0    0  501 -0.00000000000E+00  0.00000000000E+00  0.11795744989E+04  0.11795744989E+04  0.00000000000E+00 0.  1.
          2   -1    0    0  501    0  0.00000000000E+00 -0.00000000000E+00 -0.30087304350E+04  0.30087304350E+04  0.00000000000E+00 0. -1.
         23    2    1    2    0    0  0.14572996090E+04  0.11868601633E+04 -0.79067778511E+03  0.20410285037E+04  0.90921921290E+02 0.  0.
         11    1    3    3    0    0  0.60864245855E+03  0.53356520363E+03 -0.30340362776E+03  0.86440223867E+03  0.00000000000E+00 0. -1.
        -11    1    3    3    0    0  0.84865715043E+03  0.65329495964E+03 -0.48727415735E+03  0.11766262651E+04  0.00000000000E+00 0.  1.
         22    1    1    2    0    0 -0.14572996090E+04 -0.11868601633E+04 -0.10384781510E+04  0.21472764302E+04  0.00000000000E+00 0. -1.
<mgrwt>
<rscale>  0 0.37677695E+04</rscale>
<asrwt>0</asrwt>
<pdfrwt beam="1">  1        2 0.46288160E+00 0.37677695E+04</pdfrwt>
<pdfrwt beam="2">  1       -2 0.18147300E+00 0.37677695E+04</pdfrwt>
<totfact> 0.24467172E-01</totfact>
</mgrwt>
</event>
<event>
 6    1  0.9364335E-007  0.1433858E+04  0.7818608E-02  0.8929668E-01
         -1   -1    0    0    0  501 -0.00000000000E+00  0.00000000000E+00  0.34583131745E+03  0.34583131745E+03  0.00000000000E+00 0.  1.
          1   -1    0    0  501    0  0.00000000000E+00 -0.00000000000E+00 -0.14862371613E+04  0.14862371613E+04  0.00000000000E+00 0. -1.
         23    2    1    2    0    0 -0.33586628385E+03 -0.45565348333E+03 -0.15163605457E+02  0.57246681450E+03  0.84036071318E+02 0.  0.
         13    1    3    3    0    0 -0.93413325790E+02 -0.79403887112E+02 -0.23279327330E+02  0.12479164157E+03  0.00000000000E+00 0.  1.
        -13    1    3    3    0    0 -0.24245295806E+03 -0.37624959622E+03  0.81157218726E+01  0.44767517294E+03  0.00000000000E+00 0. -1.
         22    1    1    2    0    0  0.33586628385E+03  0.45565348333E+03 -0.11252422384E+04  0.12596016642E+04  0.00000000000E+00 0. -1.
<mgrwt>
<rscale>  0 0.14338582E+04</rscale>
<asrwt>0</asrwt>
<pdfrwt beam="1">  1        1 0.22865187E+00 0.14338582E+04</pdfrwt>
<pdfrwt beam="2">  1       -1 0.53204818E-01 0.14338582E+04</pdfrwt>
<totfact> 0.23168313E+01</totfact>
</mgrwt>
</event>
<event>
 6    1  0.9364335E-007  0.2811787E+04  0.7818608E-02  0.8299618E-01
          2   -1    0    0  501    0  0.00000000000E+00  0.00000000000E+00  0.20368766508E+04  0.20368766508E+04  0.00000000000E+00 0. -1.
         -2   -1    0    0    0  501 -0.00000000000E+00 -0.00000000000E+00 -0.97037606158E+03  0.97037606158E+03  0.00000000000E+00 0.  1.
         23    2    1    2    0    0  0.42298801335E+03  0.70658790650E+03 -0.68314395489E+03  0.10734891902E+04  0.86649000545E+02 0.  0.
         13    1    3    3    0    0  0.13088949379E+03  0.16113879842E+03 -0.20242132695E+03  0.28995200559E+03  0.00000000000E+00 0.  1.
        -13    1    3    3    0    0  0.29209851956E+03  0.54544910807E+03 -0.48072262794E+03  0.78353718459E+03  0.00000000000E+00 0. -1.
         22    1    1    2    0    0 -0.42298801335E+03 -0.70658790650E+03  0.17496445441E+04  0.19337635222E+04  0.00000000000E+00 0. -1.
<mgrwt>
<rscale>  0 0.28117869E+04</rscale>
<asrwt>0</asrwt>
<pdfrwt beam="1">  1        2 0.31336564E+00 0.28117869E+04</pdfrwt>
<pdfrwt beam="2">  1       -2 0.14928863E+00 0.28117869E+04</pdfrwt>
<totfact> 0.16809663E+00</totfact>
</mgrwt>
</event>
<event>
 6    1  0.9364335E-007  0.2440907E+04  0.7818608E-02  0.8424345E-01
          2   -1    0    0  501    0  0.00000000000E+00  0.00000000000E+00  0.33857695071E+04  0.33857695071E+04  0.00000000000E+00 0. -1.
         -2   -1    0    0    0  501 -0.00000000000E+00 -0.00000000000E+00 -0.43993155413E+03  0.43993155413E+03  0.00000000000E+00 0.  1.
         23    2    1    2    0    0 -0.72509590412E+03  0.38448364623E+03  0.28870955280E+04  0.30028751885E+04  0.91362274647E+02 0.  0.
         11    1    3    3    0    0 -0.35333616895E+03  0.18078798188E+03  0.15613015668E+04  0.16109603735E+04  0.00000000000E+00 0. -1.
        -11    1    3    3    0    0 -0.37175973517E+03  0.20369566436E+03  0.13257939612E+04  0.13919148149E+04  0.00000000000E+00 0.  1.
         22    1    1    2    0    0  0.72509590412E+03 -0.38448364623E+03  0.58742424949E+02  0.82282587276E+03  0.00000000000E+00 0.  1.
<mgrwt>
<rscale>  0 0.24409071E+04</rscale>
<asrwt>0</asrwt>
<pdfrwt beam="1">  1        2 0.52088760E+00 0.24409071E+04</pdfrwt>
<pdfrwt beam="2">  1       -2 0.67681780E-01 0.24409071E+04</pdfrwt>
<totfact> 0.17502017E+00</totfact>
</mgrwt>
</event>
<event>
 6    1  0.9364335E-007  0.2764162E+04  0.7818608E-02  0.8314482E-01
          1   -1    0    0  501    0  0.00000000000E+00  0.00000000000E+00  0.28240836915E+04  0.28240836915E+04  0.00000000000E+00 0. -1.
         -1   -1    0    0    0  501 -0.00000000000E+00 -0.00000000000E+00 -0.67637774820E+03  0.67637774820E+03  0.00000000000E+00 0.  1.
         23    2    1    2    0    0 -0.11738040874E+04  0.61312226397E+03  0.58015965884E+03  0.14484048372E+04  0.86927535946E+02 0.  0.
         13    1    3    3    0    0 -0.92298409739E+03  0.44131698036E+03  0.45268215454E+03  0.11187410130E+04  0.00000000000E+00 0. -1.
        -13    1    3    3    0    0 -0.25081998997E+03  0.17180528361E+03  0.12747750429E+03  0.32966382414E+03  0.00000000000E+00 0.  1.
         22    1    1    2    0    0  0.11738040874E+04 -0.61312226397E+03  0.15675462845E+04  0.20520566026E+04  0.00000000000E+00 0. -1.
<mgrwt>
<rscale>  0 0.27641616E+04</rscale>
<asrwt>0</asrwt>
<pdfrwt beam="1">  1        1 0.43447441E+00 0.27641616E+04</pdfrwt>
<pdfrwt beam="2">  1       -1 0.10405812E+00 0.27641616E+04</pdfrwt>
<totfact> 0.60442497E-01</totfact>
</mgrwt>
</event>
<event>
 6    1  0.9364335E-007  0.3021881E+04  0.7818608E-02  0.8237510E-01
          2   -1    0    0  501    0  0.00000000000E+00  0.00000000000E+00  0.27386704215E+04  0.27386704215E+04  0.00000000000E+00 0. -1.
         -2   -1    0    0    0  501 -0.00000000000E+00 -0.00000000000E+00 -0.83359487499E+03  0.83359487499E+03  0.00000000000E+00 0.  1.
         23    2    1    2    0    0 -0.13914526842E+03  0.14945082182E+04  0.11435110358E+04  0.18891441707E+04  0.91279729729E+02 0.  0.
         11    1    3    3    0    0 -0.28823072672E+02  0.85395306284E+02  0.61517243702E+02  0.10912148792E+03  0.00000000000E+00 0. -1.
        -11    1    3    3    0    0 -0.11032219575E+03  0.14091129119E+04  0.10819937921E+04  0.17800226828E+04  0.00000000000E+00 0.  1.
         22    1    1    2    0    0  0.13914526842E+03 -0.14945082182E+04  0.76156451073E+03  0.16831211257E+04  0.00000000000E+00 0. -1.
<mgrwt>
<rscale>  0 0.30218813E+04</rscale>
<asrwt>0</asrwt>
<pdfrwt beam="1">  1        2 0.42133391E+00 0.30218813E+04</pdfrwt>
<pdfrwt beam="2">  1       -2 0.12824537E+00 0.30218813E+04</pdfrwt>
<totfact> 0.96666988E-01</totfact>
</mgrwt>
</event>
<event>
 6    1  0.9364335E-007  0.2952590E+04  0.7818608E-02  0.8257400E-01
          2   -1    0    0  501    0  0.00000000000E+00  0.00000000000E+00  0.35064032518E+04  0.35064032518E+04  0.00000000000E+00 0. -1.
         -2   -1    0    0    0  501 -0.00000000000E+00 -0.00000000000E+00 -0.62156195679E+03  0.62156195679E+03  0.00000000000E+00 0.  1.
         23    2    1    2    0    0 -0.95832669950E+03  0.29025918545E+03  0.29579474476E+04  0.31239806632E+04  0.84626378227E+02 0.  0.
         13    1    3    3    0    0 -0.73503333995E+03  0.18544944367E+03  0.22550884356E+04  0.23790942309E+04  0.00000000000E+00 0. -1.
        -13    1    3    3    0    0 -0.22329335955E+03  0.10480974179E+03  0.70285901195E+03  0.74488643233E+03  0.00000000000E+00 0.  1.
         22    1    1    2    0    0  0.95832669950E+03 -0.29025918545E+03 -0.73106152600E+02  0.10039845453E+04  0.00000000000E+00 0.  1.
<mgrwt>
<rscale>  0 0.29525900E+04</rscale>
<asrwt>0</asrwt>
<pdfrwt beam="1">  1        2 0.53944664E+00 0.29525900E+04</pdfrwt>
<pdfrwt beam="2">  1       -2 0.95624918E-01 0.29525900E+04</pdfrwt>
<totfact> 0.63420124E-01</totfact>
</mgrwt>
</event>
<event>
 6    1  0.9364335E-007  0.2781580E+04  0.7818608E-02  0.8309010E-01
          1   -1    0    0  501    0  0.00000000000E+00  0.00000000000E+00  0.16340108058E+04  0.16340108058E+04  0.00000000000E+00 0. -1.
         -1   -1    0    0    0  501 -0.00000000000E+00 -0.00000000000E+00 -0.11837726991E+04  0.11837726991E+04  0.00000000000E+00 0.  1.
         23    2    1    2    0    0 -0.96490685810E+03 -0.69130803683E+03  0.95652105812E+03  0.15273283630E+04  0.94060337465E+02 0.  0.
         11    1    3    3    0    0 -0.24855573379E+03 -0.19901479912E+03  0.30642415008E+03  0.44190791215E+03  0.00000000000E+00 0. -1.
        -11    1    3    3    0    0 -0.71635112430E+03 -0.49229323771E+03  0.65009690803E+03  0.10854204508E+04  0.00000000000E+00 0.  1.
         22    1    1    2    0    0  0.96490685810E+03  0.69130803683E+03 -0.50628295139E+03  0.12904551420E+04  0.00000000000E+00 0.  1.
<mgrwt>
<rscale>  0 0.27815804E+04</rscale>
<asrwt>0</asrwt>
<pdfrwt beam="1">  1        1 0.25138628E+00 0.27815804E+04</pdfrwt>
<pdfrwt beam="2">  1       -1 0.18211888E+00 0.27815804E+04</pdfrwt>
<totfact> 0.92146767E-01</totfact>
</mgrwt>
</event>
<event>
 6    1  0.9364335E-007  0.2056377E+04  0.7818608E-02  0.8580707E-01
          2   -1    0    0  501    0  0.00000000000E+00  0.00000000000E+00  0.22586375194E+04  0.22586375194E+04  0.00000000000E+00 0. -1.
         -2   -1    0    0    0  501 -0.00000000000E+00 -0.00000000000E+00 -0.46805701150E+03  0.46805701150E+03  0.00000000000E+00 0.  1.
         23    2    1    2    0    0 -0.41627336505E+03  0.50650639340E+03  0.19438108514E+04  0.20534102082E+04  0.90887932394E+02 0.  0.
         13    1    3    3    0    0 -0.14994005496E+03  0.24636815400E+03  0.90973545980E+03  0.95435731998E+03  0.00000000000E+00 0.  1.
        -13    1    3    3    0    0 -0.26633331009E+03  0.26013823940E+03  0.10340753916E+04  0.10990528882E+04  0.00000000000E+00 0. -1.
         22    1    1    2    0    0  0.41627336505E+03 -0.50650639340E+03 -0.15323034347E+03  0.67328432268E+03  0.00000000000E+00 0.  1.
<mgrwt>
<rscale>  0 0.20563765E+04</rscale>
<asrwt>0</asrwt>
<pdfrwt beam="1">  1        2 0.34748269E+00 0.20563765E+04</pdfrwt>
<pdfrwt beam="2">  1       -2 0.72008773E-01 0.20563765E+04</pdfrwt>
<totfact> 0.77315578E+00</totfact>
</mgrwt>
</event>
<event>
 6    1  0.9364335E-007  0.3944169E+04  0.7818608E-02  0.8015905E-01
         -2   -1    0    0    0  501 -0.00000000000E+00  0.00000000000E+00  0.12336429945E+04  0.12336429945E+04  0.00000000000E+00 0.  1.
          2   -1    0    0  501    0  0.00000000000E+00 -0.00000000000E+00 -0.31525472402E+04  0.31525472402E+04  0.00000000000E+00 0. -1.
         23    2    1    2    0    0 -0.12958306805E+04 -0.63826709624E+03 -0.24511950389E+04  0.28467437345E+04  0.95030164985E+02 0.  0.
         13    1    3    3    0    0 -0.78051041626E+03 -0.36236384534E+03 -0.13758075121E+04  0.16227601106E+04  0.00000000000E+00 0.  1.
        -13    1    3    3    0    0 -0.51532026427E+03 -0.27590325090E+03 -0.10753875268E+04  0.12239836239E+04  0.00000000000E+00 0. -1.
         22    1    1    2    0    0  0.12958306805E+04  0.63826709624E+03  0.53229079315E+03  0.15394465003E+04  0.00000000000E+00 0.  1.
<mgrwt>
<rscale>  0 0.39441693E+04</rscale>
<asrwt>0</asrwt>
<pdfrwt beam="1">  1        2 0.48500726E+00 0.39441693E+04</pdfrwt>
<pdfrwt beam="2">  1       -2 0.18979123E+00 0.39441693E+04</pdfrwt>
<totfact> 0.17139719E-01</totfact>
</mgrwt>
</event>
<event>
 6    1  0.9364335E-007  0.4067578E+04  0.7818608E-02  0.7991051E-01
          2   -1    0    0  501    0  0.00000000000E+00  0.00000000000E+00  0.30496246664E+04  0.30496246664E+04  0.00000000000E+00 0. -1.
         -2   -1    0    0    0  501 -0.00000000000E+00 -0.00000000000E+00 -0.13563299872E+04  0.13563299872E+04  0.00000000000E+00 0.  1.
         23    2    1    2    0    0 -0.14467139897E+04 -0.97247946032E+03 -0.28551655150E+03  0.17688366139E+04  0.92550509032E+02 0.  0.
         11    1    3    3    0    0 -0.86476254222E+03 -0.58353897338E+03 -0.12485590399E+03  0.10506764415E+04  0.00000000000E+00 0.  1.
        -11    1    3    3    0    0 -0.58195144751E+03 -0.38894048694E+03 -0.16066064752E+03  0.71816017245E+03  0.00000000000E+00 0. -1.
         22    1    1    2    0    0  0.14467139897E+04  0.97247946032E+03  0.19788112306E+04  0.26371180397E+04  0.00000000000E+00 0. -1.
<mgrwt>
<rscale>  0 0.40675778E+04</rscale>
<asrwt>0</asrwt>
<pdfrwt beam="1">  1        2 0.46917302E+00 0.40675778E+04</pdfrwt>
<pdfrwt beam="2">  1       -2 0.20866615E+00 0.40675778E+04</pdfrwt>
<totfact> 0.14836920E-01</totfact>
</mgrwt>
</event>
<event>
 6    1  0.9364335E-007  0.2542908E+04  0.7818608E-02  0.8387857E-01
          1   -1    0    0  501    0  0.00000000000E+00  0.00000000000E+00  0.16672201262E+04  0.16672201262E+04  0.00000000000E+00 0. -1.
         -1   -1    0    0    0  501 -0.00000000000E+00 -0.00000000000E+00 -0.96963507337E+03  0.96963507337E+03  0.00000000000E+00 0.  1.
         23    2    1    2    0    0 -0.73210528023E+03 -0.98986226002E+03  0.67331046182E+03  0.14054354129E+04  0.78078721276E+02 0.  0.
         11    1    3    3    0    0 -0.27700303638E+03 -0.32276298904E+03  0.25603439192E+03  0.49644761970E+03  0.00000000000E+00 0. -1.
        -11    1    3    3    0    0 -0.45510224385E+03 -0.66709927098E+03  0.41727606989E+03  0.90898779321E+03  0.00000000000E+00 0.  1.
         22    1    1    2    0    0  0.73210528023E+03  0.98986226002E+03  0.24274590977E+02  0.12314197866E+04  0.00000000000E+00 0. -1.
<mgrwt>
<rscale>  0 0.25429079E+04</rscale>
<asrwt>0</asrwt>
<pdfrwt beam="1">  1        1 0.25649540E+00 0.25429079E+04</pdfrwt>
<pdfrwt beam="2">  1       -1 0.14917463E+00 0.25429079E+04</pdfrwt>
<totfact> 0.15729560E+00</totfact>
</mgrwt>
</event>
<event>
 6    1  0.9364335E-007  0.3235770E+04  0.7818608E-02  0.8179434E-01
          2   -1    0    0  501    0  0.00000000000E+00  0.00000000000E+00  0.14447330100E+04  0.14447330100E+04  0.00000000000E+00 0. -1.
         -2   -1    0    0    0  501 -0.00000000000E+00 -0.00000000000E+00 -0.18117888197E+04  0.18117888197E+04  0.00000000000E+00 0.  1.
         23    2    1    2    0    0  0.86448583138E+03  0.66990275125E+03 -0.13817958063E+04  0.17646093962E+04  0.91549014485E+02 0.  0.
         11    1    3    3    0    0  0.57745311127E+03  0.49540706926E+03 -0.92839885968E+03  0.12003352459E+04  0.00000000000E+00 0. -1.
        -11    1    3    3    0    0  0.28703272011E+03  0.17449568199E+03 -0.45339694661E+03  0.56427415025E+03  0.00000000000E+00 0.  1.
         22    1    1    2    0    0 -0.86448583138E+03 -0.66990275125E+03  0.10147399966E+04  0.14919124336E+04  0.00000000000E+00 0. -1.
<mgrwt>
<rscale>  0 0.32357695E+04</rscale>
<asrwt>0</asrwt>
<pdfrwt beam="1">  1        2 0.22226662E+00 0.32357695E+04</pdfrwt>
<pdfrwt beam="2">  1       -2 0.27873674E+00 0.32357695E+04</pdfrwt>
<totfact> 0.49102474E-01</totfact>
</mgrwt>
</event>
<event>
 6    1  0.9364335E-007  0.3543243E+04  0.7818608E-02  0.8103618E-01
          2   -1    0    0  501    0  0.00000000000E+00  0.00000000000E+00  0.28148214891E+04  0.28148214891E+04  0.00000000000E+00 0. -1.
         -2   -1    0    0    0  501 -0.00000000000E+00 -0.00000000000E+00 -0.11150412479E+04  0.11150412479E+04  0.00000000000E+00 0.  1.
         23    2    1    2    0    0  0.85837351836E+03  0.15339619478E+04  0.10852260458E+04  0.20677345961E+04  0.89254887891E+02 0.  0.
         11    1    3    3    0    0  0.76270779648E+03  0.12998493825E+04  0.93533222104E+03  0.17737468713E+04  0.00000000000E+00 0.  1.
        -11    1    3    3    0    0  0.95665721889E+02  0.23411256533E+03  0.14989382480E+03  0.29398772475E+03  0.00000000000E+00 0. -1.
         22    1    1    2    0    0 -0.85837351836E+03 -0.15339619478E+04  0.61455419530E+03  0.18621281409E+04  0.00000000000E+00 0. -1.
<mgrwt>
<rscale>  0 0.35432426E+04</rscale>
<asrwt>0</asrwt>
<pdfrwt beam="1">  1        2 0.43304946E+00 0.35432426E+04</pdfrwt>
<pdfrwt beam="2">  1       -2 0.17154481E+00 0.35432426E+04</pdfrwt>
<totfact> 0.38526502E-01</totfact>
</mgrwt>
</event>
<event>
 6    1  0.9364335E-007  0.1816100E+04  0.7818608E-02  0.8697784E-01
          1   -1    0    0  501    0  0.00000000000E+00  0.00000000000E+00  0.13480427192E+04  0.13480427192E+04  0.00000000000E+00 0. -1.
         -1   -1    0    0    0  501 -0.00000000000E+00 -0.00000000000E+00 -0.61166842307E+03  0.61166842307E+03  0.00000000000E+00 0.  1.
         23    2    1    2    0    0 -0.36651978647E+03  0.69600884612E+03  0.85371376486E+03  0.11643913206E+04  0.90636016606E+02 0.  0.
         11    1    3    3    0    0 -0.19843705879E+03  0.43687486055E+03  0.46825553748E+03  0.67044772985E+03  0.00000000000E+00 0.  1.
        -11    1    3    3    0    0 -0.16808272768E+03  0.25913398557E+03  0.38545822738E+03  0.49394359078E+03  0.00000000000E+00 0. -1.
         22    1    1    2    0    0  0.36651978647E+03 -0.69600884612E+03 -0.11733946874E+03  0.79531982163E+03  0.00000000000E+00 0.  1.
<mgrwt>
<rscale>  0 0.18161004E+04</rscale>
<asrwt>0</asrwt>
<pdfrwt beam="1">  1        1 0.20739119E+00 0.18161004E+04</pdfrwt>
<pdfrwt beam="2">  1       -1 0.94102835E-01 0.18161004E+04</pdfrwt>
<totfact> 0.86172066E+00</totfact>
</mgrwt>
</event>
<event>
 6    1  0.9364335E-007  0.2339860E+04  0.7818608E-02  0.8462369E-01
          1   -1    0    0  501    0  0.00000000000E+00  0.00000000000E+00  0.18015898144E+04  0.18015898144E+04  0.00000000000E+00 0. -1.
         -1   -1    0    0    0  501 -0.00000000000E+00 -0.00000000000E+00 -0.75973810265E+03  0.75973810265E+03  0.00000000000E+00 0.  1.
         23    2    1    2    0    0  0.39372970328E+03  0.10006632806E+04  0.22059967485E+02  0.10793274845E+04  0.90061625440E+02 0.  0.
         11    1    3    3    0    0  0.27013549808E+03  0.73597982068E+03 -0.19717024767E+02  0.78423736511E+03  0.00000000000E+00 0.  1.
        -11    1    3    3    0    0  0.12359420520E+03  0.26468345988E+03  0.41776992252E+02  0.29509011941E+03  0.00000000000E+00 0. -1.
         22    1    1    2    0    0 -0.39372970328E+03 -0.10006632806E+04  0.10197917442E+04  0.14820004325E+04  0.00000000000E+00 0. -1.
<mgrwt>
<rscale>  0 0.23398602E+04</rscale>
<asrwt>0</asrwt>
<pdfrwt beam="1">  1        1 0.27716766E+00 0.23398602E+04</pdfrwt>
<pdfrwt beam="2">  1       -1 0.11688279E+00 0.23398602E+04</pdfrwt>
<totfact> 0.24160298E+00</totfact>
</mgrwt>
</event>
<event>
 6    1  0.9364335E-007  0.1726613E+04  0.7818608E-02  0.8746330E-01
          1   -1    0    0  501    0  0.00000000000E+00  0.00000000000E+00  0.47689873604E+03  0.47689873604E+03  0.00000000000E+00 0. -1.
         -1   -1    0    0    0  501 -0.00000000000E+00 -0.00000000000E+00 -0.15628024027E+04  0.15628024027E+04  0.00000000000E+00 0.  1.
         23    2    1    2    0    0 -0.47169453150E+03  0.48305731004E+03  0.86003903348E+02  0.68721918010E+03  0.95044380565E+02 0.  0.
         11    1    3    3    0    0 -0.11564879865E+03  0.17233750261E+03  0.48730543299E+02  0.21318894268E+03  0.00000000000E+00 0.  1.
        -11    1    3    3    0    0 -0.35604573285E+03  0.31071980744E+03  0.37273360049E+02  0.47403023742E+03  0.00000000000E+00 0. -1.
         22    1    1    2    0    0  0.47169453150E+03 -0.48305731004E+03 -0.11719075700E+04  0.13524819587E+04  0.00000000000E+00 0.  1.
<mgrwt>
<rscale>  0 0.17266134E+04</rscale>
<asrwt>0</asrwt>
<pdfrwt beam="1">  1        1 0.73369036E-01 0.17266134E+04</pdfrwt>
<pdfrwt beam="2">  1       -1 0.24043114E+00 0.17266134E+04</pdfrwt>
<totfact> 0.36180678E+00</totfact>
</mgrwt>
</event>
<event>
 6    1  0.9364335E-007  0.5735340E+04  0.7818608E-02  0.7724111E-01
         -2   -1    0    0    0  501 -0.00000000000E+00  0.00000000000E+00  0.31850315707E+04  0.31850315707E+04  0.00000000000E+00 0.  1.
          2   -1    0    0  501    0  0.00000000000E+00 -0.00000000000E+00 -0.25819305938E+04  0.25819305938E+04  0.00000000000E+00 0. -1.
         23    2    1    2    0    0  0.13149286727E+04  0.17542934792E+03  0.28572207953E+04  0.31514566634E+04  0.90308127494E+02 0.  0.
         13    1    3    3    0    0  0.27477328303E+03  0.59491647877E+02  0.67645809777E+03  0.73255386920E+03  0.00000000000E+00 0.  1.
        -13    1    3    3    0    0  0.10401553896E+04  0.11593770005E+03  0.21807626975E+04  0.24189027942E+04  0.00000000000E+00 0. -1.
         22    1    1    2    0    0 -0.13149286727E+04 -0.17542934792E+03 -0.22541198184E+04  0.26155055011E+04  0.00000000000E+00 0. -1.
<mgrwt>
<rscale>  0 0.57353397E+04</rscale>
<asrwt>0</asrwt>
<pdfrwt beam="1">  1        2 0.39722009E+00 0.57353397E+04</pdfrwt>
<pdfrwt beam="2">  1       -2 0.49000486E+00 0.57353397E+04</pdfrwt>
<totfact> 0.41199042E-03</totfact>
</mgrwt>
</event>
<event>
 6    1  0.9364335E-007  0.2915242E+04  0.7818608E-02  0.8268357E-01
         -2   -1    0    0    0  501 -0.00000000000E+00  0.00000000000E+00  0.64927139273E+03  0.64927139273E+03  0.00000000000E+00 0.  1.
          2   -1    0    0  501    0  0.00000000000E+00 -0.00000000000E+00 -0.32723739376E+04  0.32723739376E+04  0.00000000000E+00 0. -1.
         23    2    1    2    0    0  0.13121300913E+04  0.56042154807E+03 -0.17042257391E+04  0.22245618697E+04  0.92371285764E+02 0.  0.
         11    1    3    3    0    0  0.19640923667E+03  0.12069315722E+03 -0.27159831817E+03  0.35624299695E+03  0.00000000000E+00 0.  1.
        -11    1    3    3    0    0  0.11157208546E+04  0.43972839086E+03 -0.14326274209E+04  0.18683188728E+04  0.00000000000E+00 0. -1.
         22    1    1    2    0    0 -0.13121300913E+04 -0.56042154807E+03 -0.91887680585E+03  0.16970834607E+04  0.00000000000E+00 0.  1.
<mgrwt>
<rscale>  0 0.29152419E+04</rscale>
<asrwt>0</asrwt>
<pdfrwt beam="1">  1        2 0.50344214E+00 0.29152419E+04</pdfrwt>
<pdfrwt beam="2">  1       -2 0.99887907E-01 0.29152419E+04</pdfrwt>
<totfact> 0.82909585E-01</totfact>
</mgrwt>
</event>
<event>
 6    1  0.9364335E-007  0.2255811E+04  0.7818608E-02  0.8495551E-01
         -2   -1    0    0    0  501 -0.00000000000E+00  0.00000000000E+00  0.42199955685E+03  0.42199955685E+03  0.00000000000E+00 0.  1.
          2   -1    0    0  501    0  0.00000000000E+00 -0.00000000000E+00 -0.30146257038E+04  0.30146257038E+04  0.00000000000E+00 0. -1.
         23    2    1    2    0    0  0.80844635930E+03 -0.78379080195E+03 -0.13119604421E+04  0.17313340291E+04  0.91453711734E+02 0.  0.
         11    1    3    3    0    0  0.41086932714E+03 -0.45459020157E+03 -0.67970667079E+03  0.91513223835E+03  0.00000000000E+00 0.  1.
        -11    1    3    3    0    0  0.39757703216E+03 -0.32920060038E+03 -0.63225377135E+03  0.81620179072E+03  0.00000000000E+00 0. -1.
         22    1    1    2    0    0 -0.80844635930E+03  0.78379080195E+03 -0.12806657048E+04  0.17052912316E+04  0.00000000000E+00 0. -1.
<mgrwt>
<rscale>  0 0.22558109E+04</rscale>
<asrwt>0</asrwt>
<pdfrwt beam="1">  1        2 0.46378855E+00 0.22558109E+04</pdfrwt>
<pdfrwt beam="2">  1       -2 0.64923011E-01 0.22558109E+04</pdfrwt>
<totfact> 0.33983739E+00</totfact>
</mgrwt>
</event>
<event>
 6    1  0.9364335E-007  0.1780860E+04  0.7818608E-02  0.8716545E-01
         -2   -1    0    0    0  501 -0.00000000000E+00  0.00000000000E+00  0.11210775168E+04  0.11210775168E+04  0.00000000000E+00 0.  1.
          2   -1    0    0  501    0  0.00000000000E+00 -0.00000000000E+00 -0.70723539400E+03  0.70723539400E+03  0.00000000000E+00 0. -1.
         23    2    1    2    0    0 -0.14207940987E+03  0.51115615074E+03  0.93860526999E+03  0.10820934191E+04  0.92082276708E+02 0.  0.
         11    1    3    3    0    0  0.26335775848E+01  0.13659762440E+03  0.25430599752E+03  0.28868215583E+03  0.00000000000E+00 0. -1.
        -11    1    3    3    0    0 -0.14471298746E+03  0.37455852634E+03  0.68429927248E+03  0.79341126329E+03  0.00000000000E+00 0.  1.
         22    1    1    2    0    0  0.14207940987E+03 -0.51115615074E+03 -0.52476314718E+03  0.74621949170E+03  0.00000000000E+00 0. -1.
<mgrwt>
<rscale>  0 0.17808601E+04</rscale>
<asrwt>0</asrwt>
<pdfrwt beam="1">  1        2 0.10880544E+00 0.17808601E+04</pdfrwt>
<pdfrwt beam="2">  1       -2 0.17247347E+00 0.17808601E+04</pdfrwt>
<totfact> 0.78217203E+00</totfact>
</mgrwt>
</event>
<event>
 6    1  0.9364335E-007  0.7716438E+03  0.7818608E-02  0.9601993E-01
         -1   -1    0    0    0  501 -0.00000000000E+00  0.00000000000E+00  0.19092611422E+03  0.19092611422E+03  0.00000000000E+00 0.  1.
          1   -1    0    0  501    0  0.00000000000E+00 -0.00000000000E+00 -0.77966562490E+03  0.77966562490E+03  0.00000000000E+00 0. -1.
         23    2    1    2    0    0 -0.25497047201E+03  0.17557934577E+03 -0.20375665600E+02  0.32338581466E+03  0.91242364698E+02 0.  0.
         11    1    3    3    0    0 -0.17160594028E+03  0.12261311783E+03  0.29120616359E+02  0.21290980649E+03  0.00000000000E+00 0.  1.
        -11    1    3    3    0    0 -0.83364531734E+02  0.52966227945E+02 -0.49496281959E+02  0.11047600817E+03  0.00000000000E+00 0. -1.
         22    1    1    2    0    0  0.25497047201E+03 -0.17557934577E+03 -0.56836384509E+03  0.64720592446E+03  0.00000000000E+00 0. -1.
<mgrwt>
<rscale>  0 0.77164377E+03</rscale>
<asrwt>0</asrwt>
<pdfrwt beam="1">  1        1 0.11994856E+00 0.77164377E+03</pdfrwt>
<pdfrwt beam="2">  1       -1 0.29373249E-01 0.77164377E+03</pdfrwt>
<totfact> 0.24648386E+02</totfact>
</mgrwt>
</event>
<event>
 6    1  0.9364335E-007  0.5246018E+03  0.7818608E-02  0.1007550E+00
         -2   -1    0    0    0  501 -0.00000000000E+00  0.00000000000E+00  0.98980684734E+02  0.98980684734E+02  0.00000000000E+00 0.  1.
          2   -1    0    0  501    0  0.00000000000E+00 -0.00000000000E+00 -0.69510294545E+03  0.69510294545E+03  0.00000000000E+00 0. -1.
         23    2    1    2    0    0  0.70597086051E+01  0.63661375314E+02 -0.67963635496E+03  0.68883528517E+03  0.92118754431E+02 0.  0.
         13    1    3    3    0    0  0.25498577559E+02  0.11611647783E+01 -0.53067723152E+02  0.58887256701E+02  0.00000000000E+00 0. -1.
        -13    1    3    3    0    0 -0.18438868954E+02  0.62500210535E+02 -0.62656863181E+03  0.62994802847E+03  0.00000000000E+00 0.  1.
         22    1    1    2    0    0 -0.70597086051E+01 -0.63661375314E+02  0.83514094240E+02  0.10524834502E+03  0.00000000000E+00 0.  1.
<mgrwt>
<rscale>  0 0.52460181E+03</rscale>
<asrwt>0</asrwt>
<pdfrwt beam="1">  1        2 0.10693891E+00 0.52460181E+03</pdfrwt>
<pdfrwt beam="2">  1       -2 0.15227798E-01 0.52460181E+03</pdfrwt>
<totfact> 0.14147833E+03</totfact>
</mgrwt>
</event>
<event>
 6    1  0.9364335E-007  0.3216698E+04  0.7818608E-02  0.8184421E-01
         -2   -1    0    0    0  501 -0.00000000000E+00  0.00000000000E+00  0.10275885520E+04  0.10275885520E+04  0.00000000000E+00 0.  1.
          2   -1    0    0  501    0  0.00000000000E+00 -0.00000000000E+00 -0.25173364253E+04  0.25173364253E+04  0.00000000000E+00 0. -1.
         23    2    1    2    0    0  0.13335721886E+04 -0.86191926356E+03 -0.47248426643E+03  0.16591506416E+04  0.90663501737E+02 0.  0.
         11    1    3    3    0    0  0.54307634143E+03 -0.30157692520E+03 -0.16866279113E+03  0.64368291227E+03  0.00000000000E+00 0. -1.
        -11    1    3    3    0    0  0.79049584713E+03 -0.56034233836E+03 -0.30382147530E+03  0.10154677293E+04  0.00000000000E+00 0.  1.
         22    1    1    2    0    0 -0.13335721886E+04  0.86191926356E+03 -0.10172636069E+04  0.18857743356E+04  0.00000000000E+00 0.  1.
<mgrwt>
<rscale>  0 0.32166977E+04</rscale>
<asrwt>0</asrwt>
<pdfrwt beam="1">  1        2 0.38728252E+00 0.32166977E+04</pdfrwt>
<pdfrwt beam="2">  1       -2 0.15809055E+00 0.32166977E+04</pdfrwt>
<totfact> 0.74422629E-01</totfact>
</mgrwt>
</event>
<event>
 6    1  0.9364335E-007  0.1674822E+04  0.7818608E-02  0.8775856E-01
          2   -1    0    0  501    0  0.00000000000E+00  0.00000000000E+00  0.79192826319E+03  0.79192826319E+03  0.00000000000E+00 0. -1.
         -2   -1    0    0    0  501 -0.00000000000E+00 -0.00000000000E+00 -0.88550602856E+03  0.88550602856E+03  0.00000000000E+00 0.  1.
         23    2    1    2    0    0  0.18787115502E+03  0.40355022438E+03 -0.75440643807E+03  0.88066400544E+03  0.91058564621E+02 0.  0.
         13    1    3    3    0    0  0.17541912727E+03  0.28236504912E+03 -0.54320638293E+03  0.63684775703E+03  0.00000000000E+00 0. -1.
        -13    1    3    3    0    0  0.12452027747E+02  0.12118517527E+03 -0.21120005514E+03  0.24381624841E+03  0.00000000000E+00 0.  1.
         22    1    1    2    0    0 -0.18787115502E+03 -0.40355022438E+03  0.66082867270E+03  0.79677028631E+03  0.00000000000E+00 0. -1.
<mgrwt>
<rscale>  0 0.16748221E+04</rscale>
<asrwt>0</asrwt>
<pdfrwt beam="1">  1        2 0.12183512E+00 0.16748221E+04</pdfrwt>
<pdfrwt beam="2">  1       -2 0.13623170E+00 0.16748221E+04</pdfrwt>
<totfact> 0.12827048E+01</totfact>
</mgrwt>
</event>
<event>
 6    1  0.9364335E-007  0.1506280E+04  0.7818608E-02  0.8880287E-01
          2   -1    0    0  501    0  0.00000000000E+00  0.00000000000E+00  0.44961864308E+04  0.44961864308E+04  0.00000000000E+00 0. -1.
         -2   -1    0    0    0  501 -0.00000000000E+00 -0.00000000000E+00 -0.12615578987E+03  0.12615578987E+03  0.00000000000E+00 0.  1.
         23    2    1    2    0    0  0.44191878138E+03  0.58101732332E+03  0.27294493164E+04  0.28266862342E+04  0.85954386030E+02 0.  0.
         11    1    3    3    0    0  0.31979663674E+03  0.35274771189E+03  0.17750878464E+04  0.18378350577E+04  0.00000000000E+00 0.  1.
        -11    1    3    3    0    0  0.12212214464E+03  0.22826961143E+03  0.95436147007E+03  0.98885117650E+03  0.00000000000E+00 0. -1.
         22    1    1    2    0    0 -0.44191878138E+03 -0.58101732332E+03  0.16405813245E+04  0.17956559864E+04  0.00000000000E+00 0.  1.
<mgrwt>
<rscale>  0 0.15062801E+04</rscale>
<asrwt>0</asrwt>
<pdfrwt beam="1">  1        2 0.69172087E+00 0.15062801E+04</pdfrwt>
<pdfrwt beam="2">  1       -2 0.19408586E-01 0.15062801E+04</pdfrwt>
<totfact> 0.27980515E+00</totfact>
</mgrwt>
</event>
<event>
 6    1  0.9364335E-007  0.1653601E+04  0.7818608E-02  0.8788279E-01
         -2   -1    0    0    0  501 -0.00000000000E+00  0.00000000000E+00  0.31924982199E+03  0.31924982199E+03  0.00000000000E+00 0.  1.
          2   -1    0    0  501    0  0.00000000000E+00 -0.00000000000E+00 -0.21412681038E+04  0.21412681038E+04  0.00000000000E+00 0. -1.
         23    2    1    2    0    0  0.69173031196E+02 -0.79262814334E+03 -0.59798318206E+03  0.10006185432E+04  0.10300146173E+03 0.  0.
         13    1    3    3    0    0  0.57333754173E+02 -0.48390280891E+03 -0.30520729700E+03  0.57497876655E+03  0.00000000000E+00 0.  1.
        -13    1    3    3    0    0  0.11839277023E+02 -0.30872533443E+03 -0.29277588506E+03  0.42563977666E+03  0.00000000000E+00 0. -1.
         22    1    1    2    0    0 -0.69173031196E+02  0.79262814334E+03 -0.12240350998E+04  0.14598993826E+04  0.00000000000E+00 0. -1.
<mgrwt>
<rscale>  0 0.16536015E+04</rscale>
<asrwt>0</asrwt>
<pdfrwt beam="1">  1        2 0.32942586E+00 0.16536015E+04</pdfrwt>
<pdfrwt beam="2">  1       -2 0.49115357E-01 0.16536015E+04</pdfrwt>
<totfact> 0.20890981E+01</totfact>
</mgrwt>
</event>
<event>
 6    1  0.9364335E-007  0.3320387E+04  0.7818608E-02  0.8157727E-01
         -2   -1    0    0    0  501 -0.00000000000E+00  0.00000000000E+00  0.11725968715E+04  0.11725968715E+04  0.00000000000E+00 0.  1.
          2   -1    0    0  501    0  0.00000000000E+00 -0.00000000000E+00 -0.23505451760E+04  0.23505451760E+04  0.00000000000E+00 0. -1.
         23    2    1    2    0    0 -0.92135755632E+03  0.89770489817E+01  0.87432652268E+03  0.12735171232E+04  0.91753260258E+02 0.  0.
         11    1    3    3    0    0 -0.19228347448E+03 -0.34865923908E+02  0.19393495241E+03  0.27531678659E+03  0.00000000000E+00 0. -1.
        -11    1    3    3    0    0 -0.72907408184E+03  0.43842972890E+02  0.68039157027E+03  0.99820033659E+03  0.00000000000E+00 0.  1.
         22    1    1    2    0    0  0.92135755632E+03 -0.89770489817E+01 -0.20522748271E+04  0.22496249243E+04  0.00000000000E+00 0. -1.
<mgrwt>
<rscale>  0 0.33203867E+04</rscale>
<asrwt>0</asrwt>
<pdfrwt beam="1">  1        2 0.36162233E+00 0.33203867E+04</pdfrwt>
<pdfrwt beam="2">  1       -2 0.18039952E+00 0.33203867E+04</pdfrwt>
<totfact> 0.63742519E-01</totfact>
</mgrwt>
</event>
<event>
 6    1  0.9364335E-007  0.9246302E+03  0.7818608E-02  0.9395306E-01
          3   -1    0    0  501    0  0.00000000000E+00  0.00000000000E+00  0.62320950799E+03  0.62320950799E+03  0.00000000000E+00 0. -1.
         -3   -1    0    0    0  501 -0.00000000000E+00 -0.00000000000E+00 -0.34295889405E+03  0.34295889405E+03  0.00000000000E+00 0.  1.
         23    2    1    2    0    0 -0.19731028581E+03  0.41063285643E+03  0.18891699834E+03  0.50152604387E+03  0.91038721190E+02 0.  0.
         13    1    3    3    0    0 -0.96033859148E+02  0.21372926590E+03  0.48339404645E+02  0.23924756895E+03  0.00000000000E+00 0. -1.
        -13    1    3    3    0    0 -0.10127642667E+03  0.19690359052E+03  0.14057759370E+03  0.26227847493E+03  0.00000000000E+00 0.  1.
         22    1    1    2    0    0  0.19731028581E+03 -0.41063285643E+03  0.91333615592E+02  0.46464235817E+03  0.00000000000E+00 0.  1.
<mgrwt>
<rscale>  0 0.92463018E+03</rscale>
<asrwt>0</asrwt>
<pdfrwt beam="1">  1        3 0.95878386E-01 0.92463018E+03</pdfrwt>
<pdfrwt beam="2">  1       -3 0.52762907E-01 0.92463018E+03</pdfrwt>
<totfact> 0.89968340E+00</totfact>
</mgrwt>
</event>
<event>
 6    1  0.9364335E-007  0.1853868E+04  0.7818608E-02  0.8678166E-01
          2   -1    0    0  501    0  0.00000000000E+00  0.00000000000E+00  0.13128117039E+04  0.13128117039E+04  0.00000000000E+00 0. -1.
         -2   -1    0    0    0  501 -0.00000000000E+00 -0.00000000000E+00 -0.65447851229E+03  0.65447851229E+03  0.00000000000E+00 0.  1.
         23    2    1    2    0    0 -0.10628061084E+03  0.23376990519E+03 -0.61265919406E+03  0.67061539912E+03  0.91813880505E+02 0.  0.
         13    1    3    3    0    0 -0.65334757693E+02  0.94460086539E+02 -0.17347541614E+03  0.20805061528E+03  0.00000000000E+00 0.  1.
        -13    1    3    3    0    0 -0.40945853151E+02  0.13930981865E+03 -0.43918377792E+03  0.46256478384E+03  0.00000000000E+00 0. -1.
         22    1    1    2    0    0  0.10628061084E+03 -0.23376990519E+03  0.12709923857E+04  0.12966748171E+04  0.00000000000E+00 0. -1.
<mgrwt>
<rscale>  0 0.18538684E+04</rscale>
<asrwt>0</asrwt>
<pdfrwt beam="1">  1        2 0.20197103E+00 0.18538684E+04</pdfrwt>
<pdfrwt beam="2">  1       -2 0.10068900E+00 0.18538684E+04</pdfrwt>
<totfact> 0.12414728E+01</totfact>
</mgrwt>
</event>
<event>
 6    1  0.9364335E-007  0.1671679E+04  0.7818608E-02  0.8777684E-01
         -2   -1    0    0    0  501 -0.00000000000E+00  0.00000000000E+00  0.12792502382E+03  0.12792502382E+03  0.00000000000E+00 0.  1.
          2   -1    0    0  501    0  0.00000000000E+00 -0.00000000000E+00 -0.54612265055E+04  0.54612265055E+04  0.00000000000E+00 0. -1.
         23    2    1    2    0    0  0.69419988940E+03  0.41658140738E+03 -0.33356354553E+04  0.34336647842E+04  0.90202018902E+02 0.  0.
         13    1    3    3    0    0  0.39515283277E+03  0.21411529808E+03 -0.20173926076E+04  0.20668488225E+04  0.00000000000E+00 0. -1.
        -13    1    3    3    0    0  0.29904705663E+03  0.20246610930E+03 -0.13182428477E+04  0.13668159616E+04  0.00000000000E+00 0.  1.
         22    1    1    2    0    0 -0.69419988940E+03 -0.41658140738E+03 -0.19976660265E+04  0.21554867452E+04  0.00000000000E+00 0.  1.
<mgrwt>
<rscale>  0 0.16716788E+04</rscale>
<asrwt>0</asrwt>
<pdfrwt beam="1">  1        2 0.84018888E+00 0.16716788E+04</pdfrwt>
<pdfrwt beam="2">  1       -2 0.19680769E-01 0.16716788E+04</pdfrwt>
<totfact> 0.15642362E-01</totfact>
</mgrwt>
</event>
<event>
 6    1  0.9364335E-007  0.7595387E+03  0.7818608E-02  0.9620503E-01
         -1   -1    0    0    0  501 -0.00000000000E+00  0.00000000000E+00  0.17446675117E+03  0.17446675117E+03  0.00000000000E+00 0.  1.
          1   -1    0    0  501    0  0.00000000000E+00 -0.00000000000E+00 -0.82666051376E+03  0.82666051376E+03  0.00000000000E+00 0. -1.
         23    2    1    2    0    0  0.14921873440E+02 -0.22454581153E+03  0.61794987987E+02  0.25251293181E+03  0.96440014579E+02 0.  0.
         11    1    3    3    0    0  0.39376915359E+02 -0.19790904167E+03  0.29313827504E+02  0.20390642639E+03  0.00000000000E+00 0. -1.
        -11    1    3    3    0    0 -0.24455041919E+02 -0.26636769854E+02  0.32481160483E+02  0.48606505428E+02  0.00000000000E+00 0.  1.
         22    1    1    2    0    0 -0.14921873440E+02  0.22454581153E+03 -0.71398875058E+03  0.74861433311E+03  0.00000000000E+00 0. -1.
<mgrwt>
<rscale>  0 0.75953874E+03</rscale>
<asrwt>0</asrwt>
<pdfrwt beam="1">  1        1 0.12717854E+00 0.75953874E+03</pdfrwt>
<pdfrwt beam="2">  1       -1 0.26841039E-01 0.75953874E+03</pdfrwt>
<totfact> 0.26250206E+02</totfact>
</mgrwt>
</event>
<event>
 6    1  0.9364335E-007  0.2639714E+04  0.7818608E-02  0.8354835E-01
          2   -1    0    0  501    0  0.00000000000E+00  0.00000000000E+00  0.13741496897E+04  0.13741496897E+04  0.00000000000E+00 0. -1.
         -2   -1    0    0    0  501 -0.00000000000E+00 -0.00000000000E+00 -0.12677090286E+04  0.12677090286E+04  0.00000000000E+00 0.  1.
         23    2    1    2    0    0 -0.47087160517E+03 -0.90163711617E+02  0.12822863904E+04  0.13720308786E+04  0.91437308712E+02 0.  0.
         13    1    3    3    0    0 -0.18039037766E+03 -0.47958180051E+02  0.38321924025E+03  0.42626008666E+03  0.00000000000E+00 0.  1.
        -13    1    3    3    0    0 -0.29048122752E+03 -0.42205531565E+02  0.89906715015E+03  0.94577079195E+03  0.00000000000E+00 0. -1.
         22    1    1    2    0    0  0.47087160517E+03  0.90163711617E+02 -0.11758457292E+04  0.12698278397E+04  0.00000000000E+00 0.  1.
<mgrwt>
<rscale>  0 0.26397136E+04</rscale>
<asrwt>0</asrwt>
<pdfrwt beam="1">  1        2 0.21140764E+00 0.26397136E+04</pdfrwt>
<pdfrwt beam="2">  1       -2 0.19503216E+00 0.26397136E+04</pdfrwt>
<totfact> 0.18939356E+00</totfact>
</mgrwt>
</event>
<event>
 6    1  0.9364335E-007  0.1340750E+04  0.7818608E-02  0.8997860E-01
         -1   -1    0    0    0  501 -0.00000000000E+00  0.00000000000E+00  0.81650150311E+03  0.81650150311E+03  0.00000000000E+00 0.  1.
          1   -1    0    0  501    0  0.00000000000E+00 -0.00000000000E+00 -0.55040059042E+03  0.55040059042E+03  0.00000000000E+00 0. -1.
         23    2    1    2    0    0 -0.99241794068E+01  0.27243415312E+03 -0.48729557100E+03  0.56569979776E+03  0.90776817230E+02 0.  0.
         11    1    3    3    0    0 -0.35614025194E+02  0.21280232239E+03 -0.31713905503E+03  0.38357576491E+03  0.00000000000E+00 0. -1.
        -11    1    3    3    0    0  0.25689845787E+02  0.59631830731E+02 -0.17015651597E+03  0.18212403285E+03  0.00000000000E+00 0.  1.
         22    1    1    2    0    0  0.99241794068E+01 -0.27243415312E+03  0.75339648368E+03  0.80120229577E+03  0.00000000000E+00 0.  1.
<mgrwt>
<rscale>  0 0.13407504E+04</rscale>
<asrwt>0</asrwt>
<pdfrwt beam="1">  1        1 0.84677014E-01 0.13407504E+04</pdfrwt>
<pdfrwt beam="2">  1       -1 0.12561562E+00 0.13407504E+04</pdfrwt>
<totfact> 0.20990060E+01</totfact>
</mgrwt>
</event>
<event>
 6    1  0.9364335E-007  0.1501838E+04  0.7818608E-02  0.8883232E-01
          2   -1    0    0  501    0  0.00000000000E+00  0.00000000000E+00  0.12726067753E+04  0.12726067753E+04  0.00000000000E+00 0. -1.
         -2   -1    0    0    0  501 -0.00000000000E+00 -0.00000000000E+00 -0.44308981181E+03  0.44308981181E+03  0.00000000000E+00 0.  1.
         23    2    1    2    0    0 -0.61803163524E+03 -0.79745252829E+02  0.88918932976E+03  0.10896908373E+04  0.91902389969E+02 0.  0.
         13    1    3    3    0    0 -0.33414264573E+03 -0.19651150326E+02  0.54409681905E+03  0.63881047574E+03  0.00000000000E+00 0. -1.
        -13    1    3    3    0    0 -0.28388898951E+03 -0.60094102504E+02  0.34509251070E+03  0.45088036159E+03  0.00000000000E+00 0.  1.
         22    1    1    2    0    0  0.61803163524E+03  0.79745252829E+02 -0.59672366245E+02  0.62600574982E+03  0.00000000000E+00 0. -1.
<mgrwt>
<rscale>  0 0.15018377E+04</rscale>
<asrwt>0</asrwt>
<pdfrwt beam="1">  1        2 0.19578566E+00 0.15018377E+04</pdfrwt>
<pdfrwt beam="2">  1       -2 0.68167664E-01 0.15018377E+04</pdfrwt>
<totfact> 0.32639853E+01</totfact>
</mgrwt>
</event>
<event>
 6    1  0.9364335E-007  0.3480526E+04  0.7818608E-02  0.8118421E-01
         -2   -1    0    0    0  501 -0.00000000000E+00  0.00000000000E+00  0.15059122025E+04  0.15059122025E+04  0.00000000000E+00 0.  1.
          2   -1    0    0  501    0  0.00000000000E+00 -0.00000000000E+00 -0.20110832546E+04  0.20110832546E+04  0.00000000000E+00 0. -1.
         23    2    1    2    0    0 -0.50474328287E+02 -0.43539111660E+03 -0.19532882064E+04  0.20039996294E+04  0.92556010579E+02 0.  0.
         13    1    3    3    0    0 -0.75557228476E+02 -0.32877155249E+03 -0.14116455968E+04  0.14513934406E+04  0.00000000000E+00 0.  1.
        -13    1    3    3    0    0  0.25082900189E+02 -0.10661956411E+03 -0.54164260964E+03  0.55260618881E+03  0.00000000000E+00 0. -1.
         22    1    1    2    0    0  0.50474328287E+02  0.43539111660E+03  0.14481171543E+04  0.15129958278E+04  0.00000000000E+00 0.  1.
<mgrwt>
<rscale>  0 0.34805257E+04</rscale>
<asrwt>0</asrwt>
<pdfrwt beam="1">  1        2 0.30939742E+00 0.34805257E+04</pdfrwt>
<pdfrwt beam="2">  1       -2 0.23167880E+00 0.34805257E+04</pdfrwt>
<totfact> 0.45245839E-01</totfact>
</mgrwt>
</event>
<event>
 6    1  0.9364335E-007  0.1527442E+04  0.7818608E-02  0.8866407E-01
         -2   -1    0    0    0  501 -0.00000000000E+00  0.00000000000E+00  0.45205911673E+03  0.45205911673E+03  0.00000000000E+00 0.  1.
          2   -1    0    0  501    0  0.00000000000E+00 -0.00000000000E+00 -0.12902511036E+04  0.12902511036E+04  0.00000000000E+00 0. -1.
         23    2    1    2    0    0 -0.57781708967E+03 -0.16372638804E+03 -0.95371221506E+03  0.11307353333E+04  0.91194767501E+02 0.  0.
         13    1    3    3    0    0 -0.50076532102E+03 -0.11955566815E+03 -0.76421608954E+03  0.92145846137E+03  0.00000000000E+00 0.  1.
        -13    1    3    3    0    0 -0.77051768659E+02 -0.44170719890E+02 -0.18949612552E+03  0.20927687196E+03  0.00000000000E+00 0. -1.
         22    1    1    2    0    0  0.57781708967E+03  0.16372638804E+03  0.11552022822E+03  0.61157488698E+03  0.00000000000E+00 0.  1.
<mgrwt>
<rscale>  0 0.15274420E+04</rscale>
<asrwt>0</asrwt>
<pdfrwt beam="1">  1        2 0.19850017E+00 0.15274420E+04</pdfrwt>
<pdfrwt beam="2">  1       -2 0.69547557E-01 0.15274420E+04</pdfrwt>
<totfact> 0.30451122E+01</totfact>
</mgrwt>
</event>
<event>
 6    1  0.9364335E-007  0.1884579E+04  0.7818608E-02  0.8662571E-01
         -4   -1    0    0    0  501 -0.00000000000E+00  0.00000000000E+00  0.18901905464E+04  0.18901905464E+04  0.00000000000E+00 0.  1.
          4   -1    0    0  501    0  0.00000000000E+00 -0.00000000000E+00 -0.46974619382E+03  0.46974619382E+03  0.00000000000E+00 0. -1.
         23    2    1    2    0    0 -0.79117729199E+03  0.34369531828E+03  0.24057983897E+03  0.89837310847E+03  0.71467502682E+02 0.  0.
         13    1    3    3    0    0 -0.18182948081E+03  0.47033457943E+02  0.54753634620E+02  0.19563247880E+03  0.00000000000E+00 0.  1.
        -13    1    3    3    0    0 -0.60934781118E+03  0.29666186033E+03  0.18582620435E+03  0.70274062967E+03  0.00000000000E+00 0. -1.
         22    1    1    2    0    0  0.79117729199E+03 -0.34369531828E+03  0.11798645137E+04  0.14615636318E+04  0.00000000000E+00 0.  1.
<mgrwt>
<rscale>  0 0.18845793E+04</rscale>
<asrwt>0</asrwt>
<pdfrwt beam="1">  1        4 0.72268646E-01 0.18845793E+04</pdfrwt>
<pdfrwt beam="2">  1       -4 0.29079854E+00 0.18845793E+04</pdfrwt>
<totfact> 0.11558921E-01</totfact>
</mgrwt>
</event>
<event>
 6    1  0.9364335E-007  0.5633785E+03  0.7818608E-02  0.9984439E-01
          2   -1    0    0  501    0  0.00000000000E+00  0.00000000000E+00  0.91686087043E+02  0.91686087043E+02  0.00000000000E+00 0. -1.
         -2   -1    0    0    0  501 -0.00000000000E+00 -0.00000000000E+00 -0.86544017775E+03  0.86544017775E+03  0.00000000000E+00 0.  1.
         23    2    1    2    0    0 -0.42679793674E+02 -0.15334477494E+03 -0.77647400759E+03  0.79792958538E+03  0.91888813054E+02 0.  0.
         11    1    3    3    0    0 -0.45694945608E+02 -0.13622833178E+03 -0.48245815117E+03  0.50340049073E+03  0.00000000000E+00 0.  1.
        -11    1    3    3    0    0  0.30151519339E+01 -0.17116443157E+02 -0.29401585642E+03  0.29452909465E+03  0.00000000000E+00 0. -1.
         22    1    1    2    0    0  0.42679793674E+02  0.15334477494E+03  0.27199168843E+01  0.15919667942E+03  0.00000000000E+00 0. -1.
<mgrwt>
<rscale>  0 0.56337846E+03</rscale>
<asrwt>0</asrwt>
<pdfrwt beam="1">  1        2 0.14105552E-01 0.56337846E+03</pdfrwt>
<pdfrwt beam="2">  1       -2 0.13314464E+00 0.56337846E+03</pdfrwt>
<totfact> 0.17937352E+02</totfact>
</mgrwt>
</event>
<event>
 6    1  0.9364335E-007  0.2112050E+04  0.7818608E-02  0.8555954E-01
         -1   -1    0    0    0  501 -0.00000000000E+00  0.00000000000E+00  0.18634931827E+04  0.18634931827E+04  0.00000000000E+00 0.  1.
          1   -1    0    0  501    0  0.00000000000E+00 -0.00000000000E+00 -0.59843972226E+03  0.59843972226E+03  0.00000000000E+00 0. -1.
         23    2    1    2    0    0 -0.88237995585E+03 -0.52642486978E+02 -0.35113818368E+02  0.88973680689E+03  0.95042029494E+02 0.  0.
         13    1    3    3    0    0 -0.49820167241E+02 -0.10951274558E+02 -0.23227543791E+02  0.56049070187E+02  0.00000000000E+00 0. -1.
        -13    1    3    3    0    0 -0.83255978861E+03 -0.41691212420E+02 -0.11886274578E+02  0.83368773670E+03  0.00000000000E+00 0.  1.
         22    1    1    2    0    0  0.88237995585E+03  0.52642486978E+02  0.13001672789E+04  0.15721960981E+04  0.00000000000E+00 0.  1.
<mgrwt>
<rscale>  0 0.21120496E+04</rscale>
<asrwt>0</asrwt>
<pdfrwt beam="1">  1        1 0.92067650E-01 0.21120496E+04</pdfrwt>
<pdfrwt beam="2">  1       -1 0.28669126E+00 0.21120496E+04</pdfrwt>
<totfact> 0.12726049E+00</totfact>
</mgrwt>
</event>
<event>
 6    1  0.9364335E-007  0.3777872E+04  0.7818608E-02  0.8050920E-01
         -2   -1    0    0    0  501 -0.00000000000E+00  0.00000000000E+00  0.23450894973E+04  0.23450894973E+04  0.00000000000E+00 0.  1.
          2   -1    0    0  501    0  0.00000000000E+00 -0.00000000000E+00 -0.15215110408E+04  0.15215110408E+04  0.00000000000E+00 0. -1.
         23    2    1    2    0    0 -0.14258509807E+04  0.54232341139E+03 -0.72605340274E+03  0.16920834420E+04  0.93952803036E+02 0.  0.
         11    1    3    3    0    0 -0.44400100028E+03  0.13087052614E+03 -0.24736367318E+03  0.52483594548E+03  0.00000000000E+00 0. -1.
        -11    1    3    3    0    0 -0.98184998046E+03  0.41145288525E+03 -0.47868972956E+03  0.11672474965E+04  0.00000000000E+00 0.  1.
         22    1    1    2    0    0  0.14258509807E+04 -0.54232341139E+03  0.15496318593E+04  0.21745170961E+04  0.00000000000E+00 0.  1.
<mgrwt>
<rscale>  0 0.37778722E+04</rscale>
<asrwt>0</asrwt>
<pdfrwt beam="1">  1        2 0.23407862E+00 0.37778722E+04</pdfrwt>
<pdfrwt beam="2">  1       -2 0.36078300E+00 0.37778722E+04</pdfrwt>
<totfact> 0.13175867E-01</totfact>
</mgrwt>
</event>
<event>
 6    1  0.9364335E-007  0.9622766E+03  0.7818608E-02  0.9350915E-01
         -1   -1    0    0    0  501 -0.00000000000E+00  0.00000000000E+00  0.14934699576E+03  0.14934699576E+03  0.00000000000E+00 0.  1.
          1   -1    0    0  501    0  0.00000000000E+00 -0.00000000000E+00 -0.15500415938E+04  0.15500415938E+04  0.00000000000E+00 0. -1.
         23    2    1    2    0    0 -0.37978136019E+03  0.21823507241E+03 -0.37359488350E+03  0.58278917528E+03  0.90607160113E+02 0.  0.
         13    1    3    3    0    0 -0.24761816403E+03  0.17532943295E+03 -0.21458486377E+03  0.37162054435E+03  0.00000000000E+00 0.  1.
        -13    1    3    3    0    0 -0.13216319616E+03  0.42905639457E+02 -0.15901001973E+03  0.21116863093E+03  0.00000000000E+00 0. -1.
         22    1    1    2    0    0  0.37978136019E+03 -0.21823507241E+03 -0.10270997146E+04  0.11165994143E+04  0.00000000000E+00 0. -1.
<mgrwt>
<rscale>  0 0.96227658E+03</rscale>
<asrwt>0</asrwt>
<pdfrwt beam="1">  1        1 0.23846794E+00 0.96227658E+03</pdfrwt>
<pdfrwt beam="2">  1       -1 0.22976461E-01 0.96227658E+03</pdfrwt>
<totfact> 0.98264074E+01</totfact>
</mgrwt>
</event>
<event>
 6    1  0.9364335E-007  0.1180752E+04  0.7818608E-02  0.9129873E-01
          2   -1    0    0  501    0  0.00000000000E+00  0.00000000000E+00  0.24449787062E+04  0.24449787062E+04  0.00000000000E+00 0. -1.
         -2   -1    0    0    0  501 -0.00000000000E+00 -0.00000000000E+00 -0.14255487155E+03  0.14255487155E+03  0.00000000000E+00 0.  1.
         23    2    1    2    0    0  0.15065962994E+03 -0.45542728433E+03  0.18982724163E+04  0.19602770877E+04  0.95581161682E+02 0.  0.
         11    1    3    3    0    0  0.93404597611E+02 -0.36139996481E+03  0.15803112786E+04  0.16237974291E+04  0.00000000000E+00 0. -1.
        -11    1    3    3    0    0  0.57255032325E+02 -0.94027319519E+02  0.31796113773E+03  0.33647965860E+03  0.00000000000E+00 0.  1.
         22    1    1    2    0    0 -0.15065962994E+03  0.45542728433E+03  0.40415141833E+03  0.62725649008E+03  0.00000000000E+00 0.  1.
<mgrwt>
<rscale>  0 0.11807517E+04</rscale>
<asrwt>0</asrwt>
<pdfrwt beam="1">  1        2 0.37615054E+00 0.11807517E+04</pdfrwt>
<pdfrwt beam="2">  1       -2 0.21931521E-01 0.11807517E+04</pdfrwt>
<totfact> 0.67596892E+01</totfact>
</mgrwt>
</event>
<event>
 6    1  0.9364335E-007  0.1804213E+04  0.7818608E-02  0.8704062E-01
          1   -1    0    0  501    0  0.00000000000E+00  0.00000000000E+00  0.69366866931E+03  0.69366866931E+03  0.00000000000E+00 0. -1.
         -1   -1    0    0    0  501 -0.00000000000E+00 -0.00000000000E+00 -0.11731767147E+04  0.11731767147E+04  0.00000000000E+00 0.  1.
         23    2    1    2    0    0 -0.66861614574E+03  0.40149093811E+02 -0.86210309395E+03  0.10954580162E+04  0.90260846977E+02 0.  0.
         11    1    3    3    0    0 -0.55902180438E+03  0.55292102633E+02 -0.75866481166E+03  0.94399941252E+03  0.00000000000E+00 0.  1.
        -11    1    3    3    0    0 -0.10959434136E+03 -0.15143008822E+02 -0.10343828229E+03  0.15145860364E+03  0.00000000000E+00 0. -1.
         22    1    1    2    0    0  0.66861614574E+03 -0.40149093811E+02  0.38259504856E+03  0.77138736784E+03  0.00000000000E+00 0. -1.
<mgrwt>
<rscale>  0 0.18042128E+04</rscale>
<asrwt>0</asrwt>
<pdfrwt beam="1">  1        1 0.10671826E+00 0.18042128E+04</pdfrwt>
<pdfrwt beam="2">  1       -1 0.18048873E+00 0.18042128E+04</pdfrwt>
<totfact> 0.53783505E+00</totfact>
</mgrwt>
</event>
<event>
 6    1  0.9364335E-007  0.3192040E+04  0.7818608E-02  0.8190923E-01
          1   -1    0    0  501    0  0.00000000000E+00  0.00000000000E+00  0.11251301393E+04  0.11251301393E+04  0.00000000000E+00 0. -1.
         -1   -1    0    0    0  501 -0.00000000000E+00 -0.00000000000E+00 -0.22639862014E+04  0.22639862014E+04  0.00000000000E+00 0.  1.
         23    2    1    2    0    0 -0.15152004161E+03 -0.12023519348E+04 -0.16702640394E+04  0.20658616651E+04  0.96922442394E+02 0.  0.
         11    1    3    3    0    0 -0.26959759059E+02 -0.27900299171E+03 -0.32088329643E+03  0.42606993313E+03  0.00000000000E+00 0. -1.
        -11    1    3    3    0    0 -0.12456028255E+03 -0.92334894312E+03 -0.13493807430E+04  0.16397917320E+04  0.00000000000E+00 0.  1.
         22    1    1    2    0    0  0.15152004161E+03  0.12023519348E+04  0.53140797735E+03  0.13232546756E+04  0.00000000000E+00 0. -1.
<mgrwt>
<rscale>  0 0.31920395E+04</rscale>
<asrwt>0</asrwt>
<pdfrwt beam="1">  1        1 0.17309694E+00 0.31920395E+04</pdfrwt>
<pdfrwt beam="2">  1       -1 0.34830557E+00 0.31920395E+04</pdfrwt>
<totfact> 0.16199148E-01</totfact>
</mgrwt>
</event>
<event>
 6    1  0.9364335E-007  0.5994850E+03  0.7818608E-02  0.9906475E-01
          2   -1    0    0  501    0  0.00000000000E+00  0.00000000000E+00  0.14566348051E+03  0.14566348051E+03  0.00000000000E+00 0. -1.
         -2   -1    0    0    0  501 -0.00000000000E+00 -0.00000000000E+00 -0.61680237668E+03  0.61680237668E+03  0.00000000000E+00 0.  1.
         23    2    1    2    0    0  0.22320700009E+03 -0.18763926640E+03 -0.21063085299E+03  0.37144885021E+03  0.92623068971E+02 0.  0.
         13    1    3    3    0    0  0.78753264257E+02 -0.62755110499E+02 -0.12932732653E+03  0.16390801662E+03  0.00000000000E+00 0.  1.
        -13    1    3    3    0    0  0.14445373584E+03 -0.12488415590E+03 -0.81303526457E+02  0.20754083359E+03  0.00000000000E+00 0. -1.
         22    1    1    2    0    0 -0.22320700009E+03  0.18763926640E+03 -0.26050804318E+03  0.39101700698E+03  0.00000000000E+00 0.  1.
<mgrwt>
<rscale>  0 0.59948505E+03</rscale>
<asrwt>0</asrwt>
<pdfrwt beam="1">  1        2 0.22409767E-01 0.59948505E+03</pdfrwt>
<pdfrwt beam="2">  1       -2 0.94892672E-01 0.59948505E+03</pdfrwt>
<totfact> 0.23517944E+02</totfact>
</mgrwt>
</event>
<event>
 6    1  0.9364335E-007  0.2022175E+04  0.7818608E-02  0.8596323E-01
          1   -1    0    0  501    0  0.00000000000E+00  0.00000000000E+00  0.12108362854E+04  0.12108362854E+04  0.00000000000E+00 0. -1.
         -1   -1    0    0    0  501 -0.00000000000E+00 -0.00000000000E+00 -0.84429077997E+03  0.84429077997E+03  0.00000000000E+00 0.  1.
         23    2    1    2    0    0 -0.21775127161E+03  0.34906967792E+03  0.11201039536E+04  0.11965727042E+04  0.88815050803E+02 0.  0.
         13    1    3    3    0    0 -0.13045554411E+03  0.13606325306E+03  0.56559421788E+03  0.59617839371E+03  0.00000000000E+00 0. -1.
        -13    1    3    3    0    0 -0.87295727492E+02  0.21300642486E+03  0.55450973569E+03  0.60039431047E+03  0.00000000000E+00 0.  1.
         22    1    1    2    0    0  0.21775127161E+03 -0.34906967792E+03 -0.75355844815E+03  0.85855436118E+03  0.00000000000E+00 0.  1.
<mgrwt>
<rscale>  0 0.20221750E+04</rscale>
<asrwt>0</asrwt>
<pdfrwt beam="1">  1        1 0.18628251E+00 0.20221750E+04</pdfrwt>
<pdfrwt beam="2">  1       -1 0.12989089E+00 0.20221750E+04</pdfrwt>
<totfact> 0.49377020E+00</totfact>
</mgrwt>
</event>
<event>
 6    1  0.9364335E-007  0.2670601E+04  0.7818608E-02  0.8344607E-01
         -1   -1    0    0    0  501 -0.00000000000E+00  0.00000000000E+00  0.18108265037E+04  0.18108265037E+04  0.00000000000E+00 0.  1.
          1   -1    0    0  501    0  0.00000000000E+00 -0.00000000000E+00 -0.98464855706E+03  0.98464855706E+03  0.00000000000E+00 0. -1.
         23    2    1    2    0    0  0.46871784039E+03  0.14062583943E+03  0.17122040458E+04  0.17832921281E+04  0.94953035309E+02 0.  0.
         13    1    3    3    0    0  0.29610864248E+03  0.66455882332E+02  0.90550908688E+03  0.95500964334E+03  0.00000000000E+00 0. -1.
        -13    1    3    3    0    0  0.17260919790E+03  0.74169957101E+02  0.80669495897E+03  0.82828248476E+03  0.00000000000E+00 0.  1.
         22    1    1    2    0    0 -0.46871784039E+03 -0.14062583943E+03 -0.88602609923E+03  0.10121829326E+04  0.00000000000E+00 0. -1.
<mgrwt>
<rscale>  0 0.26706012E+04</rscale>
<asrwt>0</asrwt>
<pdfrwt beam="1">  1        1 0.15148439E+00 0.26706012E+04</pdfrwt>
<pdfrwt beam="2">  1       -1 0.27858869E+00 0.26706012E+04</pdfrwt>
<totfact> 0.61895584E-01</totfact>
</mgrwt>
</event>
<event>
 6    1  0.9364335E-007  0.1743571E+04  0.7818608E-02  0.8736897E-01
         -1   -1    0    0    0  501 -0.00000000000E+00  0.00000000000E+00  0.21875995213E+03  0.21875995213E+03  0.00000000000E+00 0.  1.
          1   -1    0    0  501    0  0.00000000000E+00 -0.00000000000E+00 -0.34741725686E+04  0.34741725686E+04  0.00000000000E+00 0. -1.
         23    2    1    2    0    0 -0.79844144578E+03  0.23190366474E+03 -0.10937798245E+04  0.13769134407E+04  0.90819967392E+02 0.  0.
         13    1    3    3    0    0 -0.26742807716E+03  0.81685915438E+02 -0.44033267685E+03  0.52161598091E+03  0.00000000000E+00 0. -1.
        -13    1    3    3    0    0 -0.53101336862E+03  0.15021774930E+03 -0.65344714766E+03  0.85529745974E+03  0.00000000000E+00 0.  1.
         22    1    1    2    0    0  0.79844144578E+03 -0.23190366474E+03 -0.21616327920E+04  0.23160190801E+04  0.00000000000E+00 0. -1.
<mgrwt>
<rscale>  0 0.17435708E+04</rscale>
<asrwt>0</asrwt>
<pdfrwt beam="1">  1        1 0.53448805E+00 0.17435708E+04</pdfrwt>
<pdfrwt beam="2">  1       -1 0.33655380E-01 0.17435708E+04</pdfrwt>
<totfact> 0.20814362E+00</totfact>
</mgrwt>
</event>
<event>
 6    1  0.9364335E-007  0.1486958E+04  0.7818608E-02  0.8893172E-01
          2   -1    0    0  501    0  0.00000000000E+00  0.00000000000E+00  0.26804483848E+04  0.26804483848E+04  0.00000000000E+00 0. -1.
         -2   -1    0    0    0  501 -0.00000000000E+00 -0.00000000000E+00 -0.20621968352E+03  0.20621968352E+03  0.00000000000E+00 0.  1.
         23    2    1    2    0    0  0.20091244642E+02 -0.42724813271E+03  0.24157400894E+04  0.24549673123E+04  0.90109378875E+02 0.  0.
         13    1    3    3    0    0 -0.20091010453E+02 -0.33831795481E+03  0.18198325635E+04  0.18511221587E+04  0.00000000000E+00 0.  1.
        -13    1    3    3    0    0  0.40182255095E+02 -0.88930177901E+02  0.59590752586E+03  0.60384515361E+03  0.00000000000E+00 0. -1.
         22    1    1    2    0    0 -0.20091244642E+02  0.42724813271E+03  0.58488611919E+02  0.43170075601E+03  0.00000000000E+00 0.  1.
<mgrwt>
<rscale>  0 0.14869583E+04</rscale>
<asrwt>0</asrwt>
<pdfrwt beam="1">  1        2 0.41237665E+00 0.14869583E+04</pdfrwt>
<pdfrwt beam="2">  1       -2 0.31726107E-01 0.14869583E+04</pdfrwt>
<totfact> 0.24461022E+01</totfact>
</mgrwt>
</event>
<event>
 6    1  0.9364335E-007  0.3065613E+04  0.7818608E-02  0.8225239E-01
         -1   -1    0    0    0  501 -0.00000000000E+00  0.00000000000E+00  0.81327277612E+03  0.81327277612E+03  0.00000000000E+00 0.  1.
          1   -1    0    0  501    0  0.00000000000E+00 -0.00000000000E+00 -0.28889392279E+04  0.28889392279E+04  0.00000000000E+00 0. -1.
         23    2    1    2    0    0 -0.92928963126E+03 -0.11449367572E+04 -0.15380248265E+04  0.21326522206E+04  0.90695811435E+02 0.  0.
         11    1    3    3    0    0 -0.43144871752E+03 -0.52192578724E+03 -0.77114919813E+03  0.10262678057E+04  0.00000000000E+00 0. -1.
        -11    1    3    3    0    0 -0.49784091374E+03 -0.62301096992E+03 -0.76687562838E+03  0.11063844149E+04  0.00000000000E+00 0.  1.
         22    1    1    2    0    0  0.92928963126E+03  0.11449367572E+04 -0.53764162528E+03  0.15695597835E+04  0.00000000000E+00 0.  1.
<mgrwt>
<rscale>  0 0.30656129E+04</rscale>
<asrwt>0</asrwt>
<pdfrwt beam="1">  1        1 0.44445219E+00 0.30656129E+04</pdfrwt>
<pdfrwt beam="2">  1       -1 0.12511889E+00 0.30656129E+04</pdfrwt>
<totfact> 0.33975608E-01</totfact>
</mgrwt>
</event>
<event>
 6    1  0.9364335E-007  0.3397294E+04  0.7818608E-02  0.8138571E-01
         -2   -1    0    0    0  501 -0.00000000000E+00  0.00000000000E+00  0.75075516199E+03  0.75075516199E+03  0.00000000000E+00 0.  1.
          2   -1    0    0  501    0  0.00000000000E+00 -0.00000000000E+00 -0.38433316962E+04  0.38433316962E+04  0.00000000000E+00 0. -1.
         23    2    1    2    0    0  0.29968221889E+03  0.14598362340E+04 -0.44860184852E+03  0.15590360512E+04  0.91752536704E+02 0.  0.
         11    1    3    3    0    0  0.13740005502E+03  0.55663174885E+03 -0.13248876157E+03  0.58844791688E+03  0.00000000000E+00 0.  1.
        -11    1    3    3    0    0  0.16228216387E+03  0.90320448517E+03 -0.31611308694E+03  0.97058813432E+03  0.00000000000E+00 0. -1.
         22    1    1    2    0    0 -0.29968221889E+03 -0.14598362340E+04 -0.26439746857E+04  0.30350508070E+04  0.00000000000E+00 0. -1.
<mgrwt>
<rscale>  0 0.33972937E+04</rscale>
<asrwt>0</asrwt>
<pdfrwt beam="1">  1        2 0.59128181E+00 0.33972937E+04</pdfrwt>
<pdfrwt beam="2">  1       -2 0.11550079E+00 0.33972937E+04</pdfrwt>
<totfact> 0.21949167E-01</totfact>
</mgrwt>
</event>
<event>
 6    1  0.9364335E-007  0.1629428E+04  0.7818608E-02  0.8802671E-01
         -1   -1    0    0    0  501 -0.00000000000E+00  0.00000000000E+00  0.10882857653E+04  0.10882857653E+04  0.00000000000E+00 0.  1.
          1   -1    0    0  501    0  0.00000000000E+00 -0.00000000000E+00 -0.60991226407E+03  0.60991226407E+03  0.00000000000E+00 0. -1.
         23    2    1    2    0    0  0.35378522918E+03 -0.60099776720E+03 -0.19391067639E+03  0.72952454464E+03  0.90787698786E+02 0.  0.
         11    1    3    3    0    0  0.15179374673E+03 -0.19036444342E+03 -0.40176180954E+02  0.24676727575E+03  0.00000000000E+00 0. -1.
        -11    1    3    3    0    0  0.20199148245E+03 -0.41063332377E+03 -0.15373449544E+03  0.48275726889E+03  0.00000000000E+00 0.  1.
         22    1    1    2    0    0 -0.35378522918E+03  0.60099776720E+03  0.67228417767E+03  0.96867348478E+03  0.00000000000E+00 0.  1.
<mgrwt>
<rscale>  0 0.16294279E+04</rscale>
<asrwt>0</asrwt>
<pdfrwt beam="1">  1        1 0.93832656E-01 0.16294279E+04</pdfrwt>
<pdfrwt beam="2">  1       -1 0.16742858E+00 0.16294279E+04</pdfrwt>
<totfact> 0.82287405E+00</totfact>
</mgrwt>
</event>
<event>
 6    1  0.9364335E-007  0.2337685E+04  0.7818608E-02  0.8463209E-01
          2   -1    0    0  501    0  0.00000000000E+00  0.00000000000E+00  0.14852463670E+04  0.14852463670E+04  0.00000000000E+00 0. -1.
         -2   -1    0    0    0  501 -0.00000000000E+00 -0.00000000000E+00 -0.91984242902E+03  0.91984242902E+03  0.00000000000E+00 0.  1.
         23    2    1    2    0    0  0.20615777507E+03  0.87580320434E+03  0.10475812647E+04  0.13842914334E+04  0.96457169045E+02 0.  0.
         13    1    3    3    0    0  0.42384403955E+02  0.36569023307E+03  0.39491832055E+03  0.53989467877E+03  0.00000000000E+00 0. -1.
        -13    1    3    3    0    0  0.16377337112E+03  0.51011297127E+03  0.65266294420E+03  0.84439675466E+03  0.00000000000E+00 0.  1.
         22    1    1    2    0    0 -0.20615777507E+03 -0.87580320434E+03 -0.48217732679E+03  0.10207973626E+04  0.00000000000E+00 0.  1.
<mgrwt>
<rscale>  0 0.23376849E+04</rscale>
<asrwt>0</asrwt>
<pdfrwt beam="1">  1        2 0.22849944E+00 0.23376849E+04</pdfrwt>
<pdfrwt beam="2">  1       -2 0.14151422E+00 0.23376849E+04</pdfrwt>
<totfact> 0.40852463E+00</totfact>
</mgrwt>
</event>
<event>
 6    1  0.9364335E-007  0.7096054E+04  0.7818608E-02  0.7567610E-01
         -2   -1    0    0    0  501 -0.00000000000E+00  0.00000000000E+00  0.44832117964E+04  0.44832117964E+04  0.00000000000E+00 0.  1.
          2   -1    0    0  501    0  0.00000000000E+00 -0.00000000000E+00 -0.28079188762E+04  0.28079188762E+04  0.00000000000E+00 0. -1.
         23    2    1    2    0    0  0.16121625711E+04  0.30283291687E+04 -0.89530841330E+02  0.34330937860E+04  0.90947579582E+02 0.  0.
         13    1    3    3    0    0  0.50232572198E+03  0.10348322022E+04 -0.32081153401E+02  0.11507554119E+04  0.00000000000E+00 0.  1.
        -13    1    3    3    0    0  0.11098368491E+04  0.19934969665E+04 -0.57449687929E+02  0.22823383741E+04  0.00000000000E+00 0. -1.
         22    1    1    2    0    0 -0.16121625711E+04 -0.30283291687E+04  0.17648237615E+04  0.38580368867E+04  0.00000000000E+00 0.  1.
<mgrwt>
<rscale>  0 0.70960538E+04</rscale>
<asrwt>0</asrwt>
<pdfrwt beam="1">  1        2 0.43198752E+00 0.70960538E+04</pdfrwt>
<pdfrwt beam="2">  1       -2 0.68972489E+00 0.70960538E+04</pdfrwt>
<totfact> 0.35971196E-04</totfact>
</mgrwt>
</event>
<event>
 6    1  0.9364335E-007  0.1316566E+04  0.7818608E-02  0.9016530E-01
          2   -1    0    0  501    0  0.00000000000E+00  0.00000000000E+00  0.17879594330E+04  0.17879594330E+04  0.00000000000E+00 0. -1.
         -2   -1    0    0    0  501 -0.00000000000E+00 -0.00000000000E+00 -0.24236390096E+03  0.24236390096E+03  0.00000000000E+00 0.  1.
         23    2    1    2    0    0  0.18840866510E+03  0.25879819250E+03  0.16579491318E+04  0.16910628722E+04  0.91782267787E+02 0.  0.
         11    1    3    3    0    0  0.16083955112E+03  0.15171918160E+03  0.11744106229E+04  0.11950432555E+04  0.00000000000E+00 0. -1.
        -11    1    3    3    0    0  0.27569113977E+02  0.10707901090E+03  0.48353850887E+03  0.49601961673E+03  0.00000000000E+00 0.  1.
         22    1    1    2    0    0 -0.18840866510E+03 -0.25879819250E+03 -0.11235359974E+03  0.33926046174E+03  0.00000000000E+00 0.  1.
<mgrwt>
<rscale>  0 0.13165665E+04</rscale>
<asrwt>0</asrwt>
<pdfrwt beam="1">  1        2 0.27507067E+00 0.13165665E+04</pdfrwt>
<pdfrwt beam="2">  1       -2 0.37286755E-01 0.13165665E+04</pdfrwt>
<totfact> 0.58183602E+01</totfact>
</mgrwt>
</event>
<event>
 6    1  0.9364335E-007  0.1584310E+04  0.7818608E-02  0.8830246E-01
          4   -1    0    0  501    0  0.00000000000E+00  0.00000000000E+00  0.13178215874E+04  0.13178215874E+04  0.00000000000E+00 0. -1.
         -4   -1    0    0    0  501 -0.00000000000E+00 -0.00000000000E+00 -0.47617162583E+03  0.47617162583E+03  0.00000000000E+00 0.  1.
         23    2    1    2    0    0 -0.22816629717E+03  0.58453913267E+03 -0.11992066677E+03  0.64579291273E+03  0.94454555354E+02 0.  0.
         11    1    3    3    0    0 -0.11906518892E+03  0.20955763287E+03 -0.15373014268E+02  0.24151035232E+03  0.00000000000E+00 0.  1.
        -11    1    3    3    0    0 -0.10910110825E+03  0.37498149980E+03 -0.10454765250E+03  0.40428256041E+03  0.00000000000E+00 0. -1.
         22    1    1    2    0    0  0.22816629717E+03 -0.58453913267E+03  0.96157062832E+03  0.11482003005E+04  0.00000000000E+00 0. -1.
<mgrwt>
<rscale>  0 0.15843096E+04</rscale>
<asrwt>0</asrwt>
<pdfrwt beam="1">  1        4 0.20274178E+00 0.15843096E+04</pdfrwt>
<pdfrwt beam="2">  1       -4 0.73257174E-01 0.15843096E+04</pdfrwt>
<totfact> 0.41020437E-01</totfact>
</mgrwt>
</event>
<event>
 6    1  0.9364335E-007  0.2181433E+04  0.7818608E-02  0.8526196E-01
          1   -1    0    0  501    0  0.00000000000E+00  0.00000000000E+00  0.14172844716E+04  0.14172844716E+04  0.00000000000E+00 0. -1.
         -1   -1    0    0    0  501 -0.00000000000E+00 -0.00000000000E+00 -0.83939573856E+03  0.83939573856E+03  0.00000000000E+00 0.  1.
         23    2    1    2    0    0 -0.22626696102E+03 -0.87780322503E+03 -0.33397425247E+03  0.97090054636E+03  0.96818542090E+02 0.  0.
         13    1    3    3    0    0 -0.11021011684E+03 -0.31674198968E+03 -0.83519562959E+02  0.34561145131E+03  0.00000000000E+00 0.  1.
        -13    1    3    3    0    0 -0.11605684419E+03 -0.56106123535E+03 -0.25045468951E+03  0.62528909505E+03  0.00000000000E+00 0. -1.
         22    1    1    2    0    0  0.22626696102E+03  0.87780322503E+03  0.91186298555E+03  0.12857796638E+04  0.00000000000E+00 0. -1.
<mgrwt>
<rscale>  0 0.21814331E+04</rscale>
<asrwt>0</asrwt>
<pdfrwt beam="1">  1        1 0.21804376E+00 0.21814331E+04</pdfrwt>
<pdfrwt beam="2">  1       -1 0.12913781E+00 0.21814331E+04</pdfrwt>
<totfact> 0.35188151E+00</totfact>
</mgrwt>
</event>
<event>
 6    1  0.9364335E-007  0.5091249E+04  0.7818608E-02  0.7814583E-01
          1   -1    0    0  501    0  0.00000000000E+00  0.00000000000E+00  0.33692265739E+04  0.33692265739E+04  0.00000000000E+00 0. -1.
         -1   -1    0    0    0  501 -0.00000000000E+00 -0.00000000000E+00 -0.19233509930E+04  0.19233509930E+04  0.00000000000E+00 0.  1.
         23    2    1    2    0    0 -0.11489602953E+04 -0.22409605037E+04  0.11024154599E+04  0.27509287725E+04  0.10136826911E+03 0.  0.
         13    1    3    3    0    0 -0.35319207701E+03 -0.77154899262E+03  0.40361663237E+03  0.93964827313E+03  0.00000000000E+00 0.  1.
        -13    1    3    3    0    0 -0.79576821832E+03 -0.14694115110E+04  0.69879882757E+03  0.18112804994E+04  0.00000000000E+00 0. -1.
         22    1    1    2    0    0  0.11489602953E+04  0.22409605037E+04  0.34346012092E+03  0.25416487944E+04  0.00000000000E+00 0. -1.
<mgrwt>
<rscale>  0 0.50912495E+04</rscale>
<asrwt>0</asrwt>
<pdfrwt beam="1">  1        1 0.51834255E+00 0.50912495E+04</pdfrwt>
<pdfrwt beam="2">  1       -1 0.29590015E+00 0.50912495E+04</pdfrwt>
<totfact> 0.79475122E-03</totfact>
</mgrwt>
</event>
<event>
 6    1  0.9364335E-007  0.1839852E+04  0.7818608E-02  0.8685389E-01
          1   -1    0    0  501    0  0.00000000000E+00  0.00000000000E+00  0.15646717338E+04  0.15646717338E+04  0.00000000000E+00 0. -1.
         -1   -1    0    0    0  501 -0.00000000000E+00 -0.00000000000E+00 -0.54085732874E+03  0.54085732874E+03  0.00000000000E+00 0.  1.
         23    2    1    2    0    0  0.81383089381E+03  0.97907788818E+02  0.41057450008E+02  0.82579553889E+03  0.91355892058E+02 0.  0.
         11    1    3    3    0    0  0.61413982902E+03  0.91666118132E+02  0.66065811826E+02  0.62444783472E+03  0.00000000000E+00 0.  1.
        -11    1    3    3    0    0  0.19969106480E+03  0.62416706860E+01 -0.25008361819E+02  0.20134770417E+03  0.00000000000E+00 0. -1.
         22    1    1    2    0    0 -0.81383089381E+03 -0.97907788818E+02  0.98275695500E+03  0.12797335236E+04  0.00000000000E+00 0. -1.
<mgrwt>
<rscale>  0 0.18398524E+04</rscale>
<asrwt>0</asrwt>
<pdfrwt beam="1">  1        1 0.24071873E+00 0.18398524E+04</pdfrwt>
<pdfrwt beam="2">  1       -1 0.83208820E-01 0.18398524E+04</pdfrwt>
<totfact> 0.79561454E+00</totfact>
</mgrwt>
</event>
<event>
 6    1  0.9404498E-007  0.3391815E+04  0.7818608E-02  0.8139918E-01
          2   -1    0    0  501    0  0.00000000000E+00  0.00000000000E+00  0.24097617519E+04  0.24097617519E+04  0.00000000000E+00 0. -1.
         -2   -1    0    0    0  501 -0.00000000000E+00 -0.00000000000E+00 -0.11935216470E+04  0.11935216470E+04  0.00000000000E+00 0.  1.
         23    2    1    2    0    0  0.75408911551E+03 -0.13374154020E+04  0.13708673958E+04  0.20601567188E+04  0.87395295614E+02 0.  0.
         13    1    3    3    0    0  0.21020138866E+03 -0.44867837766E+03  0.46430323905E+03  0.67902460056E+03  0.00000000000E+00 0. -1.
        -13    1    3    3    0    0  0.54388772685E+03 -0.88873702434E+03  0.90656415674E+03  0.13811321183E+04  0.00000000000E+00 0.  1.
         22    1    1    2    0    0 -0.75408911551E+03  0.13374154020E+04 -0.15462729094E+03  0.15431266801E+04  0.00000000000E+00 0.  1.
<mgrwt>
<rscale>  0 0.33918153E+04</rscale>
<asrwt>0</asrwt>
<pdfrwt beam="1">  1        2 0.37073258E+00 0.33918153E+04</pdfrwt>
<pdfrwt beam="2">  1       -2 0.18361871E+00 0.33918153E+04</pdfrwt>
<totfact> 0.55703345E-01</totfact>
</mgrwt>
</event>
<event>
 6    1  0.9364335E-007  0.1131275E+04  0.7818608E-02  0.9175234E-01
          2   -1    0    0  501    0  0.00000000000E+00  0.00000000000E+00  0.14808642440E+04  0.14808642440E+04  0.00000000000E+00 0. -1.
         -2   -1    0    0    0  501 -0.00000000000E+00 -0.00000000000E+00 -0.21605325564E+03  0.21605325564E+03  0.00000000000E+00 0.  1.
         23    2    1    2    0    0  0.42959543223E+02 -0.90174372825E+01  0.14764709983E+04  0.14807536814E+04  0.10362441571E+03 0.  0.
         13    1    3    3    0    0  0.37174841072E+02 -0.46916933591E+02  0.50643624832E+03  0.50996160745E+03  0.00000000000E+00 0.  1.
        -13    1    3    3    0    0  0.57847021513E+01  0.37899496309E+02  0.97003474997E+03  0.97079207391E+03  0.00000000000E+00 0. -1.
         22    1    1    2    0    0 -0.42959543223E+02  0.90174372825E+01 -0.21166000993E+03  0.21616381828E+03  0.00000000000E+00 0.  1.
<mgrwt>
<rscale>  0 0.11312746E+04</rscale>
<asrwt>0</asrwt>
<pdfrwt beam="1">  1        2 0.22782526E+00 0.11312746E+04</pdfrwt>
<pdfrwt beam="2">  1       -2 0.33238963E-01 0.11312746E+04</pdfrwt>
<totfact> 0.10894806E+02</totfact>
</mgrwt>
</event>
<event>
 6    1  0.9364335E-007  0.1497577E+04  0.7818608E-02  0.8886066E-01
         -1   -1    0    0    0  501 -0.00000000000E+00  0.00000000000E+00  0.63256964183E+03  0.63256964183E+03  0.00000000000E+00 0.  1.
          1   -1    0    0  501    0  0.00000000000E+00 -0.00000000000E+00 -0.88635998165E+03  0.88635998165E+03  0.00000000000E+00 0. -1.
         23    2    1    2    0    0  0.61657032824E+03  0.13484236213E+03 -0.53054521403E+03  0.82977456640E+03  0.93306884140E+02 0.  0.
         13    1    3    3    0    0  0.34194707473E+03  0.10571278149E+03 -0.34462096461E+03  0.49685672315E+03  0.00000000000E+00 0.  1.
        -13    1    3    3    0    0  0.27462325350E+03  0.29129580640E+02 -0.18592424942E+03  0.33291784325E+03  0.00000000000E+00 0. -1.
         22    1    1    2    0    0 -0.61657032824E+03 -0.13484236213E+03  0.27675487422E+03  0.68915505707E+03  0.00000000000E+00 0.  1.
<mgrwt>
<rscale>  0 0.14975773E+04</rscale>
<asrwt>0</asrwt>
<pdfrwt beam="1">  1        1 0.13636307E+00 0.14975773E+04</pdfrwt>
<pdfrwt beam="2">  1       -1 0.97318407E-01 0.14975773E+04</pdfrwt>
<totfact> 0.18327019E+01</totfact>
</mgrwt>
</event>
<event>
 6    1  0.9364335E-007  0.1174717E+04  0.7818608E-02  0.9135279E-01
          2   -1    0    0  501    0  0.00000000000E+00  0.00000000000E+00  0.22326077895E+04  0.22326077895E+04  0.00000000000E+00 0. -1.
         -2   -1    0    0    0  501 -0.00000000000E+00 -0.00000000000E+00 -0.15452339978E+03  0.15452339978E+03  0.00000000000E+00 0.  1.
         23    2    1    2    0    0  0.49675588665E+03  0.19431748233E+03  0.56392669243E+03  0.78176542812E+03  0.92834127895E+02 0.  0.
         11    1    3    3    0    0  0.11185555805E+03  0.43521446074E+01  0.12664622905E+03  0.16902625347E+03  0.00000000000E+00 0.  1.
        -11    1    3    3    0    0  0.38490032859E+03  0.18996533773E+03  0.43728046339E+03  0.61273917465E+03  0.00000000000E+00 0. -1.
         22    1    1    2    0    0 -0.49675588665E+03 -0.19431748233E+03  0.15141576973E+04  0.16053657611E+04  0.00000000000E+00 0.  1.
<mgrwt>
<rscale>  0 0.11747172E+04</rscale>
<asrwt>0</asrwt>
<pdfrwt beam="1">  1        2 0.34347810E+00 0.11747172E+04</pdfrwt>
<pdfrwt beam="2">  1       -2 0.23772832E-01 0.11747172E+04</pdfrwt>
<totfact> 0.77152770E+01</totfact>
</mgrwt>
</event>
<event>
 6    1  0.9364335E-007  0.2657724E+04  0.7818608E-02  0.8348854E-01
         -4   -1    0    0    0  501 -0.00000000000E+00  0.00000000000E+00  0.10771081095E+04  0.10771081095E+04  0.00000000000E+00 0.  1.
          4   -1    0    0  501    0  0.00000000000E+00 -0.00000000000E+00 -0.16394591858E+04  0.16394591858E+04  0.00000000000E+00 0. -1.
         23    2    1    2    0    0 -0.11826908101E+04 -0.60238887871E+03 -0.29419110494E+03  0.13624846967E+04  0.90477782115E+02 0.  0.
         13    1    3    3    0    0 -0.69106084823E+02 -0.51729637474E+02 -0.36620066621E+02  0.93769054768E+02  0.00000000000E+00 0.  1.
        -13    1    3    3    0    0 -0.11135847253E+04 -0.55065924124E+03 -0.25757103831E+03  0.12687156420E+04  0.00000000000E+00 0. -1.
         22    1    1    2    0    0  0.11826908101E+04  0.60238887871E+03 -0.26815997135E+03  0.13540825986E+04  0.00000000000E+00 0.  1.
<mgrwt>
<rscale>  0 0.26577244E+04</rscale>
<asrwt>0</asrwt>
<pdfrwt beam="1">  1        4 0.25222449E+00 0.26577244E+04</pdfrwt>
<pdfrwt beam="2">  1       -4 0.16570894E+00 0.26577244E+04</pdfrwt>
<totfact> 0.24363973E-02</totfact>
</mgrwt>
</event>
<event>
 6    1  0.9364335E-007  0.3437965E+04  0.7818608E-02  0.8128651E-01
          2   -1    0    0  501    0  0.00000000000E+00  0.00000000000E+00  0.24522429540E+04  0.24522429540E+04  0.00000000000E+00 0. -1.
         -2   -1    0    0    0  501 -0.00000000000E+00 -0.00000000000E+00 -0.12049784923E+04  0.12049784923E+04  0.00000000000E+00 0.  1.
         23    2    1    2    0    0  0.18629257392E+03 -0.10831195484E+04  0.20284352134E+04  0.23088592463E+04  0.91808088008E+02 0.  0.
         13    1    3    3    0    0  0.10314065546E+03 -0.70622400217E+03  0.13983652916E+04  0.15699731924E+04  0.00000000000E+00 0.  1.
        -13    1    3    3    0    0  0.83151918461E+02 -0.37689554623E+03  0.63006992183E+03  0.73888605394E+03  0.00000000000E+00 0. -1.
         22    1    1    2    0    0 -0.18629257392E+03  0.10831195484E+04 -0.78117075170E+03  0.13483622001E+04  0.00000000000E+00 0.  1.
<mgrwt>
<rscale>  0 0.34379645E+04</rscale>
<asrwt>0</asrwt>
<pdfrwt beam="1">  1        2 0.37726815E+00 0.34379645E+04</pdfrwt>
<pdfrwt beam="2">  1       -2 0.18538131E+00 0.34379645E+04</pdfrwt>
<totfact> 0.51023627E-01</totfact>
</mgrwt>
</event>
<event>
 6    1  0.9364335E-007  0.2355881E+04  0.7818608E-02  0.8456208E-01
         -1   -1    0    0    0  501 -0.00000000000E+00  0.00000000000E+00  0.20645977540E+04  0.20645977540E+04  0.00000000000E+00 0.  1.
          1   -1    0    0  501    0  0.00000000000E+00 -0.00000000000E+00 -0.67206492579E+03  0.67206492579E+03  0.00000000000E+00 0. -1.
         23    2    1    2    0    0  0.65267892728E+03  0.59465333783E+03  0.16000555727E+04  0.18296521706E+04  0.88582478835E+02 0.  0.
         13    1    3    3    0    0  0.15728826060E+03  0.15231361652E+03  0.47840218817E+03  0.52612516415E+03  0.00000000000E+00 0.  1.
        -13    1    3    3    0    0  0.49539066667E+03  0.44233972132E+03  0.11216533845E+04  0.13035270065E+04  0.00000000000E+00 0. -1.
         22    1    1    2    0    0 -0.65267892728E+03 -0.59465333783E+03 -0.20752274444E+03  0.90701050918E+03  0.00000000000E+00 0. -1.
<mgrwt>
<rscale>  0 0.23558809E+04</rscale>
<asrwt>0</asrwt>
<pdfrwt beam="1">  1        1 0.10339460E+00 0.23558809E+04</pdfrwt>
<pdfrwt beam="2">  1       -1 0.31763042E+00 0.23558809E+04</pdfrwt>
<totfact> 0.66127582E-01</totfact>
</mgrwt>
</event>
<event>
 6    1  0.9364335E-007  0.1916736E+04  0.7818608E-02  0.8646571E-01
          2   -1    0    0  501    0  0.00000000000E+00  0.00000000000E+00  0.27092606235E+03  0.27092606235E+03  0.00000000000E+00 0. -1.
         -2   -1    0    0    0  501 -0.00000000000E+00 -0.00000000000E+00 -0.33901086785E+04  0.33901086785E+04  0.00000000000E+00 0.  1.
         23    2    1    2    0    0 -0.69382415200E+03 -0.55922700238E+03 -0.90097661309E+03  0.12705191759E+04  0.91287047280E+02 0.  0.
         11    1    3    3    0    0 -0.16728211584E+03 -0.16766429699E+03 -0.19606075684E+03  0.30746453964E+03  0.00000000000E+00 0. -1.
        -11    1    3    3    0    0 -0.52654203616E+03 -0.39156270538E+03 -0.70491585625E+03  0.96305463629E+03  0.00000000000E+00 0.  1.
         22    1    1    2    0    0  0.69382415200E+03  0.55922700238E+03 -0.22182060030E+04  0.23905155649E+04  0.00000000000E+00 0.  1.
<mgrwt>
<rscale>  0 0.19167356E+04</rscale>
<asrwt>0</asrwt>
<pdfrwt beam="1">  1        2 0.41680932E-01 0.19167356E+04</pdfrwt>
<pdfrwt beam="2">  1       -2 0.52155519E+00 0.19167356E+04</pdfrwt>
<totfact> 0.13984264E-01</totfact>
</mgrwt>
</event>
<event>
 6    1  0.9364335E-007  0.7241295E+04  0.7818608E-02  0.7553050E-01
         -2   -1    0    0    0  501 -0.00000000000E+00  0.00000000000E+00  0.28676848802E+04  0.28676848802E+04  0.00000000000E+00 0.  1.
          2   -1    0    0  501    0  0.00000000000E+00 -0.00000000000E+00 -0.45713138133E+04  0.45713138133E+04  0.00000000000E+00 0. -1.
         23    2    1    2    0    0 -0.20003318779E+04 -0.34994532283E+03  0.22269363444E+04  0.30148453562E+04  0.79105557447E+02 0.  0.
         11    1    3    3    0    0 -0.12722671971E+04 -0.20761919690E+03  0.14652241680E+04  0.19515766483E+04  0.00000000000E+00 0.  1.
        -11    1    3    3    0    0 -0.72806468083E+03 -0.14232612592E+03  0.76171217638E+03  0.10632687079E+04  0.00000000000E+00 0. -1.
         22    1    1    2    0    0  0.20003318779E+04  0.34994532283E+03 -0.39305652775E+04  0.44241533373E+04  0.00000000000E+00 0. -1.
<mgrwt>
<rscale>  0 0.72412948E+04</rscale>
<asrwt>0</asrwt>
<pdfrwt beam="1">  1        2 0.70327905E+00 0.72412948E+04</pdfrwt>
<pdfrwt beam="2">  1       -2 0.44118229E+00 0.72412948E+04</pdfrwt>
<totfact> 0.25174807E-04</totfact>
</mgrwt>
</event>
<event>
 6    1  0.9364335E-007  0.5499373E+04  0.7818608E-02  0.7755775E-01
          1   -1    0    0  501    0  0.00000000000E+00  0.00000000000E+00  0.40646874962E+04  0.40646874962E+04  0.00000000000E+00 0. -1.
         -1   -1    0    0    0  501 -0.00000000000E+00 -0.00000000000E+00 -0.18601123298E+04  0.18601123298E+04  0.00000000000E+00 0.  1.
         23    2    1    2    0    0 -0.80783169932E+03 -0.22838511133E+04  0.25024627541E+04  0.34840407275E+04  0.87475669644E+02 0.  0.
         13    1    3    3    0    0 -0.46775631862E+03 -0.13079186477E+04  0.13728467478E+04  0.19529862661E+04  0.00000000000E+00 0. -1.
        -13    1    3    3    0    0 -0.34007538070E+03 -0.97593246561E+03  0.11296160063E+04  0.15310544614E+04  0.00000000000E+00 0.  1.
         22    1    1    2    0    0  0.80783169932E+03  0.22838511133E+04 -0.29788758758E+03  0.24407590985E+04  0.00000000000E+00 0.  1.
<mgrwt>
<rscale>  0 0.54993728E+04</rscale>
<asrwt>0</asrwt>
<pdfrwt beam="1">  1        1 0.62533653E+00 0.54993728E+04</pdfrwt>
<pdfrwt beam="2">  1       -1 0.28617113E+00 0.54993728E+04</pdfrwt>
<totfact> 0.23592965E-03</totfact>
</mgrwt>
</event>
<event>
 6    1  0.9364335E-007  0.4818132E+03  0.7818608E-02  0.1018638E+00
         -2   -1    0    0    0  501 -0.00000000000E+00  0.00000000000E+00  0.62795527242E+02  0.62795527242E+02  0.00000000000E+00 0.  1.
          2   -1    0    0  501    0  0.00000000000E+00 -0.00000000000E+00 -0.92420596921E+03  0.92420596921E+03  0.00000000000E+00 0. -1.
         23    2    1    2    0    0  0.11449803841E+03 -0.22326873923E+02 -0.85757705372E+03  0.87028395294E+03  0.91364465585E+02 0.  0.
         11    1    3    3    0    0  0.33146248565E+02 -0.40861432043E+02 -0.51550927164E+03  0.51818735952E+03  0.00000000000E+00 0. -1.
        -11    1    3    3    0    0  0.81351789847E+02  0.18534558120E+02 -0.34206778208E+03  0.35209659342E+03  0.00000000000E+00 0.  1.
         22    1    1    2    0    0 -0.11449803841E+03  0.22326873923E+02 -0.38333882506E+01  0.11671754352E+03  0.00000000000E+00 0.  1.
<mgrwt>
<rscale>  0 0.48181325E+03</rscale>
<asrwt>0</asrwt>
<pdfrwt beam="1">  1        2 0.14218553E+00 0.48181325E+03</pdfrwt>
<pdfrwt beam="2">  1       -2 0.96608504E-02 0.48181325E+03</pdfrwt>
<totfact> 0.20581202E+03</totfact>
</mgrwt>
</event>
<event>
 6    1  0.9364335E-007  0.6210122E+03  0.7818608E-02  0.9862746E-01
         -2   -1    0    0    0  501 -0.00000000000E+00  0.00000000000E+00  0.88627706358E+03  0.88627706358E+03  0.00000000000E+00 0.  1.
          2   -1    0    0  501    0  0.00000000000E+00 -0.00000000000E+00 -0.10878544669E+03  0.10878544669E+03  0.00000000000E+00 0. -1.
         23    2    1    2    0    0  0.23817191014E+03 -0.48109323297E+02  0.68894093602E+03  0.73644776040E+03  0.93141423145E+02 0.  0.
         13    1    3    3    0    0  0.14023735740E+03 -0.73950331924E+02  0.43993609170E+03  0.46763119313E+03  0.00000000000E+00 0. -1.
        -13    1    3    3    0    0  0.97934552732E+02  0.25841008627E+02  0.24900484432E+03  0.26881656727E+03  0.00000000000E+00 0.  1.
         22    1    1    2    0    0 -0.23817191014E+03  0.48109323297E+02  0.88550680868E+02  0.25861474987E+03  0.00000000000E+00 0. -1.
<mgrwt>
<rscale>  0 0.62101223E+03</rscale>
<asrwt>0</asrwt>
<pdfrwt beam="1">  1        2 0.16736223E-01 0.62101223E+03</pdfrwt>
<pdfrwt beam="2">  1       -2 0.13635031E+00 0.62101223E+03</pdfrwt>
<totfact> 0.13704565E+02</totfact>
</mgrwt>
</event>
<event>
 6    1  0.9364335E-007  0.2769103E+04  0.7818608E-02  0.8312925E-01
         -2   -1    0    0    0  501 -0.00000000000E+00  0.00000000000E+00  0.14737854444E+04  0.14737854444E+04  0.00000000000E+00 0.  1.
          2   -1    0    0  501    0  0.00000000000E+00 -0.00000000000E+00 -0.13007205005E+04  0.13007205005E+04  0.00000000000E+00 0. -1.
         23    2    1    2    0    0  0.49052051156E+03 -0.83131335529E+02  0.13794815428E+04  0.14695300059E+04  0.95015366661E+02 0.  0.
         13    1    3    3    0    0  0.21754261321E+03 -0.68828616067E+02  0.52641702830E+03  0.57373953554E+03  0.00000000000E+00 0. -1.
        -13    1    3    3    0    0  0.27297789835E+03 -0.14302719462E+02  0.85306451454E+03  0.89579047034E+03  0.00000000000E+00 0.  1.
         22    1    1    2    0    0 -0.49052051156E+03  0.83131335529E+02 -0.12064165990E+04  0.13049759391E+04  0.00000000000E+00 0. -1.
<mgrwt>
<rscale>  0 0.27691031E+04</rscale>
<asrwt>0</asrwt>
<pdfrwt beam="1">  1        2 0.20011085E+00 0.27691031E+04</pdfrwt>
<pdfrwt beam="2">  1       -2 0.22673622E+00 0.27691031E+04</pdfrwt>
<totfact> 0.12912611E+00</totfact>
</mgrwt>
</event>
<event>
 6    1  0.9364335E-007  0.8605872E+03  0.7818608E-02  0.9476236E-01
          2   -1    0    0  501    0  0.00000000000E+00  0.00000000000E+00  0.37679577285E+04  0.37679577285E+04  0.00000000000E+00 0. -1.
         -2   -1    0    0    0  501 -0.00000000000E+00 -0.00000000000E+00 -0.49138713426E+02  0.49138713426E+02  0.00000000000E+00 0.  1.
         23    2    1    2    0    0  0.28577711648E+03 -0.47783299179E+02  0.32621652776E+04  0.32762781361E+04  0.91237725352E+02 0.  0.
         11    1    3    3    0    0  0.31536092695E+02 -0.36212550307E+02  0.63563713389E+03  0.63744838217E+03  0.00000000000E+00 0. -1.
        -11    1    3    3    0    0  0.25424102379E+03 -0.11570748872E+02  0.26265281437E+04  0.26388297539E+04  0.00000000000E+00 0.  1.
         22    1    1    2    0    0 -0.28577711648E+03  0.47783299179E+02  0.45665373739E+03  0.54081830578E+03  0.00000000000E+00 0.  1.
<mgrwt>
<rscale>  0 0.86058723E+03</rscale>
<asrwt>0</asrwt>
<pdfrwt beam="1">  1        2 0.57968558E+00 0.86058723E+03</pdfrwt>
<pdfrwt beam="2">  1       -2 0.75598050E-02 0.86058723E+03</pdfrwt>
<totfact> 0.59942201E+01</totfact>
</mgrwt>
</event>
<event>
 6    1  0.9364335E-007  0.3043457E+04  0.7818608E-02  0.8231429E-01
         -1   -1    0    0    0  501 -0.00000000000E+00  0.00000000000E+00  0.17214776492E+04  0.17214776492E+04  0.00000000000E+00 0.  1.
          1   -1    0    0  501    0  0.00000000000E+00 -0.00000000000E+00 -0.13451571627E+04  0.13451571627E+04  0.00000000000E+00 0. -1.
         23    2    1    2    0    0 -0.75316698438E+03  0.11763476992E+04  0.79325480807E+03  0.16089350334E+04  0.91456741572E+02 0.  0.
         13    1    3    3    0    0 -0.76282953481E+02  0.11193376653E+03  0.47355783565E+02  0.14349504283E+03  0.00000000000E+00 0. -1.
        -13    1    3    3    0    0 -0.67688403090E+03  0.10644139326E+04  0.74589902451E+03  0.14654399906E+04  0.00000000000E+00 0.  1.
         22    1    1    2    0    0  0.75316698438E+03 -0.11763476992E+04 -0.41693432157E+03  0.14576997785E+04  0.00000000000E+00 0. -1.
<mgrwt>
<rscale>  0 0.30434572E+04</rscale>
<asrwt>0</asrwt>
<pdfrwt beam="1">  1        1 0.20694726E+00 0.30434572E+04</pdfrwt>
<pdfrwt beam="2">  1       -1 0.26484271E+00 0.30434572E+04</pdfrwt>
<totfact> 0.39746138E-01</totfact>
</mgrwt>
</event>
<event>
 6    1  0.9364335E-007  0.3021126E+04  0.7818608E-02  0.8237724E-01
          1   -1    0    0  501    0  0.00000000000E+00  0.00000000000E+00  0.16128189117E+04  0.16128189117E+04  0.00000000000E+00 0. -1.
         -1   -1    0    0    0  501 -0.00000000000E+00 -0.00000000000E+00 -0.14147905800E+04  0.14147905800E+04  0.00000000000E+00 0.  1.
         23    2    1    2    0    0 -0.10175663454E+04  0.32186765352E+03  0.11686470851E+04  0.15849935282E+04  0.86188290412E+02 0.  0.
         11    1    3    3    0    0 -0.14323868681E+03  0.45088278219E+02  0.21166871256E+03  0.25952633413E+03  0.00000000000E+00 0. -1.
        -11    1    3    3    0    0 -0.87432765857E+03  0.27677937530E+03  0.95697837252E+03  0.13254671941E+04  0.00000000000E+00 0.  1.
         22    1    1    2    0    0  0.10175663454E+04 -0.32186765352E+03 -0.97061875339E+03  0.14426159635E+04  0.00000000000E+00 0.  1.
<mgrwt>
<rscale>  0 0.30211263E+04</rscale>
<asrwt>0</asrwt>
<pdfrwt beam="1">  1        1 0.24812599E+00 0.30211263E+04</pdfrwt>
<pdfrwt beam="2">  1       -1 0.21766009E+00 0.30211263E+04</pdfrwt>
<totfact> 0.53007933E-01</totfact>
</mgrwt>
</event>
<event>
 6    1  0.9364335E-007  0.2660731E+04  0.7818608E-02  0.8347860E-01
         -2   -1    0    0    0  501 -0.00000000000E+00  0.00000000000E+00  0.92966770892E+03  0.92966770892E+03  0.00000000000E+00 0.  1.
          2   -1    0    0  501    0  0.00000000000E+00 -0.00000000000E+00 -0.19037689157E+04  0.19037689157E+04  0.00000000000E+00 0. -1.
         23    2    1    2    0    0  0.51146752785E+02 -0.40016138448E+03  0.86072461308E+03  0.95478526973E+03  0.89570797633E+02 0.  0.
         11    1    3    3    0    0  0.42166870632E+02 -0.16806564226E+03  0.27929750873E+03  0.32868100564E+03  0.00000000000E+00 0. -1.
        -11    1    3    3    0    0  0.89798821533E+01 -0.23209574222E+03  0.58142710436E+03  0.62610426410E+03  0.00000000000E+00 0.  1.
         22    1    1    2    0    0 -0.51146752785E+02  0.40016138448E+03 -0.18348258199E+04  0.18786513549E+04  0.00000000000E+00 0. -1.
<mgrwt>
<rscale>  0 0.26607311E+04</rscale>
<asrwt>0</asrwt>
<pdfrwt beam="1">  1        2 0.29288752E+00 0.26607311E+04</pdfrwt>
<pdfrwt beam="2">  1       -2 0.14302580E+00 0.26607311E+04</pdfrwt>
<totfact> 0.22594237E+00</totfact>
</mgrwt>
</event>
<event>
 6    1  0.9364335E-007  0.4974231E+03  0.7818608E-02  0.1014454E+00
          2   -1    0    0  501    0  0.00000000000E+00  0.00000000000E+00  0.40081413099E+03  0.40081413099E+03  0.00000000000E+00 0. -1.
         -2   -1    0    0    0  501 -0.00000000000E+00 -0.00000000000E+00 -0.15432946316E+03  0.15432946316E+03  0.00000000000E+00 0.  1.
         23    2    1    2    0    0 -0.14039800278E+02  0.23243389770E+03  0.17941431065E+03  0.31281929573E+03  0.10697562397E+03 0.  0.
         13    1    3    3    0    0  0.15566625167E+02  0.20388648172E+03  0.11013962154E+03  0.23225579321E+03  0.00000000000E+00 0. -1.
        -13    1    3    3    0    0 -0.29606425445E+02  0.28547415974E+02  0.69274689108E+02  0.80563502514E+02  0.00000000000E+00 0.  1.
         22    1    1    2    0    0  0.14039800278E+02 -0.23243389770E+03  0.67070357181E+02  0.24232429842E+03  0.00000000000E+00 0. -1.
<mgrwt>
<rscale>  0 0.49742308E+03</rscale>
<asrwt>0</asrwt>
<pdfrwt beam="1">  1        2 0.61663712E-01 0.49742308E+03</pdfrwt>
<pdfrwt beam="2">  1       -2 0.23742994E-01 0.49742308E+03</pdfrwt>
<totfact> 0.12477728E+03</totfact>
</mgrwt>
</event>
<event>
 6    1  0.9364335E-007  0.2224745E+04  0.7818608E-02  0.8508199E-01
          2   -1    0    0  501    0  0.00000000000E+00  0.00000000000E+00  0.19197443959E+04  0.19197443959E+04  0.00000000000E+00 0. -1.
         -2   -1    0    0    0  501 -0.00000000000E+00 -0.00000000000E+00 -0.64455097463E+03  0.64455097463E+03  0.00000000000E+00 0.  1.
         23    2    1    2    0    0  0.76153409307E+03 -0.13485157596E+03  0.15573849300E+04  0.17410389280E+04  0.87462028539E+02 0.  0.
         11    1    3    3    0    0  0.44707565420E+03 -0.44674925832E+02  0.84096570161E+03  0.95346515451E+03  0.00000000000E+00 0.  1.
        -11    1    3    3    0    0  0.31445843886E+03 -0.90176650129E+02  0.71641922836E+03  0.78757377353E+03  0.00000000000E+00 0. -1.
         22    1    1    2    0    0 -0.76153409307E+03  0.13485157596E+03 -0.28219150874E+03  0.82325644245E+03  0.00000000000E+00 0.  1.
<mgrwt>
<rscale>  0 0.22247455E+04</rscale>
<asrwt>0</asrwt>
<pdfrwt beam="1">  1        2 0.29534529E+00 0.22247455E+04</pdfrwt>
<pdfrwt beam="2">  1       -2 0.99161689E-01 0.22247455E+04</pdfrwt>
<totfact> 0.56908717E+00</totfact>
</mgrwt>
</event>
<event>
 6    1  0.9364335E-007  0.5287641E+04  0.7818608E-02  0.7785605E-01
          2   -1    0    0  501    0  0.00000000000E+00  0.00000000000E+00  0.29091890599E+04  0.29091890599E+04  0.00000000000E+00 0. -1.
         -2   -1    0    0    0  501 -0.00000000000E+00 -0.00000000000E+00 -0.24026584343E+04  0.24026584343E+04  0.00000000000E+00 0.  1.
         23    2    1    2    0    0  0.66429732698E+03  0.10090459201E+04  0.26148894386E+04  0.28819006858E+04  0.90775433666E+02 0.  0.
         13    1    3    3    0    0  0.53140754655E+03  0.85093205736E+03  0.21083336645E+04  0.23348554961E+04  0.00000000000E+00 0. -1.
        -13    1    3    3    0    0  0.13288978044E+03  0.15811386271E+03  0.50655577410E+03  0.54704518972E+03  0.00000000000E+00 0.  1.
         22    1    1    2    0    0 -0.66429732698E+03 -0.10090459201E+04 -0.21083588130E+04  0.24299468084E+04  0.00000000000E+00 0.  1.
<mgrwt>
<rscale>  0 0.52876413E+04</rscale>
<asrwt>0</asrwt>
<pdfrwt beam="1">  1        2 0.44756755E+00 0.52876413E+04</pdfrwt>
<pdfrwt beam="2">  1       -2 0.36963976E+00 0.52876413E+04</pdfrwt>
<totfact> 0.16470930E-02</totfact>
</mgrwt>
</event>
<event>
 6    1  0.9364335E-007  0.9927030E+03  0.7818608E-02  0.9316584E-01
         -2   -1    0    0    0  501 -0.00000000000E+00  0.00000000000E+00  0.91329805518E+03  0.91329805518E+03  0.00000000000E+00 0.  1.
          2   -1    0    0  501    0  0.00000000000E+00 -0.00000000000E+00 -0.26975290320E+03  0.26975290320E+03  0.00000000000E+00 0. -1.
         23    2    1    2    0    0  0.37774638831E+03 -0.28902178647E+03  0.47556056632E+03  0.67862579251E+03  0.90272848043E+02 0.  0.
         13    1    3    3    0    0  0.26588045347E+03 -0.24725569309E+03  0.38112350375E+03  0.52638666245E+03  0.00000000000E+00 0. -1.
        -13    1    3    3    0    0  0.11186593484E+03 -0.41766093382E+02  0.94437062570E+02  0.15223913006E+03  0.00000000000E+00 0.  1.
         22    1    1    2    0    0 -0.37774638831E+03  0.28902178647E+03  0.16798458567E+03  0.50442516586E+03  0.00000000000E+00 0. -1.
<mgrwt>
<rscale>  0 0.99270298E+03</rscale>
<asrwt>0</asrwt>
<pdfrwt beam="1">  1        2 0.41500447E-01 0.99270298E+03</pdfrwt>
<pdfrwt beam="2">  1       -2 0.14050739E+00 0.99270298E+03</pdfrwt>
<totfact> 0.43890602E+01</totfact>
</mgrwt>
</event>
<event>
 6    1  0.9364335E-007  0.1525067E+04  0.7818608E-02  0.8867952E-01
          1   -1    0    0  501    0  0.00000000000E+00  0.00000000000E+00  0.37154869504E+03  0.37154869504E+03  0.00000000000E+00 0. -1.
         -1   -1    0    0    0  501 -0.00000000000E+00 -0.00000000000E+00 -0.15649565542E+04  0.15649565542E+04  0.00000000000E+00 0.  1.
         23    2    1    2    0    0  0.52310707966E+03  0.51936792069E+03 -0.36382824579E+03  0.82673662979E+03  0.87968225927E+02 0.  0.
         13    1    3    3    0    0  0.29803608237E+03  0.32035920512E+03 -0.17122806584E+03  0.46986655258E+03  0.00000000000E+00 0. -1.
        -13    1    3    3    0    0  0.22507099729E+03  0.19900871557E+03 -0.19260017995E+03  0.35687007721E+03  0.00000000000E+00 0.  1.
         22    1    1    2    0    0 -0.52310707966E+03 -0.51936792069E+03 -0.82957961340E+03  0.11097686195E+04  0.00000000000E+00 0.  1.
<mgrwt>
<rscale>  0 0.15250673E+04</rscale>
<asrwt>0</asrwt>
<pdfrwt beam="1">  1        1 0.57161338E-01 0.15250673E+04</pdfrwt>
<pdfrwt beam="2">  1       -1 0.24076254E+00 0.15250673E+04</pdfrwt>
<totfact> 0.51221136E+00</totfact>
</mgrwt>
</event>
<event>
 6    1  0.9364335E-007  0.1536949E+04  0.7818608E-02  0.8860247E-01
         -2   -1    0    0    0  501 -0.00000000000E+00  0.00000000000E+00  0.11220211198E+04  0.11220211198E+04  0.00000000000E+00 0.  1.
          2   -1    0    0  501    0  0.00000000000E+00 -0.00000000000E+00 -0.52632981243E+03  0.52632981243E+03  0.00000000000E+00 0. -1.
         23    2    1    2    0    0  0.42236225011E+03  0.40827277643E+03  0.82562585286E+03  0.10175209825E+04  0.92813633835E+02 0.  0.
         13    1    3    3    0    0  0.15925530534E+03  0.11593564471E+03  0.21903977134E+03  0.29458741898E+03  0.00000000000E+00 0. -1.
        -13    1    3    3    0    0  0.26310694477E+03  0.29233713172E+03  0.60658608152E+03  0.72293356352E+03  0.00000000000E+00 0.  1.
         22    1    1    2    0    0 -0.42236225011E+03 -0.40827277643E+03 -0.22993454548E+03  0.63082994975E+03  0.00000000000E+00 0. -1.
<mgrwt>
<rscale>  0 0.15369491E+04</rscale>
<asrwt>0</asrwt>
<pdfrwt beam="1">  1        2 0.80973818E-01 0.15369491E+04</pdfrwt>
<pdfrwt beam="2">  1       -2 0.17261863E+00 0.15369491E+04</pdfrwt>
<totfact> 0.11398522E+01</totfact>
</mgrwt>
</event>
<event>
 6    1  0.9364335E-007  0.2743024E+04  0.7818608E-02  0.8321179E-01
          2   -1    0    0  501    0  0.00000000000E+00  0.00000000000E+00  0.32634482168E+04  0.32634482168E+04  0.00000000000E+00 0. -1.
         -2   -1    0    0    0  501 -0.00000000000E+00 -0.00000000000E+00 -0.57639805770E+03  0.57639805770E+03  0.00000000000E+00 0.  1.
         23    2    1    2    0    0  0.21223464433E+03 -0.36527413922E+03  0.31694283707E+04  0.31986306478E+04  0.86562595916E+02 0.  0.
         11    1    3    3    0    0  0.12118082397E+03 -0.16246943667E+03  0.17844720170E+04  0.17959458481E+04  0.00000000000E+00 0. -1.
        -11    1    3    3    0    0  0.91053820362E+02 -0.20280470255E+03  0.13849563537E+04  0.14026847996E+04  0.00000000000E+00 0.  1.
         22    1    1    2    0    0 -0.21223464433E+03  0.36527413922E+03 -0.48237821153E+03  0.64121562676E+03  0.00000000000E+00 0.  1.
<mgrwt>
<rscale>  0 0.27430240E+04</rscale>
<asrwt>0</asrwt>
<pdfrwt beam="1">  1        2 0.50206895E+00 0.27430240E+04</pdfrwt>
<pdfrwt beam="2">  1       -2 0.88676626E-01 0.27430240E+04</pdfrwt>
<totfact> 0.11258755E+00</totfact>
</mgrwt>
</event>
<event>
 6    1  0.9364335E-007  0.2264502E+04  0.7818608E-02  0.8492050E-01
         -2   -1    0    0    0  501 -0.00000000000E+00  0.00000000000E+00  0.38351680446E+04  0.38351680446E+04  0.00000000000E+00 0.  1.
          2   -1    0    0  501    0  0.00000000000E+00 -0.00000000000E+00 -0.33427291397E+03  0.33427291397E+03  0.00000000000E+00 0. -1.
         23    2    1    2    0    0  0.47499153720E+03  0.94224532765E+03  0.24998070184E+04  0.27149236413E+04  0.91279957697E+02 0.  0.
         13    1    3    3    0    0  0.29161809300E+02  0.12237117125E+03  0.30853871353E+03  0.33319851803E+03  0.00000000000E+00 0.  1.
        -13    1    3    3    0    0  0.44582972790E+03  0.81987415640E+03  0.21912683049E+04  0.23817251232E+04  0.00000000000E+00 0. -1.
         22    1    1    2    0    0 -0.47499153720E+03 -0.94224532765E+03  0.10010881122E+04  0.14545173173E+04  0.00000000000E+00 0. -1.
<mgrwt>
<rscale>  0 0.22645024E+04</rscale>
<asrwt>0</asrwt>
<pdfrwt beam="1">  1        2 0.51426605E-01 0.22645024E+04</pdfrwt>
<pdfrwt beam="2">  1       -2 0.59002582E+00 0.22645024E+04</pdfrwt>
<totfact> 0.48362022E-02</totfact>
</mgrwt>
</event>
<event>
 6    1  0.9364335E-007  0.1211590E+04  0.7818608E-02  0.9102772E-01
          2   -1    0    0  501    0  0.00000000000E+00  0.00000000000E+00  0.30325358567E+03  0.30325358567E+03  0.00000000000E+00 0. -1.
         -2   -1    0    0    0  501 -0.00000000000E+00 -0.00000000000E+00 -0.12101669841E+04  0.12101669841E+04  0.00000000000E+00 0.  1.
         23    2    1    2    0    0  0.23166310415E+03  0.53308367811E+03 -0.25927744972E+03  0.64320316949E+03  0.92949016195E+02 0.  0.
         11    1    3    3    0    0  0.16975802384E+03  0.27502195963E+03 -0.14664510316E+03  0.35490794752E+03  0.00000000000E+00 0. -1.
        -11    1    3    3    0    0  0.61905080315E+02  0.25806171849E+03 -0.11263234656E+03  0.28829522197E+03  0.00000000000E+00 0.  1.
         22    1    1    2    0    0 -0.23166310415E+03 -0.53308367811E+03 -0.64763594871E+03  0.87021740028E+03  0.00000000000E+00 0. -1.
<mgrwt>
<rscale>  0 0.12115898E+04</rscale>
<asrwt>0</asrwt>
<pdfrwt beam="1">  1        2 0.46654398E-01 0.12115898E+04</pdfrwt>
<pdfrwt beam="2">  1       -2 0.18617954E+00 0.12115898E+04</pdfrwt>
<totfact> 0.17575478E+01</totfact>
</mgrwt>
</event>
<event>
 6    1  0.9364335E-007  0.2710154E+04  0.7818608E-02  0.8331718E-01
          2   -1    0    0  501    0  0.00000000000E+00  0.00000000000E+00  0.99611412064E+03  0.99611412064E+03  0.00000000000E+00 0. -1.
         -2   -1    0    0    0  501 -0.00000000000E+00 -0.00000000000E+00 -0.18433971899E+04  0.18433971899E+04  0.00000000000E+00 0.  1.
         23    2    1    2    0    0  0.33771822370E+03  0.12023886196E+04 -0.96994498294E+03  0.15845858402E+04  0.10162196579E+03 0.  0.
         13    1    3    3    0    0  0.19698765604E+03  0.71750537287E+03 -0.64006526701E+03  0.98147931347E+03  0.00000000000E+00 0. -1.
        -13    1    3    3    0    0  0.14073056766E+03  0.48488324668E+03 -0.32987971593E+03  0.60310652672E+03  0.00000000000E+00 0.  1.
         22    1    1    2    0    0 -0.33771822370E+03 -0.12023886196E+04  0.12266191369E+03  0.12549254703E+04  0.00000000000E+00 0. -1.
<mgrwt>
<rscale>  0 0.27101542E+04</rscale>
<asrwt>0</asrwt>
<pdfrwt beam="1">  1        2 0.15324833E+00 0.27101542E+04</pdfrwt>
<pdfrwt beam="2">  1       -2 0.28359956E+00 0.27101542E+04</pdfrwt>
<totfact> 0.88907384E-01</totfact>
</mgrwt>
</event>
<event>
 6    1  0.9364335E-007  0.3056000E+04  0.7818608E-02  0.8227918E-01
         -1   -1    0    0    0  501 -0.00000000000E+00  0.00000000000E+00  0.10008625154E+04  0.10008625154E+04  0.00000000000E+00 0.  1.
          1   -1    0    0  501    0  0.00000000000E+00 -0.00000000000E+00 -0.23327716048E+04  0.23327716048E+04  0.00000000000E+00 0. -1.
         23    2    1    2    0    0 -0.86929401219E+02  0.14826402647E+04 -0.10519266383E+04  0.18222873538E+04  0.91666089310E+02 0.  0.
         11    1    3    3    0    0 -0.69451268303E+02  0.82092017485E+03 -0.53377152298E+03  0.98165444576E+03  0.00000000000E+00 0. -1.
        -11    1    3    3    0    0 -0.17478132916E+02  0.66172008989E+03 -0.51815511531E+03  0.84063290800E+03  0.00000000000E+00 0.  1.
         22    1    1    2    0    0  0.86929401219E+02 -0.14826402647E+04 -0.27998245109E+03  0.15113467664E+04  0.00000000000E+00 0.  1.
<mgrwt>
<rscale>  0 0.30559998E+04</rscale>
<asrwt>0</asrwt>
<pdfrwt beam="1">  1        1 0.35888793E+00 0.30559998E+04</pdfrwt>
<pdfrwt beam="2">  1       -1 0.15397885E+00 0.30559998E+04</pdfrwt>
<totfact> 0.48629612E-01</totfact>
</mgrwt>
</event>
<event>
 6    1  0.9364335E-007  0.1635894E+04  0.7818608E-02  0.8798795E-01
          2   -1    0    0  501    0  0.00000000000E+00  0.00000000000E+00  0.18089620255E+04  0.18089620255E+04  0.00000000000E+00 0. -1.
         -2   -1    0    0    0  501 -0.00000000000E+00 -0.00000000000E+00 -0.36984615257E+03  0.36984615257E+03  0.00000000000E+00 0.  1.
         23    2    1    2    0    0 -0.61588456116E+03 -0.48671998036E+03  0.42850942322E+03  0.89914590695E+03  0.92913423315E+02 0.  0.
         13    1    3    3    0    0 -0.11605121811E+03 -0.11342878396E+03  0.51600854326E+02  0.17028394646E+03  0.00000000000E+00 0.  1.
        -13    1    3    3    0    0 -0.49983334305E+03 -0.37329119640E+03  0.37690856889E+03  0.72886196049E+03  0.00000000000E+00 0. -1.
         22    1    1    2    0    0  0.61588456116E+03  0.48671998036E+03  0.10106064498E+04  0.12796622712E+04  0.00000000000E+00 0. -1.
<mgrwt>
<rscale>  0 0.16358944E+04</rscale>
<asrwt>0</asrwt>
<pdfrwt beam="1">  1        2 0.27830185E+00 0.16358944E+04</pdfrwt>
<pdfrwt beam="2">  1       -2 0.56899409E-01 0.16358944E+04</pdfrwt>
<totfact> 0.23624291E+01</totfact>
</mgrwt>
</event>
<event>
 6    1  0.9364335E-007  0.4029362E+04  0.7818608E-02  0.7998649E-01
          2   -1    0    0  501    0  0.00000000000E+00  0.00000000000E+00  0.25801687340E+04  0.25801687340E+04  0.00000000000E+00 0. -1.
         -2   -1    0    0    0  501 -0.00000000000E+00 -0.00000000000E+00 -0.15731294050E+04  0.15731294050E+04  0.00000000000E+00 0.  1.
         23    2    1    2    0    0  0.15430657817E+04  0.11070610511E+04 -0.18718679394E+03  0.19099051261E+04  0.77862169738E+02 0.  0.
         13    1    3    3    0    0  0.12457713805E+04  0.86065395732E+03 -0.13301252698E+03  0.15199881246E+04  0.00000000000E+00 0. -1.
        -13    1    3    3    0    0  0.29729440121E+03  0.24640709374E+03 -0.54174266960E+02  0.38991700147E+03  0.00000000000E+00 0.  1.
         22    1    1    2    0    0 -0.15430657817E+04 -0.11070610511E+04  0.11942261229E+04  0.22433930128E+04  0.00000000000E+00 0. -1.
<mgrwt>
<rscale>  0 0.40293619E+04</rscale>
<asrwt>0</asrwt>
<pdfrwt beam="1">  1        2 0.39694904E+00 0.40293619E+04</pdfrwt>
<pdfrwt beam="2">  1       -2 0.24201991E+00 0.40293619E+04</pdfrwt>
<totfact> 0.17705516E-01</totfact>
</mgrwt>
</event>
<event>
 6    1  0.9364335E-007  0.3544218E+04  0.7818608E-02  0.8103390E-01
         -2   -1    0    0    0  501 -0.00000000000E+00  0.00000000000E+00  0.19784636411E+04  0.19784636411E+04  0.00000000000E+00 0.  1.
          2   -1    0    0  501    0  0.00000000000E+00 -0.00000000000E+00 -0.15872771586E+04  0.15872771586E+04  0.00000000000E+00 0. -1.
         23    2    1    2    0    0 -0.14105378120E+04  0.67434331538E+03  0.10325824348E+04  0.18758459528E+04  0.90640653577E+02 0.  0.
         13    1    3    3    0    0 -0.42296339946E+03  0.17293596644E+03  0.33991723444E+03  0.56951612096E+03  0.00000000000E+00 0.  1.
        -13    1    3    3    0    0 -0.98757441251E+03  0.50140734894E+03  0.69266520035E+03  0.13063298319E+04  0.00000000000E+00 0. -1.
         22    1    1    2    0    0  0.14105378120E+04 -0.67434331538E+03 -0.64139595221E+03  0.16898948469E+04  0.00000000000E+00 0. -1.
<mgrwt>
<rscale>  0 0.35442179E+04</rscale>
<asrwt>0</asrwt>
<pdfrwt beam="1">  1        2 0.24419649E+00 0.35442179E+04</pdfrwt>
<pdfrwt beam="2">  1       -2 0.30437902E+00 0.35442179E+04</pdfrwt>
<totfact> 0.27729694E-01</totfact>
</mgrwt>
</event>
<event>
 6    1  0.9364335E-007  0.2545983E+04  0.7818608E-02  0.8386785E-01
          1   -1    0    0  501    0  0.00000000000E+00  0.00000000000E+00  0.19099345978E+04  0.19099345978E+04  0.00000000000E+00 0. -1.
         -1   -1    0    0    0  501 -0.00000000000E+00 -0.00000000000E+00 -0.84846202520E+03  0.84846202520E+03  0.00000000000E+00 0.  1.
         23    2    1    2    0    0 -0.98689894220E+03 -0.42881483798E+03  0.12650345948E+04  0.16632759976E+04  0.91229548942E+02 0.  0.
         13    1    3    3    0    0 -0.71165751438E+03 -0.35257146054E+03  0.92126937913E+03  0.12163471221E+04  0.00000000000E+00 0. -1.
        -13    1    3    3    0    0 -0.27524142782E+03 -0.76243377444E+02  0.34376521567E+03  0.44692887544E+03  0.00000000000E+00 0.  1.
         22    1    1    2    0    0  0.98689894220E+03  0.42881483798E+03 -0.20356202222E+03  0.10951206254E+04  0.00000000000E+00 0.  1.
<mgrwt>
<rscale>  0 0.25459827E+04</rscale>
<asrwt>0</asrwt>
<pdfrwt beam="1">  1        1 0.29383609E+00 0.25459827E+04</pdfrwt>
<pdfrwt beam="2">  1       -1 0.13053262E+00 0.25459827E+04</pdfrwt>
<totfact> 0.15233945E+00</totfact>
</mgrwt>
</event>
<event>
 6    1  0.9364335E-007  0.7056256E+03  0.7818608E-02  0.9707660E-01
         -2   -1    0    0    0  501 -0.00000000000E+00  0.00000000000E+00  0.14230017419E+03  0.14230017419E+03  0.00000000000E+00 0.  1.
          2   -1    0    0  501    0  0.00000000000E+00 -0.00000000000E+00 -0.87474847628E+03  0.87474847628E+03  0.00000000000E+00 0. -1.
         23    2    1    2    0    0 -0.60092536936E+02 -0.99222669952E+02 -0.84372251462E+03  0.85630599403E+03  0.89084356050E+02 0.  0.
         11    1    3    3    0    0 -0.16391698748E+01 -0.84662451349E+02 -0.54878075258E+03  0.55527536588E+03  0.00000000000E+00 0. -1.
        -11    1    3    3    0    0 -0.58453367061E+02 -0.14560218604E+02 -0.29494176204E+03  0.30103062815E+03  0.00000000000E+00 0.  1.
         22    1    1    2    0    0  0.60092536936E+02  0.99222669952E+02  0.11127421253E+03  0.16074265645E+03  0.00000000000E+00 0.  1.
<mgrwt>
<rscale>  0 0.70562557E+03</rscale>
<asrwt>0</asrwt>
<pdfrwt beam="1">  1        2 0.13457669E+00 0.70562557E+03</pdfrwt>
<pdfrwt beam="2">  1       -2 0.21892335E-01 0.70562557E+03</pdfrwt>
<totfact> 0.55832375E+02</totfact>
</mgrwt>
</event>
<event>
 6    1  0.9364335E-007  0.1298637E+04  0.7818608E-02  0.9030647E-01
         -1   -1    0    0    0  501 -0.00000000000E+00  0.00000000000E+00  0.30770228774E+03  0.30770228774E+03  0.00000000000E+00 0.  1.
          1   -1    0    0  501    0  0.00000000000E+00 -0.00000000000E+00 -0.13702018903E+04  0.13702018903E+04  0.00000000000E+00 0. -1.
         23    2    1    2    0    0  0.58287739452E+03  0.11591040005E+03 -0.86085741907E+03  0.10503367728E+04  0.94607412671E+02 0.  0.
         13    1    3    3    0    0  0.28782183189E+03  0.63408103389E+02 -0.34503741209E+03  0.45377616755E+03  0.00000000000E+00 0.  1.
        -13    1    3    3    0    0  0.29505556263E+03  0.52502296661E+02 -0.51582000698E+03  0.59656060530E+03  0.00000000000E+00 0. -1.
         22    1    1    2    0    0 -0.58287739452E+03 -0.11591040005E+03 -0.20164218348E+03  0.62756740518E+03  0.00000000000E+00 0.  1.
<mgrwt>
<rscale>  0 0.12986366E+04</rscale>
<asrwt>0</asrwt>
<pdfrwt beam="1">  1        1 0.21080029E+00 0.12986366E+04</pdfrwt>
<pdfrwt beam="2">  1       -1 0.47338813E-01 0.12986366E+04</pdfrwt>
<totfact> 0.35273147E+01</totfact>
</mgrwt>
</event>
<event>
 6    1  0.9364335E-007  0.2389099E+04  0.7818608E-02  0.8443596E-01
          1   -1    0    0  501    0  0.00000000000E+00  0.00000000000E+00  0.29601125906E+04  0.29601125906E+04  0.00000000000E+00 0. -1.
         -1   -1    0    0    0  501 -0.00000000000E+00 -0.00000000000E+00 -0.48205869164E+03  0.48205869164E+03  0.00000000000E+00 0.  1.
         23    2    1    2    0    0 -0.18860582011E+03 -0.69786485687E+03  0.26078376728E+04  0.27077113842E+04  0.91082922148E+02 0.  0.
         13    1    3    3    0    0 -0.94184504804E+02 -0.44898998754E+03  0.17777231124E+04  0.18359635601E+04  0.00000000000E+00 0.  1.
        -13    1    3    3    0    0 -0.94421315306E+02 -0.24887486934E+03  0.83011456043E+03  0.87174782409E+03  0.00000000000E+00 0. -1.
         22    1    1    2    0    0  0.18860582011E+03  0.69786485687E+03 -0.12978377385E+03  0.73445989802E+03  0.00000000000E+00 0.  1.
<mgrwt>
<rscale>  0 0.23890986E+04</rscale>
<asrwt>0</asrwt>
<pdfrwt beam="1">  1        1 0.45540193E+00 0.23890986E+04</pdfrwt>
<pdfrwt beam="2">  1       -1 0.74162878E-01 0.23890986E+04</pdfrwt>
<totfact> 0.10495095E+00</totfact>
</mgrwt>
</event>
<event>
 6    1  0.9364335E-007  0.1313378E+04  0.7818608E-02  0.9019023E-01
         -2   -1    0    0    0  501 -0.00000000000E+00  0.00000000000E+00  0.67024633865E+03  0.67024633865E+03  0.00000000000E+00 0.  1.
          2   -1    0    0  501    0  0.00000000000E+00 -0.00000000000E+00 -0.64340548449E+03  0.64340548449E+03  0.00000000000E+00 0. -1.
         23    2    1    2    0    0  0.14877396050E+03  0.61026808051E+03 -0.16602560053E+03  0.65656865432E+03  0.94641832106E+02 0.  0.
         11    1    3    3    0    0  0.13310139479E+03  0.36105819014E+03 -0.11589630658E+03  0.40188425180E+03  0.00000000000E+00 0.  1.
        -11    1    3    3    0    0  0.15672565707E+02  0.24920989037E+03 -0.50129293946E+02  0.25468440252E+03  0.00000000000E+00 0. -1.
         22    1    1    2    0    0 -0.14877396050E+03 -0.61026808051E+03  0.19286645468E+03  0.65708316883E+03  0.00000000000E+00 0.  1.
<mgrwt>
<rscale>  0 0.13133776E+04</rscale>
<asrwt>0</asrwt>
<pdfrwt beam="1">  1        2 0.98985459E-01 0.13133776E+04</pdfrwt>
<pdfrwt beam="2">  1       -2 0.10311482E+00 0.13133776E+04</pdfrwt>
<totfact> 0.34239022E+01</totfact>
</mgrwt>
</event>
<event>
 6    1  0.9364335E-007  0.2120471E+04  0.7818608E-02  0.8552279E-01
         -1   -1    0    0    0  501 -0.00000000000E+00  0.00000000000E+00  0.61680591070E+03  0.61680591070E+03  0.00000000000E+00 0.  1.
          1   -1    0    0  501    0  0.00000000000E+00 -0.00000000000E+00 -0.18224514517E+04  0.18224514517E+04  0.00000000000E+00 0. -1.
         23    2    1    2    0    0  0.16465573299E+03  0.86466116431E+03  0.72147396661E+02  0.88764361181E+03  0.89193583150E+02 0.  0.
         11    1    3    3    0    0  0.66186404406E+02  0.17505278161E+03 -0.15426830125E+01  0.18715367041E+03  0.00000000000E+00 0. -1.
        -11    1    3    3    0    0  0.98469328579E+02  0.68960838270E+03  0.73690079674E+02  0.70048994140E+03  0.00000000000E+00 0.  1.
         22    1    1    2    0    0 -0.16465573299E+03 -0.86466116431E+03 -0.12777929377E+04  0.15516137506E+04  0.00000000000E+00 0. -1.
<mgrwt>
<rscale>  0 0.21204705E+04</rscale>
<asrwt>0</asrwt>
<pdfrwt beam="1">  1        1 0.28037714E+00 0.21204705E+04</pdfrwt>
<pdfrwt beam="2">  1       -1 0.94893219E-01 0.21204705E+04</pdfrwt>
<totfact> 0.38757733E+00</totfact>
</mgrwt>
</event>
<event>
 6    1  0.9364335E-007  0.3086329E+04  0.7818608E-02  0.8219500E-01
         -2   -1    0    0    0  501 -0.00000000000E+00  0.00000000000E+00  0.89617244191E+03  0.89617244191E+03  0.00000000000E+00 0.  1.
          2   -1    0    0  501    0  0.00000000000E+00 -0.00000000000E+00 -0.26572534979E+04  0.26572534979E+04  0.00000000000E+00 0. -1.
         23    2    1    2    0    0 -0.50061993361E+03  0.69185155825E+03 -0.23593075677E+04  0.25107592357E+04  0.91108968964E+02 0.  0.
         13    1    3    3    0    0 -0.39110128077E+03  0.54584745166E+03 -0.19566394032E+04  0.20686583591E+04  0.00000000000E+00 0.  1.
        -13    1    3    3    0    0 -0.10951865284E+03  0.14600410660E+03 -0.40266816445E+03  0.44210087664E+03  0.00000000000E+00 0. -1.
         22    1    1    2    0    0  0.50061993361E+03 -0.69185155825E+03  0.59822651167E+03  0.10426667041E+04  0.00000000000E+00 0.  1.
<mgrwt>
<rscale>  0 0.30863294E+04</rscale>
<asrwt>0</asrwt>
<pdfrwt beam="1">  1        2 0.40880822E+00 0.30863294E+04</pdfrwt>
<pdfrwt beam="2">  1       -2 0.13787269E+00 0.30863294E+04</pdfrwt>
<totfact> 0.89404301E-01</totfact>
</mgrwt>
</event>
<event>
 6    1  0.9364335E-007  0.1007951E+04  0.7818608E-02  0.9299867E-01
         -1   -1    0    0    0  501 -0.00000000000E+00  0.00000000000E+00  0.20023851447E+03  0.20023851447E+03  0.00000000000E+00 0.  1.
          1   -1    0    0  501    0  0.00000000000E+00 -0.00000000000E+00 -0.12684432612E+04  0.12684432612E+04  0.00000000000E+00 0. -1.
         23    2    1    2    0    0  0.19703085739E+03  0.41484920462E+03 -0.82605832348E+03  0.94949403347E+03  0.90804980435E+02 0.  0.
         13    1    3    3    0    0  0.90228374638E+02  0.28266883428E+03 -0.56102867478E+03  0.63466211750E+03  0.00000000000E+00 0. -1.
        -13    1    3    3    0    0  0.10680248276E+03  0.13218037033E+03 -0.26502964871E+03  0.31483191598E+03  0.00000000000E+00 0.  1.
         22    1    1    2    0    0 -0.19703085739E+03 -0.41484920462E+03 -0.24214642320E+03  0.51918774216E+03  0.00000000000E+00 0.  1.
<mgrwt>
<rscale>  0 0.10079508E+04</rscale>
<asrwt>0</asrwt>
<pdfrwt beam="1">  1        1 0.19514512E+00 0.10079508E+04</pdfrwt>
<pdfrwt beam="2">  1       -1 0.30805925E-01 0.10079508E+04</pdfrwt>
<totfact> 0.92921188E+01</totfact>
</mgrwt>
</event>
<event>
 6    1  0.9364335E-007  0.1094452E+04  0.7818608E-02  0.9210616E-01
          1   -1    0    0  501    0  0.00000000000E+00  0.00000000000E+00  0.40120212497E+03  0.40120212497E+03  0.00000000000E+00 0. -1.
         -1   -1    0    0    0  501 -0.00000000000E+00 -0.00000000000E+00 -0.74639736061E+03  0.74639736061E+03  0.00000000000E+00 0.  1.
         23    2    1    2    0    0  0.42021573592E+03 -0.43091430448E+02 -0.53241107870E+03  0.68555196856E+03  0.89898880882E+02 0.  0.
         13    1    3    3    0    0  0.33685685762E+03 -0.57807065505E+02 -0.46631596047E+03  0.57815635803E+03  0.00000000000E+00 0. -1.
        -13    1    3    3    0    0  0.83358878301E+02  0.14715635057E+02 -0.66095118234E+02  0.10739561053E+03  0.00000000000E+00 0.  1.
         22    1    1    2    0    0 -0.42021573592E+03  0.43091430448E+02  0.18721584306E+03  0.46204751702E+03  0.00000000000E+00 0. -1.
<mgrwt>
<rscale>  0 0.10944518E+04</rscale>
<asrwt>0</asrwt>
<pdfrwt beam="1">  1        1 0.61723404E-01 0.10944518E+04</pdfrwt>
<pdfrwt beam="2">  1       -1 0.11483036E+00 0.10944518E+04</pdfrwt>
<totfact> 0.41051001E+01</totfact>
</mgrwt>
</event>
<event>
 6    1  0.9364335E-007  0.3957113E+04  0.7818608E-02  0.8013255E-01
         -2   -1    0    0    0  501 -0.00000000000E+00  0.00000000000E+00  0.12545775488E+04  0.12545775488E+04  0.00000000000E+00 0.  1.
          2   -1    0    0  501    0  0.00000000000E+00 -0.00000000000E+00 -0.31203213672E+04  0.31203213672E+04  0.00000000000E+00 0. -1.
         23    2    1    2    0    0  0.17880866887E+04 -0.78429698486E+03 -0.58706822983E+03  0.20409351142E+04  0.91603859026E+02 0.  0.
         13    1    3    3    0    0  0.13938908142E+04 -0.58174394171E+03 -0.48200957702E+03  0.15854623451E+04  0.00000000000E+00 0. -1.
        -13    1    3    3    0    0  0.39419587458E+03 -0.20255304315E+03 -0.10505865281E+03  0.45547276906E+03  0.00000000000E+00 0.  1.
         22    1    1    2    0    0 -0.17880866887E+04  0.78429698486E+03 -0.12786755886E+04  0.23339638017E+04  0.00000000000E+00 0.  1.
<mgrwt>
<rscale>  0 0.39571127E+04</rscale>
<asrwt>0</asrwt>
<pdfrwt beam="1">  1        2 0.48004944E+00 0.39571127E+04</pdfrwt>
<pdfrwt beam="2">  1       -2 0.19301193E+00 0.39571127E+04</pdfrwt>
<totfact> 0.17091343E-01</totfact>
</mgrwt>
</event>
<event>
 6    1  0.9364335E-007  0.9080887E+03  0.7818608E-02  0.9415526E-01
         -2   -1    0    0    0  501 -0.00000000000E+00  0.00000000000E+00  0.10673441396E+03  0.10673441396E+03  0.00000000000E+00 0.  1.
          2   -1    0    0  501    0  0.00000000000E+00 -0.00000000000E+00 -0.19314883252E+04  0.19314883252E+04  0.00000000000E+00 0. -1.
         23    2    1    2    0    0  0.14000669502E+03  0.10873400150E+03 -0.18486712189E+04  0.18593456995E+04  0.90311663984E+02 0.  0.
         11    1    3    3    0    0  0.95115978006E+02  0.11900799605E+03 -0.14752561283E+04  0.14831016811E+04  0.00000000000E+00 0. -1.
        -11    1    3    3    0    0  0.44890717013E+02 -0.10273994550E+02 -0.37341509063E+03  0.37624401835E+03  0.00000000000E+00 0.  1.
         22    1    1    2    0    0 -0.14000669502E+03 -0.10873400150E+03  0.23917307677E+02  0.17887703972E+03  0.00000000000E+00 0.  1.
<mgrwt>
<rscale>  0 0.90808871E+03</rscale>
<asrwt>0</asrwt>
<pdfrwt beam="1">  1        2 0.29715202E+00 0.90808871E+03</pdfrwt>
<pdfrwt beam="2">  1       -2 0.16420681E-01 0.90808871E+03</pdfrwt>
<totfact> 0.22121300E+02</totfact>
</mgrwt>
</event>
<event>
 6    1  0.9364335E-007  0.1844288E+04  0.7818608E-02  0.8683096E-01
          1   -1    0    0  501    0  0.00000000000E+00  0.00000000000E+00  0.16878778128E+04  0.16878778128E+04  0.00000000000E+00 0. -1.
         -1   -1    0    0    0  501 -0.00000000000E+00 -0.00000000000E+00 -0.50379816716E+03  0.50379816716E+03  0.00000000000E+00 0.  1.
         23    2    1    2    0    0 -0.81736759401E+03 -0.38288832084E+03  0.38443454767E+03  0.98580470464E+03  0.96580247825E+02 0.  0.
         13    1    3    3    0    0 -0.66675055513E+03 -0.34490348718E+03  0.29496581380E+03  0.80654792142E+03  0.00000000000E+00 0.  1.
        -13    1    3    3    0    0 -0.15061703889E+03 -0.37984833658E+02  0.89468733872E+02  0.17925678322E+03  0.00000000000E+00 0. -1.
         22    1    1    2    0    0  0.81736759401E+03  0.38288832084E+03  0.79964509801E+03  0.12058712754E+04  0.00000000000E+00 0. -1.
<mgrwt>
<rscale>  0 0.18442882E+04</rscale>
<asrwt>0</asrwt>
<pdfrwt beam="1">  1        1 0.25967351E+00 0.18442882E+04</pdfrwt>
<pdfrwt beam="2">  1       -1 0.77507411E-01 0.18442882E+04</pdfrwt>
<totfact> 0.76178764E+00</totfact>
</mgrwt>
</event>
<event>
 6    1  0.9364335E-007  0.3039796E+04  0.7818608E-02  0.8232457E-01
          2   -1    0    0  501    0  0.00000000000E+00  0.00000000000E+00  0.16761789685E+04  0.16761789685E+04  0.00000000000E+00 0. -1.
         -2   -1    0    0    0  501 -0.00000000000E+00 -0.00000000000E+00 -0.13781880515E+04  0.13781880515E+04  0.00000000000E+00 0.  1.
         23    2    1    2    0    0  0.83689839402E+03  0.74804967787E+03  0.11768287269E+04  0.16287677991E+04  0.89338953395E+02 0.  0.
         11    1    3    3    0    0  0.56907990131E+03  0.56084252219E+03  0.85154552672E+03  0.11677011830E+04  0.00000000000E+00 0. -1.
        -11    1    3    3    0    0  0.26781849271E+03  0.18720715568E+03  0.32528320017E+03  0.46106661610E+03  0.00000000000E+00 0.  1.
         22    1    1    2    0    0 -0.83689839402E+03 -0.74804967787E+03 -0.87883780986E+03  0.14255992209E+04  0.00000000000E+00 0.  1.
<mgrwt>
<rscale>  0 0.30397959E+04</rscale>
<asrwt>0</asrwt>
<pdfrwt beam="1">  1        2 0.25787369E+00 0.30397959E+04</pdfrwt>
<pdfrwt beam="2">  1       -2 0.21202893E+00 0.30397959E+04</pdfrwt>
<totfact> 0.95871587E-01</totfact>
</mgrwt>
</event>
<event>
 6    1  0.9364335E-007  0.1483908E+04  0.7818608E-02  0.8895225E-01
          2   -1    0    0  501    0  0.00000000000E+00  0.00000000000E+00  0.23844721367E+04  0.23844721367E+04  0.00000000000E+00 0. -1.
         -2   -1    0    0    0  501 -0.00000000000E+00 -0.00000000000E+00 -0.23086697724E+03  0.23086697724E+03  0.00000000000E+00 0.  1.
         23    2    1    2    0    0  0.12374655530E+03 -0.54764254648E+03  0.19292041726E+04  0.20107058602E+04  0.76705593134E+02 0.  0.
         11    1    3    3    0    0  0.18833509315E+01 -0.10312871131E+03  0.43303941525E+03  0.44515414552E+03  0.00000000000E+00 0. -1.
        -11    1    3    3    0    0  0.12186320437E+03 -0.44451383517E+03  0.14961647573E+04  0.15655517147E+04  0.00000000000E+00 0.  1.
         22    1    1    2    0    0 -0.12374655530E+03  0.54764254648E+03  0.22440098693E+03  0.60463325380E+03  0.00000000000E+00 0.  1.
<mgrwt>
<rscale>  0 0.14839082E+04</rscale>
<asrwt>0</asrwt>
<pdfrwt beam="1">  1        2 0.36684185E+00 0.14839082E+04</pdfrwt>
<pdfrwt beam="2">  1       -2 0.35517998E-01 0.14839082E+04</pdfrwt>
<totfact> 0.29298411E+01</totfact>
</mgrwt>
</event>
<event>
 6    1  0.9364335E-007  0.2614446E+03  0.7818608E-02  0.1106278E+00
         -2   -1    0    0    0  501 -0.00000000000E+00  0.00000000000E+00  0.57453100652E+01  0.57453100652E+01  0.00000000000E+00 0.  1.
          2   -1    0    0  501    0  0.00000000000E+00 -0.00000000000E+00 -0.29743065891E+04  0.29743065891E+04  0.00000000000E+00 0. -1.
         23    2    1    2    0    0 -0.80850190897E+02 -0.36852104356E+02 -0.24930251326E+04  0.24962859873E+04  0.91512771811E+02 0.  0.
         11    1    3    3    0    0  0.13719573849E+01 -0.17377189902E+02 -0.13610300234E+04  0.13611416435E+04  0.00000000000E+00 0. -1.
        -11    1    3    3    0    0 -0.82222148282E+02 -0.19474914454E+02 -0.11319951092E+04  0.11351443438E+04  0.00000000000E+00 0.  1.
         22    1    1    2    0    0  0.80850190897E+02  0.36852104356E+02 -0.47553614637E+03  0.48376591185E+03  0.00000000000E+00 0.  1.
<mgrwt>
<rscale>  0 0.26144455E+03</rscale>
<asrwt>0</asrwt>
<pdfrwt beam="1">  1        2 0.45758561E+00 0.26144455E+03</pdfrwt>
<pdfrwt beam="2">  1       -2 0.88389390E-03 0.26144455E+03</pdfrwt>
<totfact> 0.55077344E+03</totfact>
</mgrwt>
</event>
<event>
 6    1  0.9364335E-007  0.1770158E+04  0.7818608E-02  0.8722332E-01
          1   -1    0    0  501    0  0.00000000000E+00  0.00000000000E+00  0.99090155725E+03  0.99090155725E+03  0.00000000000E+00 0. -1.
         -1   -1    0    0    0  501 -0.00000000000E+00 -0.00000000000E+00 -0.79055760602E+03  0.79055760602E+03  0.00000000000E+00 0.  1.
         23    2    1    2    0    0  0.79736886571E+02 -0.17564585221E+03 -0.76647979731E+03  0.79558006459E+03  0.90812570808E+02 0.  0.
         11    1    3    3    0    0  0.83203016892E+02 -0.81851640926E+02 -0.36187129690E+03  0.38022791673E+03  0.00000000000E+00 0.  1.
        -11    1    3    3    0    0 -0.34661303214E+01 -0.93794211281E+02 -0.40460850041E+03  0.41535214786E+03  0.00000000000E+00 0. -1.
         22    1    1    2    0    0 -0.79736886571E+02  0.17564585221E+03  0.96682374853E+03  0.98587909868E+03  0.00000000000E+00 0. -1.
<mgrwt>
<rscale>  0 0.17701579E+04</rscale>
<asrwt>0</asrwt>
<pdfrwt beam="1">  1        1 0.15244639E+00 0.17701579E+04</pdfrwt>
<pdfrwt beam="2">  1       -1 0.12162425E+00 0.17701579E+04</pdfrwt>
<totfact> 0.87167842E+00</totfact>
</mgrwt>
</event>
<event>
 6    1  0.9364335E-007  0.1268443E+04  0.7818608E-02  0.9054971E-01
         -1   -1    0    0    0  501 -0.00000000000E+00  0.00000000000E+00  0.41933277376E+03  0.41933277376E+03  0.00000000000E+00 0.  1.
          1   -1    0    0  501    0  0.00000000000E+00 -0.00000000000E+00 -0.95923070972E+03  0.95923070972E+03  0.00000000000E+00 0. -1.
         23    2    1    2    0    0  0.35320102831E+03  0.18853640321E+03 -0.80093209264E+03  0.90061393312E+03  0.96520970635E+02 0.  0.
         11    1    3    3    0    0  0.23719309514E+03  0.11381913694E+03 -0.61638641272E+03  0.67018472834E+03  0.00000000000E+00 0. -1.
        -11    1    3    3    0    0  0.11600793317E+03  0.74717266271E+02 -0.18454567992E+03  0.23042920478E+03  0.00000000000E+00 0.  1.
         22    1    1    2    0    0 -0.35320102831E+03 -0.18853640321E+03  0.26103415668E+03  0.47794955036E+03  0.00000000000E+00 0.  1.
<mgrwt>
<rscale>  0 0.12684429E+04</rscale>
<asrwt>0</asrwt>
<pdfrwt beam="1">  1        1 0.14757396E+00 0.12684429E+04</pdfrwt>
<pdfrwt beam="2">  1       -1 0.64512734E-01 0.12684429E+04</pdfrwt>
<totfact> 0.39104706E+01</totfact>
</mgrwt>
</event>
<event>
 6    1  0.9364335E-007  0.1257251E+04  0.7818608E-02  0.9064170E-01
          1   -1    0    0  501    0  0.00000000000E+00  0.00000000000E+00  0.13567318589E+04  0.13567318589E+04  0.00000000000E+00 0. -1.
         -1   -1    0    0    0  501 -0.00000000000E+00 -0.00000000000E+00 -0.29126590927E+03  0.29126590927E+03  0.00000000000E+00 0.  1.
         23    2    1    2    0    0  0.45299509006E+03 -0.18717958870E+03  0.26321235560E+02  0.49905804528E+03  0.90140862406E+02 0.  0.
         13    1    3    3    0    0  0.10426763083E+03 -0.79195891688E+02 -0.14431556332E+02  0.13172698249E+03  0.00000000000E+00 0. -1.
        -13    1    3    3    0    0  0.34872745923E+03 -0.10798369702E+03  0.40752791892E+02  0.36733106279E+03  0.00000000000E+00 0.  1.
         22    1    1    2    0    0 -0.45299509006E+03  0.18717958870E+03  0.10391447140E+04  0.11489397228E+04  0.00000000000E+00 0. -1.
<mgrwt>
<rscale>  0 0.12572506E+04</rscale>
<asrwt>0</asrwt>
<pdfrwt beam="1">  1        1 0.20872797E+00 0.12572506E+04</pdfrwt>
<pdfrwt beam="2">  1       -1 0.44810141E-01 0.12572506E+04</pdfrwt>
<totfact> 0.40090680E+01</totfact>
</mgrwt>
</event>
<event>
 6    1  0.9364335E-007  0.2377493E+04  0.7818608E-02  0.8447978E-01
          2   -1    0    0  501    0  0.00000000000E+00  0.00000000000E+00  0.11980281649E+04  0.11980281649E+04  0.00000000000E+00 0. -1.
         -2   -1    0    0    0  501 -0.00000000000E+00 -0.00000000000E+00 -0.11795364530E+04  0.11795364530E+04  0.00000000000E+00 0.  1.
         23    2    1    2    0    0  0.70559765053E+03 -0.93786086644E+03 -0.16818302624E+03  0.11891629572E+04  0.91498411156E+02 0.  0.
         11    1    3    3    0    0  0.20772716798E+03 -0.34075279334E+03 -0.76382676726E+02  0.40632173925E+03  0.00000000000E+00 0. -1.
        -11    1    3    3    0    0  0.49787048255E+03 -0.59710807310E+03 -0.91800349517E+02  0.78284121795E+03  0.00000000000E+00 0.  1.
         22    1    1    2    0    0 -0.70559765053E+03  0.93786086644E+03  0.18667473814E+03  0.11884016607E+04  0.00000000000E+00 0. -1.
<mgrwt>
<rscale>  0 0.23774927E+04</rscale>
<asrwt>0</asrwt>
<pdfrwt beam="1">  1        2 0.18431202E+00 0.23774927E+04</pdfrwt>
<pdfrwt beam="2">  1       -2 0.18146715E+00 0.23774927E+04</pdfrwt>
<totfact> 0.30310355E+00</totfact>
</mgrwt>
</event>
<event>
 6    1  0.9364335E-007  0.3129649E+04  0.7818608E-02  0.8207648E-01
          1   -1    0    0  501    0  0.00000000000E+00  0.00000000000E+00  0.14249535671E+04  0.14249535671E+04  0.00000000000E+00 0. -1.
         -1   -1    0    0    0  501 -0.00000000000E+00 -0.00000000000E+00 -0.17184249325E+04  0.17184249325E+04  0.00000000000E+00 0.  1.
         23    2    1    2    0    0 -0.10489622558E+04 -0.31085433630E+03 -0.12685850531E+04  0.16778414184E+04  0.94295046748E+02 0.  0.
         11    1    3    3    0    0 -0.51934107369E+03 -0.16855690358E+03 -0.56414837549E+03  0.78510506949E+03  0.00000000000E+00 0.  1.
        -11    1    3    3    0    0 -0.52962118209E+03 -0.14229743271E+03 -0.70443667759E+03  0.89273634888E+03  0.00000000000E+00 0. -1.
         22    1    1    2    0    0  0.10489622558E+04  0.31085433630E+03  0.97511368768E+03  0.14655370812E+04  0.00000000000E+00 0. -1.
<mgrwt>
<rscale>  0 0.31296490E+04</rscale>
<asrwt>0</asrwt>
<pdfrwt beam="1">  1        1 0.21922363E+00 0.31296490E+04</pdfrwt>
<pdfrwt beam="2">  1       -1 0.26437307E+00 0.31296490E+04</pdfrwt>
<totfact> 0.34905901E-01</totfact>
</mgrwt>
</event>
<event>
 6    1  0.9364335E-007  0.1352459E+04  0.7818608E-02  0.8988969E-01
         -2   -1    0    0    0  501 -0.00000000000E+00  0.00000000000E+00  0.23661383355E+03  0.23661383355E+03  0.00000000000E+00 0.  1.
          2   -1    0    0  501    0  0.00000000000E+00 -0.00000000000E+00 -0.19326265782E+04  0.19326265782E+04  0.00000000000E+00 0. -1.
         23    2    1    2    0    0  0.14353716253E+03  0.59227195957E+03 -0.39280819970E+03  0.73058441498E+03  0.89812663569E+02 0.  0.
         13    1    3    3    0    0  0.31561507741E+02  0.24328982376E+03 -0.19960427719E+03  0.31627193140E+03  0.00000000000E+00 0. -1.
        -13    1    3    3    0    0  0.11197565479E+03  0.34898213580E+03 -0.19320392251E+03  0.41431248358E+03  0.00000000000E+00 0.  1.
         22    1    1    2    0    0 -0.14353716253E+03 -0.59227195957E+03 -0.13032045450E+04  0.14386559968E+04  0.00000000000E+00 0. -1.
<mgrwt>
<rscale>  0 0.13524588E+04</rscale>
<asrwt>0</asrwt>
<pdfrwt beam="1">  1        2 0.29732717E+00 0.13524588E+04</pdfrwt>
<pdfrwt beam="2">  1       -2 0.36402128E-01 0.13524588E+04</pdfrwt>
<totfact> 0.50550733E+01</totfact>
</mgrwt>
</event>
<event>
 6    1  0.9364335E-007  0.4702360E+04  0.7818608E-02  0.7876137E-01
         -1   -1    0    0    0  501 -0.00000000000E+00  0.00000000000E+00  0.18025243927E+04  0.18025243927E+04  0.00000000000E+00 0.  1.
          1   -1    0    0  501    0  0.00000000000E+00 -0.00000000000E+00 -0.30668363463E+04  0.30668363463E+04  0.00000000000E+00 0. -1.
         23    2    1    2    0    0  0.18868550983E+04 -0.13888402466E+04 -0.43858148205E+03  0.23852250334E+04  0.88573985053E+02 0.  0.
         11    1    3    3    0    0  0.82426251592E+03 -0.56940179893E+03 -0.21994750661E+03  0.10256724669E+04  0.00000000000E+00 0.  1.
        -11    1    3    3    0    0  0.10625925824E+04 -0.81943844769E+03 -0.21863397544E+03  0.13595525664E+04  0.00000000000E+00 0. -1.
         22    1    1    2    0    0 -0.18868550983E+04  0.13888402466E+04 -0.82573047156E+03  0.24841357057E+04  0.00000000000E+00 0. -1.
<mgrwt>
<rscale>  0 0.47023600E+04</rscale>
<asrwt>0</asrwt>
<pdfrwt beam="1">  1        1 0.47182098E+00 0.47023600E+04</pdfrwt>
<pdfrwt beam="2">  1       -1 0.27731145E+00 0.47023600E+04</pdfrwt>
<totfact> 0.18279802E-02</totfact>
</mgrwt>
</event>
<event>
 6    1  0.9364335E-007  0.3230964E+04  0.7818608E-02  0.8180687E-01
         -2   -1    0    0    0  501 -0.00000000000E+00  0.00000000000E+00  0.10460481433E+04  0.10460481433E+04  0.00000000000E+00 0.  1.
          2   -1    0    0  501    0  0.00000000000E+00 -0.00000000000E+00 -0.24948963692E+04  0.24948963692E+04  0.00000000000E+00 0. -1.
         23    2    1    2    0    0 -0.60319324053E+03 -0.83471174132E+03  0.63725997097E+03  0.12144808473E+04  0.90981763836E+02 0.  0.
         13    1    3    3    0    0 -0.52061378442E+02 -0.12391714019E+03  0.85318282091E+02  0.15920130030E+03  0.00000000000E+00 0. -1.
        -13    1    3    3    0    0 -0.55113186209E+03 -0.71079460113E+03  0.55194168888E+03  0.10552795470E+04  0.00000000000E+00 0.  1.
         22    1    1    2    0    0  0.60319324053E+03  0.83471174132E+03 -0.20861081968E+04  0.23264636652E+04  0.00000000000E+00 0. -1.
<mgrwt>
<rscale>  0 0.32309638E+04</rscale>
<asrwt>0</asrwt>
<pdfrwt beam="1">  1        2 0.38383021E+00 0.32309638E+04</pdfrwt>
<pdfrwt beam="2">  1       -2 0.16093049E+00 0.32309638E+04</pdfrwt>
<totfact> 0.72975613E-01</totfact>
</mgrwt>
</event>
<event>
 6    1  0.9364335E-007  0.1504458E+04  0.7818608E-02  0.8881494E-01
         -2   -1    0    0    0  501 -0.00000000000E+00  0.00000000000E+00  0.77001505111E+03  0.77001505111E+03  0.00000000000E+00 0.  1.
          2   -1    0    0  501    0  0.00000000000E+00 -0.00000000000E+00 -0.73485417366E+03  0.73485417366E+03  0.00000000000E+00 0. -1.
         23    2    1    2    0    0  0.14237085755E+03 -0.73198583146E+03 -0.52297197244E+02  0.75405524424E+03  0.98952493662E+02 0.  0.
         13    1    3    3    0    0  0.98035663625E+02 -0.30940119333E+03 -0.54734524632E+02  0.32914428138E+03  0.00000000000E+00 0. -1.
        -13    1    3    3    0    0  0.44335193921E+02 -0.42258463812E+03  0.24373273885E+01  0.42491096286E+03  0.00000000000E+00 0.  1.
         22    1    1    2    0    0 -0.14237085755E+03  0.73198583146E+03  0.87458074690E+02  0.75081398053E+03  0.00000000000E+00 0.  1.
<mgrwt>
<rscale>  0 0.15044584E+04</rscale>
<asrwt>0</asrwt>
<pdfrwt beam="1">  1        2 0.11305449E+00 0.15044584E+04</pdfrwt>
<pdfrwt beam="2">  1       -2 0.11846385E+00 0.15044584E+04</pdfrwt>
<totfact> 0.20388369E+01</totfact>
</mgrwt>
</event>
<event>
 6    1  0.9364335E-007  0.2534346E+04  0.7818608E-02  0.8390851E-01
          1   -1    0    0  501    0  0.00000000000E+00  0.00000000000E+00  0.25551016088E+04  0.25551016088E+04  0.00000000000E+00 0. -1.
         -1   -1    0    0    0  501 -0.00000000000E+00 -0.00000000000E+00 -0.62843992013E+03  0.62843992013E+03  0.00000000000E+00 0.  1.
         23    2    1    2    0    0  0.35646743474E+03  0.11891937028E+03  0.24826188403E+04  0.25124981600E+04  0.89665206045E+02 0.  0.
         11    1    3    3    0    0  0.27489803940E+03  0.88799357029E+02  0.16246046982E+04  0.16500892956E+04  0.00000000000E+00 0.  1.
        -11    1    3    3    0    0  0.81569395345E+02  0.30120013250E+02  0.85801414205E+03  0.86240886441E+03  0.00000000000E+00 0. -1.
         22    1    1    2    0    0 -0.35646743474E+03 -0.11891937028E+03 -0.55595715158E+03  0.67104336898E+03  0.00000000000E+00 0.  1.
<mgrwt>
<rscale>  0 0.25343463E+04</rscale>
<asrwt>0</asrwt>
<pdfrwt beam="1">  1        1 0.39309255E+00 0.25343463E+04</pdfrwt>
<pdfrwt beam="2">  1       -1 0.96683065E-01 0.25343463E+04</pdfrwt>
<totfact> 0.11302467E+00</totfact>
</mgrwt>
</event>
<event>
 6    1  0.9364335E-007  0.2155807E+04  0.7818608E-02  0.8537051E-01
         -2   -1    0    0    0  501 -0.00000000000E+00  0.00000000000E+00  0.50374004615E+03  0.50374004615E+03  0.00000000000E+00 0.  1.
          2   -1    0    0  501    0  0.00000000000E+00 -0.00000000000E+00 -0.23064991069E+04  0.23064991069E+04  0.00000000000E+00 0. -1.
         23    2    1    2    0    0 -0.22309170518E+03 -0.51427324608E+03  0.29467702870E+03  0.63918295160E+03  0.86448908656E+02 0.  0.
         11    1    3    3    0    0 -0.15667521722E+03 -0.42698869789E+03  0.26127495442E+03  0.52452938300E+03  0.00000000000E+00 0. -1.
        -11    1    3    3    0    0 -0.66416487965E+02 -0.87284548191E+02  0.33402074279E+02  0.11465356860E+03  0.00000000000E+00 0.  1.
         22    1    1    2    0    0  0.22309170518E+03  0.51427324608E+03 -0.20974360894E+04  0.21710562014E+04  0.00000000000E+00 0. -1.
<mgrwt>
<rscale>  0 0.21558070E+04</rscale>
<asrwt>0</asrwt>
<pdfrwt beam="1">  1        2 0.35484601E+00 0.21558070E+04</pdfrwt>
<pdfrwt beam="2">  1       -2 0.77498470E-01 0.21558070E+04</pdfrwt>
<totfact> 0.61210831E+00</totfact>
</mgrwt>
</event>
<event>
 6    1  0.9364335E-007  0.2577407E+04  0.7818608E-02  0.8375916E-01
          2   -1    0    0  501    0  0.00000000000E+00  0.00000000000E+00  0.26641465716E+04  0.26641465716E+04  0.00000000000E+00 0. -1.
         -2   -1    0    0    0  501 -0.00000000000E+00 -0.00000000000E+00 -0.62337266163E+03  0.62337266163E+03  0.00000000000E+00 0.  1.
         23    2    1    2    0    0 -0.44972553933E+03 -0.11301188843E+04  0.15585116336E+04  0.19790855680E+04  0.91648348258E+02 0.  0.
         11    1    3    3    0    0 -0.26372484666E+03 -0.77788598575E+03  0.10402589600E+04  0.13254418529E+04  0.00000000000E+00 0.  1.
        -11    1    3    3    0    0 -0.18600069267E+03 -0.35223289853E+03  0.51825267366E+03  0.65364371506E+03  0.00000000000E+00 0. -1.
         22    1    1    2    0    0  0.44972553933E+03  0.11301188843E+04  0.48226227636E+03  0.13084336653E+04  0.00000000000E+00 0. -1.
<mgrwt>
<rscale>  0 0.25774066E+04</rscale>
<asrwt>0</asrwt>
<pdfrwt beam="1">  1        2 0.40986870E+00 0.25774066E+04</pdfrwt>
<pdfrwt beam="2">  1       -2 0.95903488E-01 0.25774066E+04</pdfrwt>
<totfact> 0.22527185E+00</totfact>
</mgrwt>
</event>
<event>
 6    1  0.9364335E-007  0.2006980E+04  0.7818608E-02  0.8603364E-01
          2   -1    0    0  501    0  0.00000000000E+00  0.00000000000E+00  0.11639198860E+04  0.11639198860E+04  0.00000000000E+00 0. -1.
         -2   -1    0    0    0  501 -0.00000000000E+00 -0.00000000000E+00 -0.86517296819E+03  0.86517296819E+03  0.00000000000E+00 0.  1.
         23    2    1    2    0    0 -0.49519493336E+03 -0.27046381096E+02  0.10291692368E+04  0.11462189714E+04  0.93161599532E+02 0.  0.
         13    1    3    3    0    0 -0.37709399721E+03 -0.58065173035E+02  0.74829257960E+03  0.83994835064E+03  0.00000000000E+00 0.  1.
        -13    1    3    3    0    0 -0.11810093615E+03  0.31018791939E+02  0.28087665723E+03  0.30627062077E+03  0.00000000000E+00 0. -1.
         22    1    1    2    0    0  0.49519493336E+03  0.27046381096E+02 -0.73042231902E+03  0.88287388277E+03  0.00000000000E+00 0.  1.
<mgrwt>
<rscale>  0 0.20069798E+04</rscale>
<asrwt>0</asrwt>
<pdfrwt beam="1">  1        2 0.17906460E+00 0.20069798E+04</pdfrwt>
<pdfrwt beam="2">  1       -2 0.13310353E+00 0.20069798E+04</pdfrwt>
<totfact> 0.75631954E+00</totfact>
</mgrwt>
</event>
<event>
 6    1  0.9364335E-007  0.7849532E+04  0.7818608E-02  0.7495651E-01
         -2   -1    0    0    0  501 -0.00000000000E+00  0.00000000000E+00  0.36492713544E+04  0.36492713544E+04  0.00000000000E+00 0.  1.
          2   -1    0    0  501    0  0.00000000000E+00 -0.00000000000E+00 -0.42210582355E+04  0.42210582355E+04  0.00000000000E+00 0. -1.
         23    2    1    2    0    0  0.38141716502E+04  0.25392322671E+03 -0.11755339593E+04  0.40003305051E+04  0.91551510589E+02 0.  0.
         11    1    3    3    0    0  0.14670798302E+04  0.54529533974E+02 -0.46326803649E+03  0.15394524910E+04  0.00000000000E+00 0. -1.
        -11    1    3    3    0    0  0.23470918199E+04  0.19939369274E+03 -0.71226592278E+03  0.24608780142E+04  0.00000000000E+00 0.  1.
         22    1    1    2    0    0 -0.38141716502E+04 -0.25392322671E+03  0.60374707822E+03  0.38699990848E+04  0.00000000000E+00 0.  1.
<mgrwt>
<rscale>  0 0.78495317E+04</rscale>
<asrwt>0</asrwt>
<pdfrwt beam="1">  1        2 0.64939358E+00 0.78495317E+04</pdfrwt>
<pdfrwt beam="2">  1       -2 0.56142636E+00 0.78495317E+04</pdfrwt>
<totfact> 0.99826678E-05</totfact>
</mgrwt>
</event>
<event>
 6    1  0.9364335E-007  0.3945205E+04  0.7818608E-02  0.8015693E-01
          1   -1    0    0  501    0  0.00000000000E+00  0.00000000000E+00  0.38075756549E+04  0.38075756549E+04  0.00000000000E+00 0. -1.
         -1   -1    0    0    0  501 -0.00000000000E+00 -0.00000000000E+00 -0.10219522452E+04  0.10219522452E+04  0.00000000000E+00 0.  1.
         23    2    1    2    0    0  0.17939471645E+04 -0.80469793068E+03  0.12152681657E+04  0.23132209274E+04  0.91264208230E+02 0.  0.
         13    1    3    3    0    0  0.57663333774E+03 -0.21317669282E+03  0.37002911791E+03  0.71754571747E+03  0.00000000000E+00 0. -1.
        -13    1    3    3    0    0  0.12173138267E+04 -0.59152123785E+03  0.84523904777E+03  0.15956752099E+04  0.00000000000E+00 0.  1.
         22    1    1    2    0    0 -0.17939471645E+04  0.80469793068E+03  0.15703552441E+04  0.25163069728E+04  0.00000000000E+00 0.  1.
<mgrwt>
<rscale>  0 0.39452049E+04</rscale>
<asrwt>0</asrwt>
<pdfrwt beam="1">  1        1 0.58578086E+00 0.39452049E+04</pdfrwt>
<pdfrwt beam="2">  1       -1 0.15722342E+00 0.39452049E+04</pdfrwt>
<totfact> 0.33793276E-02</totfact>
</mgrwt>
</event>
<event>
 6    1  0.9364335E-007  0.2263152E+04  0.7818608E-02  0.8492593E-01
          2   -1    0    0  501    0  0.00000000000E+00  0.00000000000E+00  0.12853611156E+04  0.12853611156E+04  0.00000000000E+00 0. -1.
         -2   -1    0    0    0  501 -0.00000000000E+00 -0.00000000000E+00 -0.99619036976E+03  0.99619036976E+03  0.00000000000E+00 0.  1.
         23    2    1    2    0    0  0.22298913476E+03 -0.77284921539E+03 -0.65474465802E+03  0.10413916757E+04  0.93733617104E+02 0.  0.
         11    1    3    3    0    0  0.10478871472E+03 -0.48744592576E+03 -0.44215645164E+03  0.66639817901E+03  0.00000000000E+00 0. -1.
        -11    1    3    3    0    0  0.11820042005E+03 -0.28540328964E+03 -0.21258820638E+03  0.37499349664E+03  0.00000000000E+00 0.  1.
         22    1    1    2    0    0 -0.22298913476E+03  0.77284921539E+03  0.94391540386E+03  0.12401598097E+04  0.00000000000E+00 0. -1.
<mgrwt>
<rscale>  0 0.22631521E+04</rscale>
<asrwt>0</asrwt>
<pdfrwt beam="1">  1        2 0.19774786E+00 0.22631521E+04</pdfrwt>
<pdfrwt beam="2">  1       -2 0.15326006E+00 0.22631521E+04</pdfrwt>
<totfact> 0.43386510E+00</totfact>
</mgrwt>
</event>
<event>
 6    1  0.9364335E-007  0.1961067E+04  0.7818608E-02  0.8625042E-01
         -2   -1    0    0    0  501 -0.00000000000E+00  0.00000000000E+00  0.10030489128E+04  0.10030489128E+04  0.00000000000E+00 0.  1.
          2   -1    0    0  501    0  0.00000000000E+00 -0.00000000000E+00 -0.95852365505E+03  0.95852365505E+03  0.00000000000E+00 0. -1.
         23    2    1    2    0    0 -0.14505474704E+03 -0.87319119943E+03 -0.39485598833E+03  0.97336225128E+03  0.89549261867E+02 0.  0.
         13    1    3    3    0    0 -0.83675451610E+01 -0.14105812114E+03 -0.31974149657E+02  0.14487841661E+03  0.00000000000E+00 0. -1.
        -13    1    3    3    0    0 -0.13668720187E+03 -0.73213307829E+03 -0.36288183867E+03  0.82848383467E+03  0.00000000000E+00 0.  1.
         22    1    1    2    0    0  0.14505474704E+03  0.87319119943E+03  0.43938124610E+03  0.98821031659E+03  0.00000000000E+00 0.  1.
<mgrwt>
<rscale>  0 0.19610672E+04</rscale>
<asrwt>0</asrwt>
<pdfrwt beam="1">  1        2 0.14746518E+00 0.19610672E+04</pdfrwt>
<pdfrwt beam="2">  1       -2 0.15431522E+00 0.19610672E+04</pdfrwt>
<totfact> 0.69378278E+00</totfact>
</mgrwt>
</event>
<event>
 6    1  0.9364335E-007  0.4488374E+04  0.7818608E-02  0.7912675E-01
         -1   -1    0    0    0  501 -0.00000000000E+00  0.00000000000E+00  0.23429927275E+04  0.23429927275E+04  0.00000000000E+00 0.  1.
          1   -1    0    0  501    0  0.00000000000E+00 -0.00000000000E+00 -0.21495480832E+04  0.21495480832E+04  0.00000000000E+00 0. -1.
         23    2    1    2    0    0 -0.18077689547E+04 -0.50829150183E+03  0.13249296075E+04  0.23001341271E+04  0.93753365717E+02 0.  0.
         13    1    3    3    0    0 -0.11606488249E+04 -0.36838393136E+03  0.83475606215E+03  0.14763570364E+04  0.00000000000E+00 0. -1.
        -13    1    3    3    0    0 -0.64712012978E+03 -0.13990757047E+03  0.49017354533E+03  0.82377709071E+03  0.00000000000E+00 0.  1.
         22    1    1    2    0    0  0.18077689547E+04  0.50829150183E+03 -0.11314849632E+04  0.21924066836E+04  0.00000000000E+00 0.  1.
<mgrwt>
<rscale>  0 0.44883741E+04</rscale>
<asrwt>0</asrwt>
<pdfrwt beam="1">  1        1 0.33069971E+00 0.44883741E+04</pdfrwt>
<pdfrwt beam="2">  1       -1 0.36046042E+00 0.44883741E+04</pdfrwt>
<totfact> 0.23474001E-02</totfact>
</mgrwt>
</event>
<event>
 6    1  0.9364335E-007  0.2581998E+04  0.7818608E-02  0.8374342E-01
          1   -1    0    0  501    0  0.00000000000E+00  0.00000000000E+00  0.15913302896E+04  0.15913302896E+04  0.00000000000E+00 0. -1.
         -1   -1    0    0    0  501 -0.00000000000E+00 -0.00000000000E+00 -0.10473489935E+04  0.10473489935E+04  0.00000000000E+00 0.  1.
         23    2    1    2    0    0 -0.31448797428E+02  0.46841575324E+03 -0.95482410375E+03  0.10680679464E+04  0.93154303189E+02 0.  0.
         13    1    3    3    0    0  0.25386639796E+02  0.29414202375E+03 -0.59854229587E+03  0.66739560349E+03  0.00000000000E+00 0. -1.
        -13    1    3    3    0    0 -0.56835437225E+02  0.17427372949E+03 -0.35628180788E+03  0.40067234287E+03  0.00000000000E+00 0.  1.
         22    1    1    2    0    0  0.31448797428E+02 -0.46841575324E+03  0.14988053998E+04  0.15706113368E+04  0.00000000000E+00 0. -1.
<mgrwt>
<rscale>  0 0.25819978E+04</rscale>
<asrwt>0</asrwt>
<pdfrwt beam="1">  1        1 0.24482005E+00 0.25819978E+04</pdfrwt>
<pdfrwt beam="2">  1       -1 0.16113061E+00 0.25819978E+04</pdfrwt>
<totfact> 0.14299656E+00</totfact>
</mgrwt>
</event>
<event>
 6    1  0.9364335E-007  0.2225573E+04  0.7818608E-02  0.8507859E-01
         -1   -1    0    0    0  501 -0.00000000000E+00  0.00000000000E+00  0.52526743973E+03  0.52526743973E+03  0.00000000000E+00 0.  1.
          1   -1    0    0  501    0  0.00000000000E+00 -0.00000000000E+00 -0.23574549464E+04  0.23574549464E+04  0.00000000000E+00 0. -1.
         23    2    1    2    0    0  0.40715742662E+03  0.71117126645E+03 -0.18891771713E+04  0.20612666283E+04  0.91038387257E+02 0.  0.
         11    1    3    3    0    0  0.26970121472E+03  0.39492705944E+03 -0.11576526097E+04  0.12525436888E+04  0.00000000000E+00 0. -1.
        -11    1    3    3    0    0  0.13745621190E+03  0.31624420702E+03 -0.73152456154E+03  0.80872293945E+03  0.00000000000E+00 0.  1.
         22    1    1    2    0    0 -0.40715742662E+03 -0.71117126645E+03  0.56989664602E+02  0.82145575788E+03  0.00000000000E+00 0.  1.
<mgrwt>
<rscale>  0 0.22255735E+04</rscale>
<asrwt>0</asrwt>
<pdfrwt beam="1">  1        1 0.36268538E+00 0.22255735E+04</pdfrwt>
<pdfrwt beam="2">  1       -1 0.80810375E-01 0.22255735E+04</pdfrwt>
<totfact> 0.23600820E+00</totfact>
</mgrwt>
</event>
<event>
 6    1  0.9364335E-007  0.2905922E+04  0.7818608E-02  0.8271118E-01
          2   -1    0    0  501    0  0.00000000000E+00  0.00000000000E+00  0.13338677194E+04  0.13338677194E+04  0.00000000000E+00 0. -1.
         -2   -1    0    0    0  501 -0.00000000000E+00 -0.00000000000E+00 -0.15826870109E+04  0.15826870109E+04  0.00000000000E+00 0.  1.
         23    2    1    2    0    0  0.11397676262E+04  0.64264821737E+03  0.50628976698E+03  0.14058407722E+04  0.89397849895E+02 0.  0.
         13    1    3    3    0    0  0.64345086140E+03  0.40874078175E+03  0.31423220076E+03  0.82452405283E+03  0.00000000000E+00 0. -1.
        -13    1    3    3    0    0  0.49631676478E+03  0.23390743563E+03  0.19205756623E+03  0.58131671934E+03  0.00000000000E+00 0.  1.
         22    1    1    2    0    0 -0.11397676262E+04 -0.64264821737E+03 -0.75510905847E+03  0.15107139581E+04  0.00000000000E+00 0.  1.
<mgrwt>
<rscale>  0 0.29059216E+04</rscale>
<asrwt>0</asrwt>
<pdfrwt beam="1">  1        2 0.20521042E+00 0.29059216E+04</pdfrwt>
<pdfrwt beam="2">  1       -2 0.24349031E+00 0.29059216E+04</pdfrwt>
<totfact> 0.96056245E-01</totfact>
</mgrwt>
</event>
<event>
 6    1  0.9364335E-007  0.2655831E+04  0.7818608E-02  0.8349480E-01
         -4   -1    0    0    0  501 -0.00000000000E+00  0.00000000000E+00  0.96096970842E+03  0.96096970842E+03  0.00000000000E+00 0.  1.
          4   -1    0    0  501    0  0.00000000000E+00 -0.00000000000E+00 -0.18349792650E+04  0.18349792650E+04  0.00000000000E+00 0. -1.
         23    2    1    2    0    0 -0.11447801032E+04 -0.71862331136E+02 -0.11388868036E+04  0.16187295227E+04  0.86812654525E+02 0.  0.
         11    1    3    3    0    0 -0.10572485355E+04 -0.84219778059E+02 -0.10708559117E+04  0.15071827428E+04  0.00000000000E+00 0. -1.
        -11    1    3    3    0    0 -0.87531567695E+02  0.12357446923E+02 -0.68030891921E+02  0.11154677984E+03  0.00000000000E+00 0.  1.
         22    1    1    2    0    0  0.11447801032E+04  0.71862331136E+02  0.26487724701E+03  0.11772194507E+04  0.00000000000E+00 0.  1.
<mgrwt>
<rscale>  0 0.26558309E+04</rscale>
<asrwt>0</asrwt>
<pdfrwt beam="1">  1        4 0.28230450E+00 0.26558309E+04</pdfrwt>
<pdfrwt beam="2">  1       -4 0.14784149E+00 0.26558309E+04</pdfrwt>
<totfact> 0.21617570E-02</totfact>
</mgrwt>
</event>
<event>
 6    1  0.9364335E-007  0.3343295E+03  0.7818608E-02  0.1069237E+00
          4   -1    0    0  501    0  0.00000000000E+00  0.00000000000E+00  0.13494679815E+03  0.13494679815E+03  0.00000000000E+00 0. -1.
         -4   -1    0    0    0  501 -0.00000000000E+00 -0.00000000000E+00 -0.20707457379E+03  0.20707457379E+03  0.00000000000E+00 0.  1.
         23    2    1    2    0    0  0.21021243956E+02  0.79323827914E+02 -0.17320947815E+03  0.21182278149E+03  0.90184283916E+02 0.  0.
         11    1    3    3    0    0 -0.35658462203E+02  0.28896043889E+02 -0.70764075764E+02  0.84344897284E+02  0.00000000000E+00 0. -1.
        -11    1    3    3    0    0  0.56679706159E+02  0.50427784025E+02 -0.10244540239E+03  0.12747788421E+03  0.00000000000E+00 0.  1.
         22    1    1    2    0    0 -0.21021243956E+02 -0.79323827914E+02  0.10108170251E+03  0.13019859044E+03  0.00000000000E+00 0. -1.
<mgrwt>
<rscale>  0 0.33432948E+03</rscale>
<asrwt>0</asrwt>
<pdfrwt beam="1">  1        4 0.20761046E-01 0.33432948E+03</pdfrwt>
<pdfrwt beam="2">  1       -4 0.31857627E-01 0.33432948E+03</pdfrwt>
<totfact> 0.38302725E+02</totfact>
</mgrwt>
</event>
<event>
 6    1  0.9364335E-007  0.2281888E+04  0.7818608E-02  0.8485097E-01
         -1   -1    0    0    0  501 -0.00000000000E+00  0.00000000000E+00  0.48417733834E+03  0.48417733834E+03  0.00000000000E+00 0.  1.
          1   -1    0    0  501    0  0.00000000000E+00 -0.00000000000E+00 -0.26885866755E+04  0.26885866755E+04  0.00000000000E+00 0. -1.
         23    2    1    2    0    0  0.99029972177E+03 -0.42661450085E+03 -0.16144378403E+04  0.19436343061E+04  0.92797114136E+02 0.  0.
         11    1    3    3    0    0  0.80197975157E+03 -0.32147096342E+03 -0.13432582900E+04  0.15971405498E+04  0.00000000000E+00 0.  1.
        -11    1    3    3    0    0  0.18831997020E+03 -0.10514353743E+03 -0.27117955038E+03  0.34649375634E+03  0.00000000000E+00 0. -1.
         22    1    1    2    0    0 -0.99029972177E+03  0.42661450085E+03 -0.58997149679E+03  0.12291297077E+04  0.00000000000E+00 0. -1.
<mgrwt>
<rscale>  0 0.22818876E+04</rscale>
<asrwt>0</asrwt>
<pdfrwt beam="1">  1        1 0.41362872E+00 0.22818876E+04</pdfrwt>
<pdfrwt beam="2">  1       -1 0.74488821E-01 0.22818876E+04</pdfrwt>
<totfact> 0.16416803E+00</totfact>
</mgrwt>
</event>
<event>
 6    1  0.9364335E-007  0.1177370E+04  0.7818608E-02  0.9132899E-01
         -3   -1    0    0    0  501 -0.00000000000E+00  0.00000000000E+00  0.15047087869E+04  0.15047087869E+04  0.00000000000E+00 0.  1.
          3   -1    0    0  501    0  0.00000000000E+00 -0.00000000000E+00 -0.23031017099E+03  0.23031017099E+03  0.00000000000E+00 0. -1.
         23    2    1    2    0    0 -0.14161470132E+03 -0.55656502261E+03  0.47542505716E+03  0.75105854425E+03  0.90777772103E+02 0.  0.
         11    1    3    3    0    0 -0.11324557013E+03 -0.49864796476E+03  0.38540642067E+03  0.64032215408E+03  0.00000000000E+00 0.  1.
        -11    1    3    3    0    0 -0.28369131193E+02 -0.57917057845E+02  0.90018636481E+02  0.11073639017E+03  0.00000000000E+00 0. -1.
         22    1    1    2    0    0  0.14161470132E+03  0.55656502261E+03  0.79897355876E+03  0.98396041364E+03  0.00000000000E+00 0. -1.
<mgrwt>
<rscale>  0 0.11773695E+04</rscale>
<asrwt>0</asrwt>
<pdfrwt beam="1">  1        3 0.35432335E-01 0.11773695E+04</pdfrwt>
<pdfrwt beam="2">  1       -3 0.23149365E+00 0.11773695E+04</pdfrwt>
<totfact> 0.19235897E+00</totfact>
</mgrwt>
</event>
<event>
 6    1  0.9364335E-007  0.2758047E+04  0.7818608E-02  0.8316413E-01
         -2   -1    0    0    0  501 -0.00000000000E+00  0.00000000000E+00  0.70558596720E+03  0.70558596720E+03  0.00000000000E+00 0.  1.
          2   -1    0    0  501    0  0.00000000000E+00 -0.00000000000E+00 -0.26952151673E+04  0.26952151673E+04  0.00000000000E+00 0. -1.
         23    2    1    2    0    0  0.40530927045E+03 -0.51578040053E+03  0.49762448106E+03  0.82849946076E+03  0.92066313330E+02 0.  0.
         11    1    3    3    0    0  0.32465392876E+03 -0.34961312472E+03  0.37426668401E+03  0.60638689068E+03  0.00000000000E+00 0. -1.
        -11    1    3    3    0    0  0.80655341692E+02 -0.16616727581E+03  0.12335779705E+03  0.22211257008E+03  0.00000000000E+00 0.  1.
         22    1    1    2    0    0 -0.40530927045E+03  0.51578040053E+03 -0.24872536811E+04  0.25723016737E+04  0.00000000000E+00 0. -1.
<mgrwt>
<rscale>  0 0.27580471E+04</rscale>
<asrwt>0</asrwt>
<pdfrwt beam="1">  1        2 0.41464848E+00 0.27580471E+04</pdfrwt>
<pdfrwt beam="2">  1       -2 0.10855169E+00 0.27580471E+04</pdfrwt>
<totfact> 0.15829136E+00</totfact>
</mgrwt>
</event>
<event>
 6    1  0.9364335E-007  0.1148966E+04  0.7818608E-02  0.9158738E-01
          1   -1    0    0  501    0  0.00000000000E+00  0.00000000000E+00  0.53247702161E+03  0.53247702161E+03  0.00000000000E+00 0. -1.
         -1   -1    0    0    0  501 -0.00000000000E+00 -0.00000000000E+00 -0.61980297454E+03  0.61980297454E+03  0.00000000000E+00 0.  1.
         23    2    1    2    0    0  0.15547014369E+03 -0.19976823498E+02 -0.59376563302E+03  0.62213738455E+03  0.99635632393E+02 0.  0.
         13    1    3    3    0    0  0.34362384109E+02 -0.50049145532E+02 -0.17978601439E+03  0.18975958837E+03  0.00000000000E+00 0.  1.
        -13    1    3    3    0    0  0.12110775959E+03  0.30072322034E+02 -0.41397961864E+03  0.43237779618E+03  0.00000000000E+00 0. -1.
         22    1    1    2    0    0 -0.15547014369E+03  0.19976823498E+02  0.50643968009E+03  0.53014261160E+03  0.00000000000E+00 0. -1.
<mgrwt>
<rscale>  0 0.11489662E+04</rscale>
<asrwt>0</asrwt>
<pdfrwt beam="1">  1        1 0.81919542E-01 0.11489662E+04</pdfrwt>
<pdfrwt beam="2">  1       -1 0.95354304E-01 0.11489662E+04</pdfrwt>
<totfact> 0.42845464E+01</totfact>
</mgrwt>
</event>
<event>
 6    1  0.9364335E-007  0.1276215E+04  0.7818608E-02  0.9048643E-01
         -2   -1    0    0    0  501 -0.00000000000E+00  0.00000000000E+00  0.42626218633E+03  0.42626218633E+03  0.00000000000E+00 0.  1.
          2   -1    0    0  501    0  0.00000000000E+00 -0.00000000000E+00 -0.95523624536E+03  0.95523624536E+03  0.00000000000E+00 0. -1.
         23    2    1    2    0    0 -0.31222370699E+03  0.30769170966E+03 -0.76335646019E+03  0.88441399080E+03  0.85540577506E+02 0.  0.
         11    1    3    3    0    0 -0.74180345892E+02  0.12481072422E+03 -0.28062462011E+03  0.31595983607E+03  0.00000000000E+00 0.  1.
        -11    1    3    3    0    0 -0.23804336110E+03  0.18288098544E+03 -0.48273184009E+03  0.56845415473E+03  0.00000000000E+00 0. -1.
         22    1    1    2    0    0  0.31222370699E+03 -0.30769170966E+03  0.23438240116E+03  0.49708444089E+03  0.00000000000E+00 0.  1.
<mgrwt>
<rscale>  0 0.12762149E+04</rscale>
<asrwt>0</asrwt>
<pdfrwt beam="1">  1        2 0.14695942E+00 0.12762149E+04</pdfrwt>
<pdfrwt beam="2">  1       -2 0.65578798E-01 0.12762149E+04</pdfrwt>
<totfact> 0.56652980E+01</totfact>
</mgrwt>
</event>
<event>
 6    1  0.1085691E-006  0.2940991E+04  0.7818608E-02  0.8260785E-01
          2   -1    0    0  501    0  0.00000000000E+00  0.00000000000E+00  0.17580396895E+04  0.17580396895E+04  0.00000000000E+00 0. -1.
         -2   -1    0    0    0  501 -0.00000000000E+00 -0.00000000000E+00 -0.12299820272E+04  0.12299820272E+04  0.00000000000E+00 0.  1.
         23    2    1    2    0    0  0.88226148122E+03 -0.88596961244E+03  0.10479040976E+04  0.16339287392E+04  0.91063997317E+02 0.  0.
         11    1    3    3    0    0  0.59696207272E+03 -0.56137666475E+03  0.64131659306E+03  0.10405740956E+04  0.00000000000E+00 0. -1.
        -11    1    3    3    0    0  0.28529940850E+03 -0.32459294769E+03  0.40658750457E+03  0.59335464358E+03  0.00000000000E+00 0.  1.
         22    1    1    2    0    0 -0.88226148122E+03  0.88596961244E+03 -0.51984643527E+03  0.13540929775E+04  0.00000000000E+00 0.  1.
<mgrwt>
<rscale>  0 0.29409911E+04</rscale>
<asrwt>0</asrwt>
<pdfrwt beam="1">  1        2 0.27046764E+00 0.29409911E+04</pdfrwt>
<pdfrwt beam="2">  1       -2 0.18922800E+00 0.29409911E+04</pdfrwt>
<totfact> 0.12286237E+00</totfact>
</mgrwt>
</event>
<event>
 6    1  0.9364335E-007  0.1356858E+04  0.7818608E-02  0.8985653E-01
          1   -1    0    0  501    0  0.00000000000E+00  0.00000000000E+00  0.10767258707E+04  0.10767258707E+04  0.00000000000E+00 0. -1.
         -1   -1    0    0    0  501 -0.00000000000E+00 -0.00000000000E+00 -0.42746779796E+03  0.42746779796E+03  0.00000000000E+00 0.  1.
         23    2    1    2    0    0  0.41038499607E+02  0.65129462769E+03  0.51930698142E+03  0.83879443762E+03  0.89596412437E+02 0.  0.
         11    1    3    3    0    0 -0.14208793212E+02  0.11184927969E+03  0.57669781129E+02  0.12664104716E+03  0.00000000000E+00 0. -1.
        -11    1    3    3    0    0  0.55247292820E+02  0.53944534801E+03  0.46163720029E+03  0.71215339046E+03  0.00000000000E+00 0.  1.
         22    1    1    2    0    0 -0.41038499607E+02 -0.65129462769E+03  0.12995109131E+03  0.66539923102E+03  0.00000000000E+00 0.  1.
<mgrwt>
<rscale>  0 0.13568576E+04</rscale>
<asrwt>0</asrwt>
<pdfrwt beam="1">  1        1 0.16565013E+00 0.13568576E+04</pdfrwt>
<pdfrwt beam="2">  1       -1 0.65764277E-01 0.13568576E+04</pdfrwt>
<totfact> 0.30275694E+01</totfact>
</mgrwt>
</event>
<event>
 6    1  0.9364335E-007  0.2323986E+04  0.7818608E-02  0.8468523E-01
          2   -1    0    0  501    0  0.00000000000E+00  0.00000000000E+00  0.22601898336E+04  0.22601898336E+04  0.00000000000E+00 0. -1.
         -2   -1    0    0    0  501 -0.00000000000E+00 -0.00000000000E+00 -0.59739579530E+03  0.59739579530E+03  0.00000000000E+00 0.  1.
         23    2    1    2    0    0  0.64779716181E+03  0.65290765536E+03 -0.36322603274E+02  0.92550723221E+03  0.96512880448E+02 0.  0.
         13    1    3    3    0    0  0.30011771988E+03  0.26874654622E+03 -0.57504802585E+02  0.40694244582E+03  0.00000000000E+00 0. -1.
        -13    1    3    3    0    0  0.34767944193E+03  0.38416110914E+03  0.21182199311E+02  0.51856478640E+03  0.00000000000E+00 0.  1.
         22    1    1    2    0    0 -0.64779716181E+03 -0.65290765536E+03  0.16991166416E+04  0.19320783967E+04  0.00000000000E+00 0. -1.
<mgrwt>
<rscale>  0 0.23239861E+04</rscale>
<asrwt>0</asrwt>
<pdfrwt beam="1">  1        2 0.34772151E+00 0.23239861E+04</pdfrwt>
<pdfrwt beam="2">  1       -2 0.91907047E-01 0.23239861E+04</pdfrwt>
<totfact> 0.43494228E+00</totfact>
</mgrwt>
</event>
<event>
 6    1  0.9364335E-007  0.2466057E+04  0.7818608E-02  0.8415179E-01
          1   -1    0    0  501    0  0.00000000000E+00  0.00000000000E+00  0.18564070974E+04  0.18564070974E+04  0.00000000000E+00 0. -1.
         -1   -1    0    0    0  501 -0.00000000000E+00 -0.00000000000E+00 -0.81897953922E+03  0.81897953922E+03  0.00000000000E+00 0.  1.
         23    2    1    2    0    0 -0.82947224038E+03 -0.63641897464E+03 -0.18645069104E+03  0.10657496348E+04  0.89471308001E+02 0.  0.
         13    1    3    3    0    0 -0.27942888981E+03 -0.26042949246E+03 -0.91145290832E+02  0.39269770695E+03  0.00000000000E+00 0. -1.
        -13    1    3    3    0    0 -0.55004335057E+03 -0.37598948218E+03 -0.95305400207E+02  0.67305192781E+03  0.00000000000E+00 0.  1.
         22    1    1    2    0    0  0.82947224038E+03  0.63641897464E+03  0.12238782492E+04  0.16096370018E+04  0.00000000000E+00 0.  1.
<mgrwt>
<rscale>  0 0.24660571E+04</rscale>
<asrwt>0</asrwt>
<pdfrwt beam="1">  1        1 0.28560109E+00 0.24660571E+04</pdfrwt>
<pdfrwt beam="2">  1       -1 0.12599685E+00 0.24660571E+04</pdfrwt>
<totfact> 0.18231290E+00</totfact>
</mgrwt>
</event>
<event>
 6    1  0.9364335E-007  0.6250769E+04  0.7818608E-02  0.7660064E-01
          2   -1    0    0  501    0  0.00000000000E+00  0.00000000000E+00  0.37287241324E+04  0.37287241324E+04  0.00000000000E+00 0. -1.
         -2   -1    0    0    0  501 -0.00000000000E+00 -0.00000000000E+00 -0.26196703381E+04  0.26196703381E+04  0.00000000000E+00 0.  1.
         23    2    1    2    0    0  0.10686145558E+04  0.13392123626E+03 -0.24244086804E+04  0.26544495566E+04  0.92049075801E+02 0.  0.
         13    1    3    3    0    0  0.69634976498E+03  0.42904873510E+02 -0.15644982320E+04  0.17130086226E+04  0.00000000000E+00 0.  1.
        -13    1    3    3    0    0  0.37226479081E+03  0.91016362751E+02 -0.85991044843E+03  0.94144093393E+03  0.00000000000E+00 0. -1.
         22    1    1    2    0    0 -0.10686145558E+04 -0.13392123626E+03  0.35334624747E+04  0.36939449138E+04  0.00000000000E+00 0. -1.
<mgrwt>
<rscale>  0 0.62507689E+04</rscale>
<asrwt>0</asrwt>
<pdfrwt beam="1">  1        2 0.57364987E+00 0.62507689E+04</pdfrwt>
<pdfrwt beam="2">  1       -2 0.40302620E+00 0.62507689E+04</pdfrwt>
<totfact> 0.25969564E-03</totfact>
</mgrwt>
</event>
<event>
 6    1  0.9364335E-007  0.3346573E+03  0.7818608E-02  0.1069095E+00
          4   -1    0    0  501    0  0.00000000000E+00  0.00000000000E+00  0.23111910595E+03  0.23111910595E+03  0.00000000000E+00 0. -1.
         -4   -1    0    0    0  501 -0.00000000000E+00 -0.00000000000E+00 -0.12114477986E+03  0.12114477986E+03  0.00000000000E+00 0.  1.
         23    2    1    2    0    0  0.12734105210E+03  0.58594894043E+02  0.13030448900E+03  0.21062201106E+03  0.87938993236E+02 0.  0.
         11    1    3    3    0    0  0.71947023405E+02 -0.14749474942E+02  0.53893525670E+02  0.91095736987E+02  0.00000000000E+00 0.  1.
        -11    1    3    3    0    0  0.55394028695E+02  0.73344368985E+02  0.76410963334E+02  0.11952627408E+03  0.00000000000E+00 0. -1.
         22    1    1    2    0    0 -0.12734105210E+03 -0.58594894043E+02 -0.20330162906E+02  0.14164187475E+03  0.00000000000E+00 0.  1.
<mgrwt>
<rscale>  0 0.33465728E+03</rscale>
<asrwt>0</asrwt>
<pdfrwt beam="1">  1        4 0.35556786E-01 0.33465728E+03</pdfrwt>
<pdfrwt beam="2">  1       -4 0.18637658E-01 0.33465728E+03</pdfrwt>
<totfact> 0.37646568E+02</totfact>
</mgrwt>
</event>
<event>
 6    1  0.9364335E-007  0.1536758E+04  0.7818608E-02  0.8860371E-01
          1   -1    0    0  501    0  0.00000000000E+00  0.00000000000E+00  0.99520816099E+03  0.99520816099E+03  0.00000000000E+00 0. -1.
         -1   -1    0    0    0  501 -0.00000000000E+00 -0.00000000000E+00 -0.59324904781E+03  0.59324904781E+03  0.00000000000E+00 0.  1.
         23    2    1    2    0    0 -0.64807714776E+03 -0.40406368246E+03  0.14475529501E+03  0.78258795575E+03  0.90655193564E+02 0.  0.
         11    1    3    3    0    0 -0.30278244958E+03 -0.18028211781E+03  0.21457474417E+02  0.35304288264E+03  0.00000000000E+00 0.  1.
        -11    1    3    3    0    0 -0.34529469818E+03 -0.22378156465E+03  0.12329782060E+03  0.42954507311E+03  0.00000000000E+00 0. -1.
         22    1    1    2    0    0  0.64807714776E+03  0.40406368246E+03  0.25720381816E+03  0.80586925305E+03  0.00000000000E+00 0.  1.
<mgrwt>
<rscale>  0 0.15367580E+04</rscale>
<asrwt>0</asrwt>
<pdfrwt beam="1">  1        1 0.15310895E+00 0.15367580E+04</pdfrwt>
<pdfrwt beam="2">  1       -1 0.91269084E-01 0.15367580E+04</pdfrwt>
<totfact> 0.17242423E+01</totfact>
</mgrwt>
</event>
<event>
 6    1  0.9364335E-007  0.1966233E+04  0.7818608E-02  0.8622572E-01
         -1   -1    0    0    0  501 -0.00000000000E+00  0.00000000000E+00  0.96873174784E+03  0.96873174784E+03  0.00000000000E+00 0.  1.
          1   -1    0    0  501    0  0.00000000000E+00 -0.00000000000E+00 -0.99771528781E+03  0.99771528781E+03  0.00000000000E+00 0. -1.
         23    2    1    2    0    0 -0.89254672209E+03  0.37358729763E+03 -0.17647083905E+03  0.98769291766E+03  0.90488797630E+02 0.  0.
         13    1    3    3    0    0 -0.59032678397E+03  0.22634070470E+03 -0.15425918822E+03  0.65077778360E+03  0.00000000000E+00 0.  1.
        -13    1    3    3    0    0 -0.30221993812E+03  0.14724659293E+03 -0.22211650834E+02  0.33691513406E+03  0.00000000000E+00 0. -1.
         22    1    1    2    0    0  0.89254672209E+03 -0.37358729763E+03  0.14748729908E+03  0.97875411798E+03  0.00000000000E+00 0.  1.
<mgrwt>
<rscale>  0 0.19662334E+04</rscale>
<asrwt>0</asrwt>
<pdfrwt beam="1">  1        1 0.15349466E+00 0.19662334E+04</pdfrwt>
<pdfrwt beam="2">  1       -1 0.14903565E+00 0.19662334E+04</pdfrwt>
<totfact> 0.50186833E+00</totfact>
</mgrwt>
</event>
<event>
 6    1  0.9364335E-007  0.3090765E+04  0.7818608E-02  0.8218277E-01
          2   -1    0    0  501    0  0.00000000000E+00  0.00000000000E+00  0.12639481657E+04  0.12639481657E+04  0.00000000000E+00 0. -1.
         -2   -1    0    0    0  501 -0.00000000000E+00 -0.00000000000E+00 -0.18894821457E+04  0.18894821457E+04  0.00000000000E+00 0.  1.
         23    2    1    2    0    0  0.25055452819E+03 -0.15187859007E+04 -0.18961882303E+03  0.15535833788E+04  0.90431372470E+02 0.  0.
         11    1    3    3    0    0  0.20836150808E+03 -0.10081518488E+04 -0.13630259331E+03  0.10384426153E+04  0.00000000000E+00 0. -1.
        -11    1    3    3    0    0  0.42193020104E+02 -0.51063405181E+03 -0.53316229726E+02  0.51514076345E+03  0.00000000000E+00 0.  1.
         22    1    1    2    0    0 -0.25055452819E+03  0.15187859007E+04 -0.43591515694E+03  0.15998469326E+04  0.00000000000E+00 0. -1.
<mgrwt>
<rscale>  0 0.30907653E+04</rscale>
<asrwt>0</asrwt>
<pdfrwt beam="1">  1        2 0.19445356E+00 0.30907653E+04</pdfrwt>
<pdfrwt beam="2">  1       -2 0.29068956E+00 0.30907653E+04</pdfrwt>
<totfact> 0.53433039E-01</totfact>
</mgrwt>
</event>
<event>
 6    1  0.9364335E-007  0.2031715E+04  0.7818608E-02  0.8591935E-01
          2   -1    0    0  501    0  0.00000000000E+00  0.00000000000E+00  0.31067852250E+04  0.31067852250E+04  0.00000000000E+00 0. -1.
         -2   -1    0    0    0  501 -0.00000000000E+00 -0.00000000000E+00 -0.33216545441E+03  0.33216545441E+03  0.00000000000E+00 0.  1.
         23    2    1    2    0    0  0.12455964139E+03 -0.98386680846E+03  0.17461821593E+04  0.20102474487E+04  0.91835018248E+02 0.  0.
         11    1    3    3    0    0  0.70337313539E+02 -0.68005641008E+03  0.11208424431E+04  0.13129020682E+04  0.00000000000E+00 0. -1.
        -11    1    3    3    0    0  0.54222327856E+02 -0.30381039839E+03  0.62533971623E+03  0.69734538050E+03  0.00000000000E+00 0.  1.
         22    1    1    2    0    0 -0.12455964139E+03  0.98386680846E+03  0.10284376113E+04  0.14287032307E+04  0.00000000000E+00 0.  1.
<mgrwt>
<rscale>  0 0.20317153E+04</rscale>
<asrwt>0</asrwt>
<pdfrwt beam="1">  1        2 0.47796694E+00 0.20317153E+04</pdfrwt>
<pdfrwt beam="2">  1       -2 0.51102380E-01 0.20317153E+04</pdfrwt>
<totfact> 0.50102013E+00</totfact>
</mgrwt>
</event>
<event>
 6    1  0.9364335E-007  0.5055669E+03  0.7818608E-02  0.1012336E+00
          2   -1    0    0  501    0  0.00000000000E+00  0.00000000000E+00  0.18302980253E+03  0.18302980253E+03  0.00000000000E+00 0. -1.
         -2   -1    0    0    0  501 -0.00000000000E+00 -0.00000000000E+00 -0.34912055946E+03  0.34912055946E+03  0.00000000000E+00 0.  1.
         23    2    1    2    0    0  0.11452042461E+03 -0.46102611804E+02 -0.30798172215E+03  0.34407212167E+03  0.91063193787E+02 0.  0.
         13    1    3    3    0    0  0.44215373302E+02  0.69603362958E+00 -0.21049257934E+03  0.21508744653E+03  0.00000000000E+00 0. -1.
        -13    1    3    3    0    0  0.70305051309E+02 -0.46798645434E+02 -0.97489142813E+02  0.12898467514E+03  0.00000000000E+00 0.  1.
         22    1    1    2    0    0 -0.11452042461E+03  0.46102611804E+02  0.14189096523E+03  0.18807824032E+03  0.00000000000E+00 0. -1.
<mgrwt>
<rscale>  0 0.50556688E+03</rscale>
<asrwt>0</asrwt>
<pdfrwt beam="1">  1        2 0.28158432E-01 0.50556688E+03</pdfrwt>
<pdfrwt beam="2">  1       -2 0.53710854E-01 0.50556688E+03</pdfrwt>
<totfact> 0.62869644E+02</totfact>
</mgrwt>
</event>
<event>
 6    1  0.9364335E-007  0.4289720E+04  0.7818608E-02  0.7948522E-01
          2   -1    0    0  501    0  0.00000000000E+00  0.00000000000E+00  0.33061735735E+04  0.33061735735E+04  0.00000000000E+00 0. -1.
         -2   -1    0    0    0  501 -0.00000000000E+00 -0.00000000000E+00 -0.13914649826E+04  0.13914649826E+04  0.00000000000E+00 0.  1.
         23    2    1    2    0    0  0.18632547320E+04  0.28728271800E+03  0.20756396283E+04  0.28055105596E+04  0.91433455399E+02 0.  0.
         13    1    3    3    0    0  0.35395359733E+03  0.82155891722E+02  0.36535584197E+03  0.51528402932E+03  0.00000000000E+00 0. -1.
        -13    1    3    3    0    0  0.15093011347E+04  0.20512682627E+03  0.17102837864E+04  0.22902265303E+04  0.00000000000E+00 0.  1.
         22    1    1    2    0    0 -0.18632547320E+04 -0.28728271800E+03 -0.16093103747E+03  0.18921279965E+04  0.00000000000E+00 0.  1.
<mgrwt>
<rscale>  0 0.42897202E+04</rscale>
<asrwt>0</asrwt>
<pdfrwt beam="1">  1        2 0.50864208E+00 0.42897202E+04</pdfrwt>
<pdfrwt beam="2">  1       -2 0.21407154E+00 0.42897202E+04</pdfrwt>
<totfact> 0.91559213E-02</totfact>
</mgrwt>
</event>
<event>
 6    1  0.9364335E-007  0.1317197E+04  0.7818608E-02  0.9016038E-01
         -2   -1    0    0    0  501 -0.00000000000E+00  0.00000000000E+00  0.27325466804E+03  0.27325466804E+03  0.00000000000E+00 0.  1.
          2   -1    0    0  501    0  0.00000000000E+00 -0.00000000000E+00 -0.15873550737E+04  0.15873550737E+04  0.00000000000E+00 0. -1.
         23    2    1    2    0    0  0.25037472049E+03  0.30799922855E+03 -0.13970259496E+04  0.14551129214E+04  0.90117061027E+02 0.  0.
         13    1    3    3    0    0  0.11965827642E+03  0.16894962399E+03 -0.57236903868E+03  0.60866114958E+03  0.00000000000E+00 0.  1.
        -13    1    3    3    0    0  0.13071644407E+03  0.13904960457E+03 -0.82465691096E+03  0.84645177185E+03  0.00000000000E+00 0. -1.
         22    1    1    2    0    0 -0.25037472049E+03 -0.30799922855E+03  0.82925543968E+02  0.40549682032E+03  0.00000000000E+00 0.  1.
<mgrwt>
<rscale>  0 0.13171973E+04</rscale>
<asrwt>0</asrwt>
<pdfrwt beam="1">  1        2 0.24420847E+00 0.13171973E+04</pdfrwt>
<pdfrwt beam="2">  1       -2 0.42039180E-01 0.13171973E+04</pdfrwt>
<totfact> 0.59493088E+01</totfact>
</mgrwt>
</event>
<event>
 6    1  0.9364335E-007  0.4265873E+03  0.7818608E-02  0.1034943E+00
          1   -1    0    0  501    0  0.00000000000E+00  0.00000000000E+00  0.39525794076E+03  0.39525794076E+03  0.00000000000E+00 0. -1.
         -1   -1    0    0    0  501 -0.00000000000E+00 -0.00000000000E+00 -0.11509997133E+03  0.11509997133E+03  0.00000000000E+00 0.  1.
         23    2    1    2    0    0  0.15571699520E+03 -0.76426938401E+02  0.27379350556E+03  0.33677978585E+03  0.91481588104E+02 0.  0.
         13    1    3    3    0    0  0.73556851923E+02  0.10546382386E+02  0.12980985061E+03  0.14957417545E+03  0.00000000000E+00 0.  1.
        -13    1    3    3    0    0  0.82160143272E+02 -0.86973320786E+02  0.14398365495E+03  0.18720561040E+03  0.00000000000E+00 0. -1.
         22    1    1    2    0    0 -0.15571699520E+03  0.76426938401E+02  0.63644638678E+01  0.17357812623E+03  0.00000000000E+00 0.  1.
<mgrwt>
<rscale>  0 0.42658728E+03</rscale>
<asrwt>0</asrwt>
<pdfrwt beam="1">  1        1 0.60808913E-01 0.42658728E+03</pdfrwt>
<pdfrwt beam="2">  1       -1 0.17707688E-01 0.42658728E+03</pdfrwt>
<totfact> 0.15202728E+03</totfact>
</mgrwt>
</event>
<event>
 6    1  0.9364335E-007  0.1089872E+04  0.7818608E-02  0.9215120E-01
          2   -1    0    0  501    0  0.00000000000E+00  0.00000000000E+00  0.22530399108E+04  0.22530399108E+04  0.00000000000E+00 0. -1.
         -2   -1    0    0    0  501 -0.00000000000E+00 -0.00000000000E+00 -0.13180198667E+03  0.13180198667E+03  0.00000000000E+00 0.  1.
         23    2    1    2    0    0 -0.15153174369E+03  0.35864980795E+03  0.18903692257E+04  0.19321920217E+04  0.90987060825E+02 0.  0.
         13    1    3    3    0    0 -0.11605615787E+03  0.26609479009E+03  0.15777478526E+04  0.16042330739E+04  0.00000000000E+00 0.  1.
        -13    1    3    3    0    0 -0.35475585821E+02  0.92555017860E+02  0.31262137313E+03  0.32795894783E+03  0.00000000000E+00 0. -1.
         22    1    1    2    0    0  0.15153174369E+03 -0.35864980795E+03  0.23086869841E+03  0.45264987573E+03  0.00000000000E+00 0.  1.
<mgrwt>
<rscale>  0 0.10898718E+04</rscale>
<asrwt>0</asrwt>
<pdfrwt beam="1">  1        2 0.34662150E+00 0.10898718E+04</pdfrwt>
<pdfrwt beam="2">  1       -2 0.20277230E-01 0.10898718E+04</pdfrwt>
<totfact> 0.10043114E+02</totfact>
</mgrwt>
</event>
<event>
 6    1  0.9364335E-007  0.2994674E+04  0.7818608E-02  0.8245253E-01
          1   -1    0    0  501    0  0.00000000000E+00  0.00000000000E+00  0.25777441882E+04  0.25777441882E+04  0.00000000000E+00 0. -1.
         -1   -1    0    0    0  501 -0.00000000000E+00 -0.00000000000E+00 -0.86975977720E+03  0.86975977720E+03  0.00000000000E+00 0.  1.
         23    2    1    2    0    0  0.12349351384E+04 -0.66011132559E+03  0.14613500272E+04  0.20256599946E+04  0.83323186168E+02 0.  0.
         11    1    3    3    0    0  0.47470396162E+03 -0.20924011526E+03  0.52782328147E+03  0.74008289635E+03  0.00000000000E+00 0. -1.
        -11    1    3    3    0    0  0.76023117677E+03 -0.45087121033E+03  0.93352674573E+03  0.12855770982E+04  0.00000000000E+00 0.  1.
         22    1    1    2    0    0 -0.12349351384E+04  0.66011132559E+03  0.24663438384E+03  0.14218439709E+04  0.00000000000E+00 0.  1.
<mgrwt>
<rscale>  0 0.29946741E+04</rscale>
<asrwt>0</asrwt>
<pdfrwt beam="1">  1        1 0.39657603E+00 0.29946741E+04</pdfrwt>
<pdfrwt beam="2">  1       -1 0.13380920E+00 0.29946741E+04</pdfrwt>
<totfact> 0.47961535E-01</totfact>
</mgrwt>
</event>
<event>
 6    1  0.9364335E-007  0.9208633E+03  0.7818608E-02  0.9399871E-01
         -2   -1    0    0    0  501 -0.00000000000E+00  0.00000000000E+00  0.94375812869E+02  0.94375812869E+02  0.00000000000E+00 0.  1.
          2   -1    0    0  501    0  0.00000000000E+00 -0.00000000000E+00 -0.22463097187E+04  0.22463097187E+04  0.00000000000E+00 0. -1.
         23    2    1    2    0    0 -0.34122954496E+03  0.88071570708E+02 -0.35114733837E+03  0.50573962896E+03  0.90961063903E+02 0.  0.
         11    1    3    3    0    0 -0.65524080217E+02 -0.12340808091E+02 -0.38607124699E+02  0.77046808566E+02  0.00000000000E+00 0. -1.
        -11    1    3    3    0    0 -0.27570546474E+03  0.10041237880E+03 -0.31254021367E+03  0.42869282040E+03  0.00000000000E+00 0.  1.
         22    1    1    2    0    0  0.34122954496E+03 -0.88071570708E+02 -0.18007865674E+04  0.18349459026E+04  0.00000000000E+00 0. -1.
<mgrwt>
<rscale>  0 0.92086330E+03</rscale>
<asrwt>0</asrwt>
<pdfrwt beam="1">  1        2 0.34558607E+00 0.92086330E+03</pdfrwt>
<pdfrwt beam="2">  1       -2 0.14519358E-01 0.92086330E+03</pdfrwt>
<totfact> 0.18270219E+02</totfact>
</mgrwt>
</event>
<event>
 6    1  0.9364335E-007  0.2432492E+04  0.7818608E-02  0.8427438E-01
          1   -1    0    0  501    0  0.00000000000E+00  0.00000000000E+00  0.10750532749E+04  0.10750532749E+04  0.00000000000E+00 0. -1.
         -1   -1    0    0    0  501 -0.00000000000E+00 -0.00000000000E+00 -0.13759821107E+04  0.13759821107E+04  0.00000000000E+00 0.  1.
         23    2    1    2    0    0 -0.11766541157E+04 -0.12299137621E+03  0.12637401115E+03  0.11931683379E+04  0.89657711728E+02 0.  0.
         11    1    3    3    0    0 -0.78704907520E+03 -0.39835453004E+02  0.87213693254E+02  0.79286779376E+03  0.00000000000E+00 0. -1.
        -11    1    3    3    0    0 -0.38960504052E+03 -0.83155923206E+02  0.39160317897E+02  0.40030054417E+03  0.00000000000E+00 0.  1.
         22    1    1    2    0    0  0.11766541157E+04  0.12299137621E+03 -0.42730284695E+03  0.12578670477E+04  0.00000000000E+00 0.  1.
<mgrwt>
<rscale>  0 0.24324918E+04</rscale>
<asrwt>0</asrwt>
<pdfrwt beam="1">  1        1 0.16539281E+00 0.24324918E+04</pdfrwt>
<pdfrwt beam="2">  1       -1 0.21168955E+00 0.24324918E+04</pdfrwt>
<totfact> 0.14816352E+00</totfact>
</mgrwt>
</event>
<event>
 6    1  0.9364335E-007  0.1934393E+04  0.7818608E-02  0.8637924E-01
          1   -1    0    0  501    0  0.00000000000E+00  0.00000000000E+00  0.92196274865E+03  0.92196274865E+03  0.00000000000E+00 0. -1.
         -1   -1    0    0    0  501 -0.00000000000E+00 -0.00000000000E+00 -0.10146497029E+04  0.10146497029E+04  0.00000000000E+00 0.  1.
         23    2    1    2    0    0  0.59103587273E+03 -0.72426434240E+03 -0.28653273801E+03  0.98190913194E+03  0.90345408874E+02 0.  0.
         11    1    3    3    0    0  0.37979846928E+03 -0.39497459563E+03 -0.16706811131E+03  0.57285562079E+03  0.00000000000E+00 0.  1.
        -11    1    3    3    0    0  0.21123740345E+03 -0.32928974678E+03 -0.11946462670E+03  0.40905351114E+03  0.00000000000E+00 0. -1.
         22    1    1    2    0    0 -0.59103587273E+03  0.72426434240E+03  0.19384578379E+03  0.95470331958E+03  0.00000000000E+00 0. -1.
<mgrwt>
<rscale>  0 0.19343932E+04</rscale>
<asrwt>0</asrwt>
<pdfrwt beam="1">  1        1 0.14184042E+00 0.19343932E+04</pdfrwt>
<pdfrwt beam="2">  1       -1 0.15609995E+00 0.19343932E+04</pdfrwt>
<totfact> 0.50980798E+00</totfact>
</mgrwt>
</event>
<event>
 6    1  0.9364335E-007  0.1433365E+04  0.7818608E-02  0.8930015E-01
          1   -1    0    0  501    0  0.00000000000E+00  0.00000000000E+00  0.18022861073E+04  0.18022861073E+04  0.00000000000E+00 0. -1.
         -1   -1    0    0    0  501 -0.00000000000E+00 -0.00000000000E+00 -0.28499011910E+03  0.28499011910E+03  0.00000000000E+00 0.  1.
         23    2    1    2    0    0  0.19920012176E+02  0.48882155961E+02  0.17981737614E+04  0.18014815526E+04  0.95502021972E+02 0.  0.
         11    1    3    3    0    0 -0.27662729120E+02  0.37245319401E+02  0.13178561225E+04  0.13186725143E+04  0.00000000000E+00 0.  1.
        -11    1    3    3    0    0  0.47582741296E+02  0.11636836560E+02  0.48031763894E+03  0.48280903835E+03  0.00000000000E+00 0. -1.
         22    1    1    2    0    0 -0.19920012176E+02 -0.48882155961E+02 -0.28087777322E+03  0.28579467375E+03  0.00000000000E+00 0.  1.
<mgrwt>
<rscale>  0 0.14333649E+04</rscale>
<asrwt>0</asrwt>
<pdfrwt beam="1">  1        1 0.27727478E+00 0.14333649E+04</pdfrwt>
<pdfrwt beam="2">  1       -1 0.43844635E-01 0.14333649E+04</pdfrwt>
<totfact> 0.20302033E+01</totfact>
</mgrwt>
</event>
<event>
 6    1  0.9364335E-007  0.1479500E+04  0.7818608E-02  0.8898201E-01
         -1   -1    0    0    0  501 -0.00000000000E+00  0.00000000000E+00  0.69779967347E+03  0.69779967347E+03  0.00000000000E+00 0.  1.
          1   -1    0    0  501    0  0.00000000000E+00 -0.00000000000E+00 -0.78422252212E+03  0.78422252212E+03  0.00000000000E+00 0. -1.
         23    2    1    2    0    0 -0.12558587562E+03  0.24261411420E+03 -0.73071996062E+03  0.78219922580E+03  0.57013572324E+02 0.  0.
         11    1    3    3    0    0 -0.95056573292E+02  0.15198076809E+03 -0.53753903318E+03  0.56664108410E+03  0.00000000000E+00 0.  1.
        -11    1    3    3    0    0 -0.30529302332E+02  0.90633346106E+02 -0.19318092743E+03  0.21555814170E+03  0.00000000000E+00 0. -1.
         22    1    1    2    0    0  0.12558587562E+03 -0.24261411420E+03  0.64429711196E+03  0.69982296979E+03  0.00000000000E+00 0.  1.
<mgrwt>
<rscale>  0 0.14795002E+04</rscale>
<asrwt>0</asrwt>
<pdfrwt beam="1">  1        1 0.12064962E+00 0.14795002E+04</pdfrwt>
<pdfrwt beam="2">  1       -1 0.10735379E+00 0.14795002E+04</pdfrwt>
<totfact> 0.17884188E+01</totfact>
</mgrwt>
</event>
<event>
 6    1  0.9364335E-007  0.3785485E+04  0.7818608E-02  0.8049277E-01
         -1   -1    0    0    0  501 -0.00000000000E+00  0.00000000000E+00  0.14496953468E+04  0.14496953468E+04  0.00000000000E+00 0.  1.
          1   -1    0    0  501    0  0.00000000000E+00 -0.00000000000E+00 -0.24711913541E+04  0.24711913541E+04  0.00000000000E+00 0. -1.
         23    2    1    2    0    0  0.76095585051E+03 -0.82956013967E+03  0.10630747179E+04  0.15517816082E+04  0.10331733668E+03 0.  0.
         13    1    3    3    0    0  0.42981033985E+03 -0.54020538104E+03  0.63035455570E+03  0.93482920784E+03  0.00000000000E+00 0. -1.
        -13    1    3    3    0    0  0.33114551066E+03 -0.28935475863E+03  0.43272016215E+03  0.61695240036E+03  0.00000000000E+00 0.  1.
         22    1    1    2    0    0 -0.76095585051E+03  0.82956013967E+03 -0.20845707252E+04  0.23691050926E+04  0.00000000000E+00 0. -1.
<mgrwt>
<rscale>  0 0.37854852E+04</rscale>
<asrwt>0</asrwt>
<pdfrwt beam="1">  1        1 0.38018328E+00 0.37854852E+04</pdfrwt>
<pdfrwt beam="2">  1       -1 0.22303006E+00 0.37854852E+04</pdfrwt>
<totfact> 0.11868627E-01</totfact>
</mgrwt>
</event>
<event>
 6    1  0.9364335E-007  0.2700968E+04  0.7818608E-02  0.8334691E-01
         -1   -1    0    0    0  501 -0.00000000000E+00  0.00000000000E+00  0.40863359689E+03  0.40863359689E+03  0.00000000000E+00 0.  1.
          1   -1    0    0  501    0  0.00000000000E+00 -0.00000000000E+00 -0.44631843671E+04  0.44631843671E+04  0.00000000000E+00 0. -1.
         23    2    1    2    0    0  0.97331112475E+03  0.84977674612E+03 -0.13244423373E+04  0.18513962849E+04  0.63762334241E+02 0.  0.
         11    1    3    3    0    0  0.73228963065E+03  0.61140805691E+03 -0.10033924434E+04  0.13845086893E+04  0.00000000000E+00 0.  1.
        -11    1    3    3    0    0  0.24102149410E+03  0.23836868921E+03 -0.32104989386E+03  0.46688759564E+03  0.00000000000E+00 0. -1.
         22    1    1    2    0    0 -0.97331112475E+03 -0.84977674612E+03 -0.27301084330E+04  0.30204216791E+04  0.00000000000E+00 0. -1.
<mgrwt>
<rscale>  0 0.27009680E+04</rscale>
<asrwt>0</asrwt>
<pdfrwt beam="1">  1        1 0.68664376E+00 0.27009680E+04</pdfrwt>
<pdfrwt beam="2">  1       -1 0.62866706E-01 0.27009680E+04</pdfrwt>
<totfact> 0.78887585E-02</totfact>
</mgrwt>
</event>
<event>
 6    1  0.9364335E-007  0.2247329E+04  0.7818608E-02  0.8498983E-01
         -1   -1    0    0    0  501 -0.00000000000E+00  0.00000000000E+00  0.45580349452E+03  0.45580349452E+03  0.00000000000E+00 0.  1.
          1   -1    0    0  501    0  0.00000000000E+00 -0.00000000000E+00 -0.27701013796E+04  0.27701013796E+04  0.00000000000E+00 0. -1.
         23    2    1    2    0    0  0.18591421315E+03  0.92235166449E+03 -0.28181839155E+03  0.98620186272E+03  0.88745820074E+02 0.  0.
         11    1    3    3    0    0  0.12182246464E+03  0.38240409146E+03 -0.11938283979E+03  0.41871931468E+03  0.00000000000E+00 0.  1.
        -11    1    3    3    0    0  0.64091748516E+02  0.53994757303E+03 -0.16243555176E+03  0.56748254803E+03  0.00000000000E+00 0. -1.
         22    1    1    2    0    0 -0.18591421315E+03 -0.92235166449E+03 -0.20324794936E+04  0.22397030114E+04  0.00000000000E+00 0. -1.
<mgrwt>
<rscale>  0 0.22473290E+04</rscale>
<asrwt>0</asrwt>
<pdfrwt beam="1">  1        1 0.42616943E+00 0.22473290E+04</pdfrwt>
<pdfrwt beam="2">  1       -1 0.70123616E-01 0.22473290E+04</pdfrwt>
<totfact> 0.16342782E+00</totfact>
</mgrwt>
</event>
<event>
 6    1  0.9364335E-007  0.7406021E+04  0.7818608E-02  0.7536953E-01
         -2   -1    0    0    0  501 -0.00000000000E+00  0.00000000000E+00  0.27216283444E+04  0.27216283444E+04  0.00000000000E+00 0.  1.
          2   -1    0    0  501    0  0.00000000000E+00 -0.00000000000E+00 -0.50382656339E+04  0.50382656339E+04  0.00000000000E+00 0. -1.
         23    2    1    2    0    0 -0.35832440285E+04  0.20800144751E+03 -0.20656116786E+03  0.35963229618E+04  0.89269027954E+02 0.  0.
         11    1    3    3    0    0 -0.20270697117E+04  0.12814599073E+03 -0.73817352261E+02  0.20324571367E+04  0.00000000000E+00 0. -1.
        -11    1    3    3    0    0 -0.15561743169E+04  0.79855456781E+02 -0.13274381559E+03  0.15638658251E+04  0.00000000000E+00 0.  1.
         22    1    1    2    0    0  0.35832440285E+04 -0.20800144751E+03 -0.21100761216E+04  0.41635710165E+04  0.00000000000E+00 0. -1.
<mgrwt>
<rscale>  0 0.74060209E+04</rscale>
<asrwt>0</asrwt>
<pdfrwt beam="1">  1        2 0.77511778E+00 0.74060209E+04</pdfrwt>
<pdfrwt beam="2">  1       -2 0.41871206E+00 0.74060209E+04</pdfrwt>
<totfact> 0.10133123E-04</totfact>
</mgrwt>
</event>
<event>
 6    1  0.9364335E-007  0.2591258E+04  0.7818608E-02  0.8371177E-01
          2   -1    0    0  501    0  0.00000000000E+00  0.00000000000E+00  0.73305394727E+03  0.73305394727E+03  0.00000000000E+00 0. -1.
         -2   -1    0    0    0  501 -0.00000000000E+00 -0.00000000000E+00 -0.22899461512E+04  0.22899461512E+04  0.00000000000E+00 0.  1.
         23    2    1    2    0    0  0.28036172309E+03  0.12632717724E+04 -0.76888490741E+03  0.15079378007E+04  0.90742179975E+02 0.  0.
         13    1    3    3    0    0  0.76587454482E+02  0.33724945566E+03 -0.15969546042E+03  0.38092712375E+03  0.00000000000E+00 0. -1.
        -13    1    3    3    0    0  0.20377426860E+03  0.92602231674E+03 -0.60918944699E+03  0.11270106770E+04  0.00000000000E+00 0.  1.
         22    1    1    2    0    0 -0.28036172309E+03 -0.12632717724E+04 -0.78800729650E+03  0.15150622977E+04  0.00000000000E+00 0. -1.
<mgrwt>
<rscale>  0 0.25912577E+04</rscale>
<asrwt>0</asrwt>
<pdfrwt beam="1">  1        2 0.11277753E+00 0.25912577E+04</pdfrwt>
<pdfrwt beam="2">  1       -2 0.35229940E+00 0.25912577E+04</pdfrwt>
<totfact> 0.51462269E-01</totfact>
</mgrwt>
</event>
<event>
 6    1  0.9364335E-007  0.2809291E+04  0.7818608E-02  0.8300390E-01
          2   -1    0    0  501    0  0.00000000000E+00  0.00000000000E+00  0.27407054958E+04  0.27407054958E+04  0.00000000000E+00 0. -1.
         -2   -1    0    0    0  501 -0.00000000000E+00 -0.00000000000E+00 -0.71989843312E+03  0.71989843312E+03  0.00000000000E+00 0.  1.
         23    2    1    2    0    0 -0.13354123528E+04 -0.42799334053E+03  0.95220068063E+03  0.16975315959E+04  0.91776529638E+02 0.  0.
         13    1    3    3    0    0 -0.75315425231E+03 -0.21163864314E+03  0.57377429377E+03  0.97017997466E+03  0.00000000000E+00 0.  1.
        -13    1    3    3    0    0 -0.58225810050E+03 -0.21635469739E+03  0.37842638686E+03  0.72735162126E+03  0.00000000000E+00 0. -1.
         22    1    1    2    0    0  0.13354123528E+04  0.42799334053E+03  0.10686063820E+04  0.17630723330E+04  0.00000000000E+00 0.  1.
<mgrwt>
<rscale>  0 0.28092914E+04</rscale>
<asrwt>0</asrwt>
<pdfrwt beam="1">  1        2 0.42164699E+00 0.28092914E+04</pdfrwt>
<pdfrwt beam="2">  1       -2 0.11075361E+00 0.28092914E+04</pdfrwt>
<totfact> 0.14102662E+00</totfact>
</mgrwt>
</event>
<event>
 6    1  0.9364335E-007  0.4364255E+04  0.7818608E-02  0.7934842E-01
          2   -1    0    0  501    0  0.00000000000E+00  0.00000000000E+00  0.14109383538E+04  0.14109383538E+04  0.00000000000E+00 0. -1.
         -2   -1    0    0    0  501 -0.00000000000E+00 -0.00000000000E+00 -0.33748328982E+04  0.33748328982E+04  0.00000000000E+00 0.  1.
         23    2    1    2    0    0  0.17975724741E+04 -0.12212160702E+04 -0.11862101154E+04  0.24776489500E+04  0.94944153095E+02 0.  0.
         13    1    3    3    0    0  0.13462788970E+04 -0.87125403680E+03 -0.89894912213E+03  0.18383851580E+04  0.00000000000E+00 0. -1.
        -13    1    3    3    0    0  0.45129357705E+03 -0.34996203337E+03 -0.28726099325E+03  0.63926379198E+03  0.00000000000E+00 0.  1.
         22    1    1    2    0    0 -0.17975724741E+04  0.12212160702E+04 -0.77768442903E+03  0.23081223019E+04  0.00000000000E+00 0.  1.
<mgrwt>
<rscale>  0 0.43642553E+04</rscale>
<asrwt>0</asrwt>
<pdfrwt beam="1">  1        2 0.21706744E+00 0.43642553E+04</pdfrwt>
<pdfrwt beam="2">  1       -2 0.51920506E+00 0.43642553E+04</pdfrwt>
<totfact> 0.13851415E-02</totfact>
</mgrwt>
</event>
<event>
 6    1  0.9364335E-007  0.2497415E+04  0.7818608E-02  0.8403907E-01
          1   -1    0    0  501    0  0.00000000000E+00  0.00000000000E+00  0.18697645831E+04  0.18697645831E+04  0.00000000000E+00 0. -1.
         -1   -1    0    0    0  501 -0.00000000000E+00 -0.00000000000E+00 -0.83393926412E+03  0.83393926412E+03  0.00000000000E+00 0.  1.
         23    2    1    2    0    0 -0.63143265087E+02 -0.96889931682E+03  0.13657622217E+04  0.16782228294E+04  0.91501151181E+02 0.  0.
         11    1    3    3    0    0 -0.35596999470E+02 -0.23432724453E+03  0.27729420421E+03  0.36478552546E+03  0.00000000000E+00 0.  1.
        -11    1    3    3    0    0 -0.27546265617E+02 -0.73457207229E+03  0.10884680175E+04  0.13134373039E+04  0.00000000000E+00 0. -1.
         22    1    1    2    0    0  0.63143265087E+02  0.96889931682E+03 -0.32993690280E+03  0.10254810178E+04  0.00000000000E+00 0.  1.
<mgrwt>
<rscale>  0 0.24974147E+04</rscale>
<asrwt>0</asrwt>
<pdfrwt beam="1">  1        1 0.28765609E+00 0.24974147E+04</pdfrwt>
<pdfrwt beam="2">  1       -1 0.12829835E+00 0.24974147E+04</pdfrwt>
<totfact> 0.17015647E+00</totfact>
</mgrwt>
</event>
<event>
 6    1  0.9364335E-007  0.2388637E+04  0.7818608E-02  0.8443770E-01
         -1   -1    0    0    0  501 -0.00000000000E+00  0.00000000000E+00  0.49161622882E+03  0.49161622882E+03  0.00000000000E+00 0.  1.
          1   -1    0    0  501    0  0.00000000000E+00 -0.00000000000E+00 -0.29014427715E+04  0.29014427715E+04  0.00000000000E+00 0. -1.
         23    2    1    2    0    0  0.88443583661E+03 -0.79507106670E+03 -0.10795272206E+04  0.16086652555E+04  0.89778249870E+02 0.  0.
         13    1    3    3    0    0  0.40510949303E+03 -0.30451048817E+03 -0.45783101238E+03  0.68297113749E+03  0.00000000000E+00 0. -1.
        -13    1    3    3    0    0  0.47932634357E+03 -0.49056057853E+03 -0.62169620825E+03  0.92569411805E+03  0.00000000000E+00 0.  1.
         22    1    1    2    0    0 -0.88443583661E+03  0.79507106670E+03 -0.13302993221E+04  0.17843937448E+04  0.00000000000E+00 0. -1.
<mgrwt>
<rscale>  0 0.23886367E+04</rscale>
<asrwt>0</asrwt>
<pdfrwt beam="1">  1        1 0.44637580E+00 0.23886367E+04</pdfrwt>
<pdfrwt beam="2">  1       -1 0.75633268E-01 0.23886367E+04</pdfrwt>
<totfact> 0.11107036E+00</totfact>
</mgrwt>
</event>
<event>
 6    1  0.9364335E-007  0.1981184E+04  0.7818608E-02  0.8615469E-01
         -2   -1    0    0    0  501 -0.00000000000E+00  0.00000000000E+00  0.42578373074E+03  0.42578373074E+03  0.00000000000E+00 0.  1.
          2   -1    0    0  501    0  0.00000000000E+00 -0.00000000000E+00 -0.23046263111E+04  0.23046263111E+04  0.00000000000E+00 0. -1.
         23    2    1    2    0    0 -0.90036374126E+03 -0.34840971662E+03 -0.12342088553E+04  0.15695496554E+04  0.90390403989E+02 0.  0.
         11    1    3    3    0    0 -0.48619962294E+03 -0.21501552103E+03 -0.73877880996E+03  0.91017354261E+03  0.00000000000E+00 0. -1.
        -11    1    3    3    0    0 -0.41416411832E+03 -0.13339419560E+03 -0.49543004537E+03  0.65937611283E+03  0.00000000000E+00 0.  1.
         22    1    1    2    0    0  0.90036374126E+03  0.34840971662E+03 -0.64463372501E+03  0.11608603864E+04  0.00000000000E+00 0.  1.
<mgrwt>
<rscale>  0 0.19811839E+04</rscale>
<asrwt>0</asrwt>
<pdfrwt beam="1">  1        2 0.35455790E+00 0.19811839E+04</pdfrwt>
<pdfrwt beam="2">  1       -2 0.65505189E-01 0.19811839E+04</pdfrwt>
<totfact> 0.90041497E+00</totfact>
</mgrwt>
</event>
<event>
 6    1  0.9364335E-007  0.2515662E+04  0.7818608E-02  0.8397427E-01
          2   -1    0    0  501    0  0.00000000000E+00  0.00000000000E+00  0.25595234714E+04  0.25595234714E+04  0.00000000000E+00 0. -1.
         -2   -1    0    0    0  501 -0.00000000000E+00 -0.00000000000E+00 -0.61813786661E+03  0.61813786661E+03  0.00000000000E+00 0.  1.
         23    2    1    2    0    0 -0.94303088630E+03 -0.50019248103E+03  0.13537374587E+03  0.10797627215E+04  0.89787042928E+02 0.  0.
         11    1    3    3    0    0 -0.79310991855E+03 -0.38856017205E+03  0.92641105057E+02  0.88802293020E+03  0.00000000000E+00 0. -1.
        -11    1    3    3    0    0 -0.14992096775E+03 -0.11163230898E+03  0.42732640813E+02  0.19173979131E+03  0.00000000000E+00 0.  1.
         22    1    1    2    0    0  0.94303088630E+03  0.50019248103E+03  0.18060118589E+04  0.20978986165E+04  0.00000000000E+00 0. -1.
<mgrwt>
<rscale>  0 0.25156616E+04</rscale>
<asrwt>0</asrwt>
<pdfrwt beam="1">  1        2 0.39377284E+00 0.25156616E+04</pdfrwt>
<pdfrwt beam="2">  1       -2 0.95098135E-01 0.25156616E+04</pdfrwt>
<totfact> 0.26613311E+00</totfact>
</mgrwt>
</event>
<event>
 6    1  0.9364335E-007  0.4075814E+04  0.7818608E-02  0.7989425E-01
          4   -1    0    0  501    0  0.00000000000E+00  0.00000000000E+00  0.15821706007E+04  0.15821706007E+04  0.00000000000E+00 0. -1.
         -4   -1    0    0    0  501 -0.00000000000E+00 -0.00000000000E+00 -0.26249162629E+04  0.26249162629E+04  0.00000000000E+00 0.  1.
         23    2    1    2    0    0 -0.16772017380E+04 -0.97091109299E+03 -0.11689544572E+04  0.22650254124E+04  0.90617741280E+02 0.  0.
         11    1    3    3    0    0 -0.12472763441E+04 -0.68040903228E+03 -0.83555683251E+03  0.16482748406E+04  0.00000000000E+00 0. -1.
        -11    1    3    3    0    0 -0.42992539399E+03 -0.29050206071E+03 -0.33339762469E+03  0.61675057180E+03  0.00000000000E+00 0.  1.
         22    1    1    2    0    0  0.16772017380E+04  0.97091109299E+03  0.12620879494E+03  0.19420614513E+04  0.00000000000E+00 0.  1.
<mgrwt>
<rscale>  0 0.40758142E+04</rscale>
<asrwt>0</asrwt>
<pdfrwt beam="1">  1        4 0.24341086E+00 0.40758142E+04</pdfrwt>
<pdfrwt beam="2">  1       -4 0.40383327E+00 0.40758142E+04</pdfrwt>
<totfact> 0.68128143E-04</totfact>
</mgrwt>
</event>
<event>
 6    1  0.9364335E-007  0.3647054E+04  0.7818608E-02  0.8079798E-01
         -1   -1    0    0    0  501 -0.00000000000E+00  0.00000000000E+00  0.87763708601E+03  0.87763708601E+03  0.00000000000E+00 0.  1.
          1   -1    0    0  501    0  0.00000000000E+00 -0.00000000000E+00 -0.37888674897E+04  0.37888674897E+04  0.00000000000E+00 0. -1.
         23    2    1    2    0    0  0.14545414104E+04 -0.96988123112E+03 -0.21149035358E+04  0.27454379976E+04  0.90843359658E+02 0.  0.
         13    1    3    3    0    0  0.87761132295E+03 -0.53706295142E+03 -0.12120348044E+04  0.15898637096E+04  0.00000000000E+00 0.  1.
        -13    1    3    3    0    0  0.57693008746E+03 -0.43281827970E+03 -0.90286873132E+03  0.11555742880E+04  0.00000000000E+00 0. -1.
         22    1    1    2    0    0 -0.14545414104E+04  0.96988123112E+03 -0.79632686798E+03  0.19210665782E+04  0.00000000000E+00 0.  1.
<mgrwt>
<rscale>  0 0.36470539E+04</rscale>
<asrwt>0</asrwt>
<pdfrwt beam="1">  1        1 0.58290269E+00 0.36470539E+04</pdfrwt>
<pdfrwt beam="2">  1       -1 0.13502109E+00 0.36470539E+04</pdfrwt>
<totfact> 0.53914906E-02</totfact>
</mgrwt>
</event>
<event>
 6    1  0.9364335E-007  0.5384497E+04  0.7818608E-02  0.7771785E-01
          2   -1    0    0  501    0  0.00000000000E+00  0.00000000000E+00  0.45891013260E+04  0.45891013260E+04  0.00000000000E+00 0. -1.
         -2   -1    0    0    0  501 -0.00000000000E+00 -0.00000000000E+00 -0.15794383522E+04  0.15794383522E+04  0.00000000000E+00 0.  1.
         23    2    1    2    0    0 -0.10575075080E+04  0.35109331110E+02 -0.13298937543E+04  0.17018510400E+04  0.90137506365E+02 0.  0.
         11    1    3    3    0    0 -0.80106509521E+03  0.12235796825E+02 -0.94672639009E+03  0.12402200850E+04  0.00000000000E+00 0.  1.
        -11    1    3    3    0    0 -0.25644241274E+03  0.22873534284E+02 -0.38316736419E+03  0.46163095499E+03  0.00000000000E+00 0. -1.
         22    1    1    2    0    0  0.10575075080E+04 -0.35109331110E+02  0.43395567281E+04  0.44666886382E+04  0.00000000000E+00 0. -1.
<mgrwt>
<rscale>  0 0.53844972E+04</rscale>
<asrwt>0</asrwt>
<pdfrwt beam="1">  1        2 0.70601558E+00 0.53844972E+04</pdfrwt>
<pdfrwt beam="2">  1       -2 0.24299052E+00 0.53844972E+04</pdfrwt>
<totfact> 0.49670362E-03</totfact>
</mgrwt>
</event>
<event>
 6    1  0.9364335E-007  0.1922287E+04  0.7818608E-02  0.8643841E-01
         -1   -1    0    0    0  501 -0.00000000000E+00  0.00000000000E+00  0.74358642104E+03  0.74358642104E+03  0.00000000000E+00 0.  1.
          1   -1    0    0  501    0  0.00000000000E+00 -0.00000000000E+00 -0.12423534191E+04  0.12423534191E+04  0.00000000000E+00 0. -1.
         23    2    1    2    0    0  0.24212973872E+02  0.38576045381E+03 -0.11561807860E+04  0.12233191714E+04  0.10177617277E+03 0.  0.
         11    1    3    3    0    0 -0.32571013692E+02  0.18329791688E+03 -0.46580214138E+03  0.50162798186E+03  0.00000000000E+00 0. -1.
        -11    1    3    3    0    0  0.56783987564E+02  0.20246253693E+03 -0.69037864460E+03  0.72169118951E+03  0.00000000000E+00 0.  1.
         22    1    1    2    0    0 -0.24212973872E+02 -0.38576045381E+03  0.65741378794E+03  0.76262066875E+03  0.00000000000E+00 0.  1.
<mgrwt>
<rscale>  0 0.19222873E+04</rscale>
<asrwt>0</asrwt>
<pdfrwt beam="1">  1        1 0.19113129E+00 0.19222873E+04</pdfrwt>
<pdfrwt beam="2">  1       -1 0.11439791E+00 0.19222873E+04</pdfrwt>
<totfact> 0.64611814E+00</totfact>
</mgrwt>
</event>
<event>
 6    1  0.9364335E-007  0.1276052E+04  0.7818608E-02  0.9048775E-01
          1   -1    0    0  501    0  0.00000000000E+00  0.00000000000E+00  0.11309458953E+04  0.11309458953E+04  0.00000000000E+00 0. -1.
         -1   -1    0    0    0  501 -0.00000000000E+00 -0.00000000000E+00 -0.35994385398E+03  0.35994385398E+03  0.00000000000E+00 0.  1.
         23    2    1    2    0    0  0.35974250572E+03  0.34193044121E+03 -0.74788429990E+02  0.51023047184E+03  0.91710021721E+02 0.  0.
         11    1    3    3    0    0  0.29639776909E+03  0.23629953113E+03 -0.34454050701E+02  0.38062604685E+03  0.00000000000E+00 0.  1.
        -11    1    3    3    0    0  0.63344736634E+02  0.10563091008E+03 -0.40334379289E+02  0.12960442499E+03  0.00000000000E+00 0. -1.
         22    1    1    2    0    0 -0.35974250572E+03 -0.34193044121E+03  0.84579047131E+03  0.98065927743E+03  0.00000000000E+00 0. -1.
<mgrwt>
<rscale>  0 0.12760518E+04</rscale>
<asrwt>0</asrwt>
<pdfrwt beam="1">  1        1 0.17399167E+00 0.12760518E+04</pdfrwt>
<pdfrwt beam="2">  1       -1 0.55375978E-01 0.12760518E+04</pdfrwt>
<totfact> 0.38998382E+01</totfact>
</mgrwt>
</event>
<event>
 6    1  0.9364335E-007  0.6172825E+04  0.7818608E-02  0.7669335E-01
         -2   -1    0    0    0  501 -0.00000000000E+00  0.00000000000E+00  0.21437146338E+04  0.21437146338E+04  0.00000000000E+00 0.  1.
          2   -1    0    0  501    0  0.00000000000E+00 -0.00000000000E+00 -0.44436617915E+04  0.44436617915E+04  0.00000000000E+00 0. -1.
         23    2    1    2    0    0  0.25854307379E+04 -0.24551880319E+03 -0.29285856480E+04  0.39153139383E+04  0.91311306833E+02 0.  0.
         13    1    3    3    0    0  0.15270602627E+04 -0.12602655068E+03 -0.17887742605E+04  0.23553150728E+04  0.00000000000E+00 0. -1.
        -13    1    3    3    0    0  0.10583704752E+04 -0.11949225251E+03 -0.11398113875E+04  0.15599988655E+04  0.00000000000E+00 0.  1.
         22    1    1    2    0    0 -0.25854307379E+04  0.24551880319E+03  0.62863849021E+03  0.26720624870E+04  0.00000000000E+00 0.  1.
<mgrwt>
<rscale>  0 0.61728252E+04</rscale>
<asrwt>0</asrwt>
<pdfrwt beam="1">  1        2 0.68364028E+00 0.61728252E+04</pdfrwt>
<pdfrwt beam="2">  1       -2 0.32980225E+00 0.61728252E+04</pdfrwt>
<totfact> 0.19080333E-03</totfact>
</mgrwt>
</event>
<event>
 6    1  0.9364335E-007  0.2854264E+04  0.7818608E-02  0.8286617E-01
         -2   -1    0    0    0  501 -0.00000000000E+00  0.00000000000E+00  0.15913957348E+04  0.15913957348E+04  0.00000000000E+00 0.  1.
          2   -1    0    0  501    0  0.00000000000E+00 -0.00000000000E+00 -0.12798239798E+04  0.12798239798E+04  0.00000000000E+00 0. -1.
         23    2    1    2    0    0 -0.54588742111E+03 -0.31245821579E+03  0.14430237480E+04  0.15766901375E+04  0.89504408991E+02 0.  0.
         11    1    3    3    0    0 -0.16175930885E+03 -0.52669357433E+02  0.43645500746E+03  0.46843687808E+03  0.00000000000E+00 0. -1.
        -11    1    3    3    0    0 -0.38412811226E+03 -0.25978885836E+03  0.10065687406E+04  0.11082532594E+04  0.00000000000E+00 0.  1.
         22    1    1    2    0    0  0.54588742111E+03  0.31245821579E+03 -0.11314519930E+04  0.12945295770E+04  0.00000000000E+00 0. -1.
<mgrwt>
<rscale>  0 0.28542645E+04</rscale>
<asrwt>0</asrwt>
<pdfrwt beam="1">  1        2 0.19689600E+00 0.28542645E+04</pdfrwt>
<pdfrwt beam="2">  1       -2 0.24483011E+00 0.28542645E+04</pdfrwt>
<totfact> 0.10176565E+00</totfact>
</mgrwt>
</event>
<event>
 6    1  0.9364335E-007  0.4822471E+04  0.7818608E-02  0.7856492E-01
          2   -1    0    0  501    0  0.00000000000E+00  0.00000000000E+00  0.37652477402E+04  0.37652477402E+04  0.00000000000E+00 0. -1.
         -2   -1    0    0    0  501 -0.00000000000E+00 -0.00000000000E+00 -0.15441363705E+04  0.15441363705E+04  0.00000000000E+00 0.  1.
         23    2    1    2    0    0  0.20131379221E+04  0.56132746322E+03 -0.21117810587E+03  0.21025406615E+04  0.90929789582E+02 0.  0.
         11    1    3    3    0    0  0.97688388273E+03  0.23258283564E+03 -0.12589370683E+03  0.10120504539E+04  0.00000000000E+00 0. -1.
        -11    1    3    3    0    0  0.10362540394E+04  0.32874462758E+03 -0.85284399046E+02  0.10904902077E+04  0.00000000000E+00 0.  1.
         22    1    1    2    0    0 -0.20131379221E+04 -0.56132746322E+03  0.24322894756E+04  0.32068434491E+04  0.00000000000E+00 0. -1.
<mgrwt>
<rscale>  0 0.48224707E+04</rscale>
<asrwt>0</asrwt>
<pdfrwt beam="1">  1        2 0.57926888E+00 0.48224707E+04</pdfrwt>
<pdfrwt beam="2">  1       -2 0.23755944E+00 0.48224707E+04</pdfrwt>
<totfact> 0.29458282E-02</totfact>
</mgrwt>
</event>
<event>
 6    1  0.9364335E-007  0.2597581E+04  0.7818608E-02  0.8369023E-01
          2   -1    0    0  501    0  0.00000000000E+00  0.00000000000E+00  0.88859081175E+03  0.88859081175E+03  0.00000000000E+00 0. -1.
         -2   -1    0    0    0  501 -0.00000000000E+00 -0.00000000000E+00 -0.18983507272E+04  0.18983507272E+04  0.00000000000E+00 0.  1.
         23    2    1    2    0    0  0.59854806332E+03 -0.44152343068E+03  0.63353394254E+03  0.98316288632E+03  0.10973276963E+03 0.  0.
         13    1    3    3    0    0  0.30888505142E+03 -0.29516193967E+03  0.35436261409E+03  0.55507063324E+03  0.00000000000E+00 0. -1.
        -13    1    3    3    0    0  0.28966301190E+03 -0.14636149101E+03  0.27917132845E+03  0.42809225308E+03  0.00000000000E+00 0.  1.
         22    1    1    2    0    0 -0.59854806332E+03  0.44152343068E+03 -0.16432938580E+04  0.18037786526E+04  0.00000000000E+00 0.  1.
<mgrwt>
<rscale>  0 0.25975812E+04</rscale>
<asrwt>0</asrwt>
<pdfrwt beam="1">  1        2 0.13670628E+00 0.25975812E+04</pdfrwt>
<pdfrwt beam="2">  1       -2 0.29205395E+00 0.25975812E+04</pdfrwt>
<totfact> 0.93884034E-01</totfact>
</mgrwt>
</event>
<event>
 6    1  0.9364335E-007  0.8144652E+03  0.7818608E-02  0.9539312E-01
          1   -1    0    0  501    0  0.00000000000E+00  0.00000000000E+00  0.16961721257E+04  0.16961721257E+04  0.00000000000E+00 0. -1.
         -1   -1    0    0    0  501 -0.00000000000E+00 -0.00000000000E+00 -0.97772139364E+02  0.97772139364E+02  0.00000000000E+00 0.  1.
         23    2    1    2    0    0 -0.26746914414E+03 -0.29780797240E+03  0.72634617059E+03  0.83440938344E+03  0.91820085791E+02 0.  0.
         11    1    3    3    0    0 -0.19245035819E+03 -0.20484954913E+03  0.58733922049E+03  0.65112812724E+03  0.00000000000E+00 0. -1.
        -11    1    3    3    0    0 -0.75018785953E+02 -0.92958423262E+02  0.13900695009E+03  0.18328125620E+03  0.00000000000E+00 0.  1.
         22    1    1    2    0    0  0.26746914414E+03  0.29780797240E+03  0.87205381575E+03  0.95953488163E+03  0.00000000000E+00 0. -1.
<mgrwt>
<rscale>  0 0.81446517E+03</rscale>
<asrwt>0</asrwt>
<pdfrwt beam="1">  1        1 0.26094954E+00 0.81446517E+03</pdfrwt>
<pdfrwt beam="2">  1       -1 0.15041869E-01 0.81446517E+03</pdfrwt>
<totfact> 0.15978391E+02</totfact>
</mgrwt>
</event>
<event>
 6    1  0.9364335E-007  0.1641956E+04  0.7818608E-02  0.8795180E-01
          1   -1    0    0  501    0  0.00000000000E+00  0.00000000000E+00  0.25080205949E+04  0.25080205949E+04  0.00000000000E+00 0. -1.
         -1   -1    0    0    0  501 -0.00000000000E+00 -0.00000000000E+00 -0.26873970015E+03  0.26873970015E+03  0.00000000000E+00 0.  1.
         23    2    1    2    0    0  0.14213992942E+03  0.20336301716E+03  0.24420296743E+04  0.24563428426E+04  0.92471368169E+02 0.  0.
         13    1    3    3    0    0  0.11007861673E+03  0.77793280335E+02  0.13119201046E+04  0.13188265456E+04  0.00000000000E+00 0.  1.
        -13    1    3    3    0    0  0.32061312690E+02  0.12556973682E+03  0.11301095696E+04  0.11375162970E+04  0.00000000000E+00 0. -1.
         22    1    1    2    0    0 -0.14213992942E+03 -0.20336301716E+03 -0.20274877950E+03  0.32041745251E+03  0.00000000000E+00 0.  1.
<mgrwt>
<rscale>  0 0.16419558E+04</rscale>
<asrwt>0</asrwt>
<pdfrwt beam="1">  1        1 0.38584931E+00 0.16419558E+04</pdfrwt>
<pdfrwt beam="2">  1       -1 0.41344571E-01 0.16419558E+04</pdfrwt>
<totfact> 0.73439541E+00</totfact>
</mgrwt>
</event>
<event>
 6    1  0.9364335E-007  0.2337146E+04  0.7818608E-02  0.8463417E-01
          1   -1    0    0  501    0  0.00000000000E+00  0.00000000000E+00  0.59323476001E+03  0.59323476001E+03  0.00000000000E+00 0. -1.
         -1   -1    0    0    0  501 -0.00000000000E+00 -0.00000000000E+00 -0.23018936895E+04  0.23018936895E+04  0.00000000000E+00 0.  1.
         23    2    1    2    0    0  0.28435675861E+03 -0.74758949600E+03  0.19656121572E+03  0.82882435223E+03  0.92545527356E+02 0.  0.
         13    1    3    3    0    0  0.93273844819E+02 -0.34889484273E+03  0.11681440520E+03  0.37956979157E+03  0.00000000000E+00 0.  1.
        -13    1    3    3    0    0  0.19108291379E+03 -0.39869465328E+03  0.79746810522E+02  0.44925456067E+03  0.00000000000E+00 0. -1.
         22    1    1    2    0    0 -0.28435675861E+03  0.74758949600E+03 -0.19052201452E+04  0.20663040972E+04  0.00000000000E+00 0.  1.
<mgrwt>
<rscale>  0 0.23371464E+04</rscale>
<asrwt>0</asrwt>
<pdfrwt beam="1">  1        1 0.91266888E-01 0.23371464E+04</pdfrwt>
<pdfrwt beam="2">  1       -1 0.35413748E+00 0.23371464E+04</pdfrwt>
<totfact> 0.45778651E-01</totfact>
</mgrwt>
</event>
<event>
 6    1  0.9364335E-007  0.3260923E+04  0.7818608E-02  0.8172910E-01
          1   -1    0    0  501    0  0.00000000000E+00  0.00000000000E+00  0.30741259001E+04  0.30741259001E+04  0.00000000000E+00 0. -1.
         -1   -1    0    0    0  501 -0.00000000000E+00 -0.00000000000E+00 -0.86476786735E+03  0.86476786735E+03  0.00000000000E+00 0.  1.
         23    2    1    2    0    0  0.11462091876E+04 -0.76737666934E+02 -0.28982174063E+03  0.11883331499E+04  0.91950327164E+02 0.  0.
         11    1    3    3    0    0  0.62928501356E+03 -0.53112514000E+02 -0.20501039061E+03  0.66396523078E+03  0.00000000000E+00 0. -1.
        -11    1    3    3    0    0  0.51692417400E+03 -0.23625152935E+02 -0.84811350018E+02  0.52436791912E+03  0.00000000000E+00 0.  1.
         22    1    1    2    0    0 -0.11462091876E+04  0.76737666934E+02  0.24991797733E+04  0.27505606175E+04  0.00000000000E+00 0. -1.
<mgrwt>
<rscale>  0 0.32609234E+04</rscale>
<asrwt>0</asrwt>
<pdfrwt beam="1">  1        1 0.47294244E+00 0.32609234E+04</pdfrwt>
<pdfrwt beam="2">  1       -1 0.13304121E+00 0.32609234E+04</pdfrwt>
<totfact> 0.20971566E-01</totfact>
</mgrwt>
</event>
<event>
 6    1  0.9364335E-007  0.1221129E+04  0.7818608E-02  0.9094561E-01
         -1   -1    0    0    0  501 -0.00000000000E+00  0.00000000000E+00  0.99059639364E+03  0.99059639364E+03  0.00000000000E+00 0.  1.
          1   -1    0    0  501    0  0.00000000000E+00 -0.00000000000E+00 -0.37632793216E+03  0.37632793216E+03  0.00000000000E+00 0. -1.
         23    2    1    2    0    0  0.53024115147E+03 -0.11389876377E+03  0.31934228496E+01  0.54989231299E+03  0.90789596510E+02 0.  0.
         11    1    3    3    0    0  0.18701367604E+03 -0.76909625193E+02 -0.23887718093E+02  0.20361686705E+03  0.00000000000E+00 0.  1.
        -11    1    3    3    0    0  0.34322747544E+03 -0.36989138582E+02  0.27081140943E+02  0.34627544594E+03  0.00000000000E+00 0. -1.
         22    1    1    2    0    0 -0.53024115147E+03  0.11389876377E+03  0.61107503863E+03  0.81703201280E+03  0.00000000000E+00 0.  1.
<mgrwt>
<rscale>  0 0.12211291E+04</rscale>
<asrwt>0</asrwt>
<pdfrwt beam="1">  1        1 0.57896605E-01 0.12211291E+04</pdfrwt>
<pdfrwt beam="2">  1       -1 0.15239944E+00 0.12211291E+04</pdfrwt>
<totfact> 0.21492172E+01</totfact>
</mgrwt>
</event>
<event>
 6    1  0.9364335E-007  0.4205749E+04  0.7818608E-02  0.7964280E-01
          2   -1    0    0  501    0  0.00000000000E+00  0.00000000000E+00  0.24667477375E+04  0.24667477375E+04  0.00000000000E+00 0. -1.
         -2   -1    0    0    0  501 -0.00000000000E+00 -0.00000000000E+00 -0.17926765989E+04  0.17926765989E+04  0.00000000000E+00 0.  1.
         23    2    1    2    0    0 -0.11739426191E+04  0.33355769632E+02 -0.14281311158E+04  0.18514151589E+04  0.94476062570E+02 0.  0.
         11    1    3    3    0    0 -0.52183329982E+03  0.49567621717E+02 -0.58685820766E+03  0.78687324127E+03  0.00000000000E+00 0.  1.
        -11    1    3    3    0    0 -0.65210931929E+03 -0.16211852085E+02 -0.84127290811E+03  0.10645419176E+04  0.00000000000E+00 0. -1.
         22    1    1    2    0    0  0.11739426191E+04 -0.33355769632E+02  0.21022022544E+04  0.24080091775E+04  0.00000000000E+00 0. -1.
<mgrwt>
<rscale>  0 0.42057489E+04</rscale>
<asrwt>0</asrwt>
<pdfrwt beam="1">  1        2 0.37949965E+00 0.42057489E+04</pdfrwt>
<pdfrwt beam="2">  1       -2 0.27579640E+00 0.42057489E+04</pdfrwt>
<totfact> 0.12613835E-01</totfact>
</mgrwt>
</event>
<event>
 6    1  0.9364335E-007  0.1447316E+04  0.7818608E-02  0.8920264E-01
          2   -1    0    0  501    0  0.00000000000E+00  0.00000000000E+00  0.11745095736E+04  0.11745095736E+04  0.00000000000E+00 0. -1.
         -2   -1    0    0    0  501 -0.00000000000E+00 -0.00000000000E+00 -0.44587172104E+03  0.44587172104E+03  0.00000000000E+00 0.  1.
         23    2    1    2    0    0 -0.53272549804E+02  0.48033700088E+03 -0.23292155606E+03  0.54420375572E+03  0.91343732608E+02 0.  0.
         11    1    3    3    0    0 -0.28073879707E+02  0.15085743389E+03 -0.12068803729E+03  0.19522220782E+03  0.00000000000E+00 0. -1.
        -11    1    3    3    0    0 -0.25198670097E+02  0.32947956699E+03 -0.11223351877E+03  0.34898154790E+03  0.00000000000E+00 0.  1.
         22    1    1    2    0    0  0.53272549804E+02 -0.48033700088E+03  0.96155940864E+03  0.10761775389E+04  0.00000000000E+00 0. -1.
<mgrwt>
<rscale>  0 0.14473156E+04</rscale>
<asrwt>0</asrwt>
<pdfrwt beam="1">  1        2 0.18069378E+00 0.14473156E+04</pdfrwt>
<pdfrwt beam="2">  1       -2 0.68595650E-01 0.14473156E+04</pdfrwt>
<totfact> 0.36980764E+01</totfact>
</mgrwt>
</event>
<event>
 6    1  0.9364335E-007  0.2371575E+04  0.7818608E-02  0.8450223E-01
          1   -1    0    0  501    0  0.00000000000E+00  0.00000000000E+00  0.13534541496E+04  0.13534541496E+04  0.00000000000E+00 0. -1.
         -1   -1    0    0    0  501 -0.00000000000E+00 -0.00000000000E+00 -0.10388911547E+04  0.10388911547E+04  0.00000000000E+00 0.  1.
         23    2    1    2    0    0 -0.87064296641E+03  0.63207632879E+03  0.65561929416E+03  0.12636916552E+04  0.97674357482E+02 0.  0.
         13    1    3    3    0    0 -0.13871238562E+03  0.87190353843E+02  0.62349049213E+02  0.17530170469E+03  0.00000000000E+00 0. -1.
        -13    1    3    3    0    0 -0.73193058078E+03  0.54488597495E+03  0.59327024494E+03  0.10883899505E+04  0.00000000000E+00 0.  1.
         22    1    1    2    0    0  0.87064296641E+03 -0.63207632879E+03 -0.34105629931E+03  0.11286536491E+04  0.00000000000E+00 0.  1.
<mgrwt>
<rscale>  0 0.23715746E+04</rscale>
<asrwt>0</asrwt>
<pdfrwt beam="1">  1        1 0.20822372E+00 0.23715746E+04</pdfrwt>
<pdfrwt beam="2">  1       -1 0.15982941E+00 0.23715746E+04</pdfrwt>
<totfact> 0.21820864E+00</totfact>
</mgrwt>
</event>
<event>
 6    1  0.9364335E-007  0.1010372E+04  0.7818608E-02  0.9297241E-01
          1   -1    0    0  501    0  0.00000000000E+00  0.00000000000E+00  0.70674921511E+03  0.70674921511E+03  0.00000000000E+00 0. -1.
         -1   -1    0    0    0  501 -0.00000000000E+00 -0.00000000000E+00 -0.36110825763E+03  0.36110825763E+03  0.00000000000E+00 0.  1.
         23    2    1    2    0    0  0.37052944782E+03  0.21743435840E+03  0.44674072001E+03  0.62650621365E+03  0.91449400817E+02 0.  0.
         11    1    3    3    0    0 -0.54236519449E+01  0.35153310080E+01  0.92331646216E+01  0.11270531551E+02  0.00000000000E+00 0.  1.
        -11    1    3    3    0    0  0.37595309977E+03  0.21391902739E+03  0.43750755539E+03  0.61523568210E+03  0.00000000000E+00 0. -1.
         22    1    1    2    0    0 -0.37052944782E+03 -0.21743435840E+03 -0.10109976254E+03  0.44135125909E+03  0.00000000000E+00 0.  1.
<mgrwt>
<rscale>  0 0.10103722E+04</rscale>
<asrwt>0</asrwt>
<pdfrwt beam="1">  1        1 0.10873065E+00 0.10103722E+04</pdfrwt>
<pdfrwt beam="2">  1       -1 0.55555117E-01 0.10103722E+04</pdfrwt>
<totfact> 0.88138892E+01</totfact>
</mgrwt>
</event>
<event>
 6    1  0.9364335E-007  0.1441088E+04  0.7818608E-02  0.8924602E-01
         -2   -1    0    0    0  501 -0.00000000000E+00  0.00000000000E+00  0.22843929608E+03  0.22843929608E+03  0.00000000000E+00 0.  1.
          2   -1    0    0  501    0  0.00000000000E+00 -0.00000000000E+00 -0.22727420707E+04  0.22727420707E+04  0.00000000000E+00 0. -1.
         23    2    1    2    0    0  0.23794460439E+03 -0.78146588017E+02 -0.21932691399E+04  0.22097787210E+04  0.99839629091E+02 0.  0.
         13    1    3    3    0    0  0.11284669938E+03  0.14369486003E+02 -0.87817153638E+03  0.88550895365E+03  0.00000000000E+00 0.  1.
        -13    1    3    3    0    0  0.12509790501E+03 -0.92516074020E+02 -0.13150976036E+04  0.13242697673E+04  0.00000000000E+00 0. -1.
         22    1    1    2    0    0 -0.23794460439E+03  0.78146588017E+02  0.14896636532E+03  0.29140264579E+03  0.00000000000E+00 0.  1.
<mgrwt>
<rscale>  0 0.14410879E+04</rscale>
<asrwt>0</asrwt>
<pdfrwt beam="1">  1        2 0.34965264E+00 0.14410879E+04</pdfrwt>
<pdfrwt beam="2">  1       -2 0.35144506E-01 0.14410879E+04</pdfrwt>
<totfact> 0.34710223E+01</totfact>
</mgrwt>
</event>
<event>
 6    1  0.9364335E-007  0.1676014E+04  0.7818608E-02  0.8775164E-01
          1   -1    0    0  501    0  0.00000000000E+00  0.00000000000E+00  0.31723634280E+04  0.31723634280E+04  0.00000000000E+00 0. -1.
         -1   -1    0    0    0  501 -0.00000000000E+00 -0.00000000000E+00 -0.22136674113E+03  0.22136674113E+03  0.00000000000E+00 0.  1.
         23    2    1    2    0    0 -0.54997474272E+03 -0.53368466868E+03  0.80574274262E+03  0.11157033852E+04  0.91000731551E+02 0.  0.
         13    1    3    3    0    0 -0.30167516659E+03 -0.24889331426E+03  0.36226863389E+03  0.53309881929E+03  0.00000000000E+00 0. -1.
        -13    1    3    3    0    0 -0.24829957613E+03 -0.28479135442E+03  0.44347410873E+03  0.58260456587E+03  0.00000000000E+00 0.  1.
         22    1    1    2    0    0  0.54997474272E+03  0.53368466868E+03  0.21452539442E+04  0.22780267840E+04  0.00000000000E+00 0. -1.
<mgrwt>
<rscale>  0 0.16760140E+04</rscale>
<asrwt>0</asrwt>
<pdfrwt beam="1">  1        1 0.48805588E+00 0.16760140E+04</pdfrwt>
<pdfrwt beam="2">  1       -1 0.34056424E-01 0.16760140E+04</pdfrwt>
<totfact> 0.34833520E+00</totfact>
</mgrwt>
</event>
<event>
 6    1  0.9364335E-007  0.6381342E+03  0.7818608E-02  0.9829303E-01
          2   -1    0    0  501    0  0.00000000000E+00  0.00000000000E+00  0.13711373856E+04  0.13711373856E+04  0.00000000000E+00 0. -1.
         -2   -1    0    0    0  501 -0.00000000000E+00 -0.00000000000E+00 -0.74247718212E+02  0.74247718212E+02  0.00000000000E+00 0.  1.
         23    2    1    2    0    0 -0.29551941889E+03 -0.10071641798E+03  0.62385213509E+03  0.70345852815E+03  0.90481437699E+02 0.  0.
         11    1    3    3    0    0 -0.56432063265E+02 -0.17709921843E+02  0.21166826294E+03  0.21977641510E+03  0.00000000000E+00 0. -1.
        -11    1    3    3    0    0 -0.23908735563E+03 -0.83006496137E+02  0.41218387215E+03  0.48368211305E+03  0.00000000000E+00 0.  1.
         22    1    1    2    0    0  0.29551941889E+03  0.10071641798E+03  0.67303753225E+03  0.74192657562E+03  0.00000000000E+00 0.  1.
<mgrwt>
<rscale>  0 0.63813422E+03</rscale>
<asrwt>0</asrwt>
<pdfrwt beam="1">  1        2 0.21094419E+00 0.63813422E+03</pdfrwt>
<pdfrwt beam="2">  1       -2 0.11422727E-01 0.63813422E+03</pdfrwt>
<totfact> 0.84207662E+02</totfact>
</mgrwt>
</event>
<event>
 6    1  0.9364335E-007  0.2887619E+04  0.7818608E-02  0.8276571E-01
          2   -1    0    0  501    0  0.00000000000E+00  0.00000000000E+00  0.24408627581E+04  0.24408627581E+04  0.00000000000E+00 0. -1.
         -2   -1    0    0    0  501 -0.00000000000E+00 -0.00000000000E+00 -0.85403665199E+03  0.85403665199E+03  0.00000000000E+00 0.  1.
         23    2    1    2    0    0  0.21961229262E+03  0.14229116887E+04  0.89268842610E+03  0.16965457722E+04  0.92020096969E+02 0.  0.
         13    1    3    3    0    0  0.10883865681E+03  0.98433520501E+03  0.61618101199E+03  0.11663793073E+04  0.00000000000E+00 0.  1.
        -13    1    3    3    0    0  0.11077363581E+03  0.43857648370E+03  0.27650741411E+03  0.53016646490E+03  0.00000000000E+00 0. -1.
         22    1    1    2    0    0 -0.21961229262E+03 -0.14229116887E+04  0.69413768004E+03  0.15983536379E+04  0.00000000000E+00 0.  1.
<mgrwt>
<rscale>  0 0.28876193E+04</rscale>
<asrwt>0</asrwt>
<pdfrwt beam="1">  1        2 0.37551734E+00 0.28876193E+04</pdfrwt>
<pdfrwt beam="2">  1       -2 0.13139026E+00 0.28876193E+04</pdfrwt>
<totfact> 0.13752260E+00</totfact>
</mgrwt>
</event>
<event>
 6    1  0.9364335E-007  0.2620979E+04  0.7818608E-02  0.8361110E-01
         -2   -1    0    0    0  501 -0.00000000000E+00  0.00000000000E+00  0.69409354285E+03  0.69409354285E+03  0.00000000000E+00 0.  1.
          2   -1    0    0  501    0  0.00000000000E+00 -0.00000000000E+00 -0.24742811508E+04  0.24742811508E+04  0.00000000000E+00 0. -1.
         23    2    1    2    0    0  0.85607420739E+03  0.67958028680E+03 -0.20114553375E+02  0.10965277948E+04  0.85300614397E+02 0.  0.
         11    1    3    3    0    0  0.48279807687E+03  0.34085177477E+03  0.15688713346E+02  0.59120220832E+03  0.00000000000E+00 0. -1.
        -11    1    3    3    0    0  0.37327613051E+03  0.33872851203E+03 -0.35803266721E+02  0.50532558651E+03  0.00000000000E+00 0.  1.
         22    1    1    2    0    0 -0.85607420739E+03 -0.67958028680E+03 -0.17600730546E+04  0.20718468989E+04  0.00000000000E+00 0. -1.
<mgrwt>
<rscale>  0 0.26209789E+04</rscale>
<asrwt>0</asrwt>
<pdfrwt beam="1">  1        2 0.38065865E+00 0.26209789E+04</pdfrwt>
<pdfrwt beam="2">  1       -2 0.10678362E+00 0.26209789E+04</pdfrwt>
<totfact> 0.22450549E+00</totfact>
</mgrwt>
</event>
<event>
 6    1  0.9364335E-007  0.2031937E+04  0.7818608E-02  0.8591833E-01
         -2   -1    0    0    0  501 -0.00000000000E+00  0.00000000000E+00  0.62532071722E+03  0.62532071722E+03  0.00000000000E+00 0.  1.
          2   -1    0    0  501    0  0.00000000000E+00 -0.00000000000E+00 -0.16506603186E+04  0.16506603186E+04  0.00000000000E+00 0. -1.
         23    2    1    2    0    0 -0.79268465976E+03  0.24385485290E+03 -0.11676799771E+04  0.14345091458E+04  0.80782432378E+02 0.  0.
         11    1    3    3    0    0 -0.36423281606E+03  0.81148681383E+02 -0.57120758971E+03  0.68229668278E+03  0.00000000000E+00 0.  1.
        -11    1    3    3    0    0 -0.42845184370E+03  0.16270617151E+03 -0.59647238739E+03  0.75221246303E+03  0.00000000000E+00 0. -1.
         22    1    1    2    0    0  0.79268465976E+03 -0.24385485290E+03  0.14234037573E+03  0.84147189000E+03  0.00000000000E+00 0.  1.
<mgrwt>
<rscale>  0 0.20319371E+04</rscale>
<asrwt>0</asrwt>
<pdfrwt beam="1">  1        2 0.25394773E+00 0.20319371E+04</pdfrwt>
<pdfrwt beam="2">  1       -2 0.96203190E-01 0.20319371E+04</pdfrwt>
<totfact> 0.87616576E+00</totfact>
</mgrwt>
</event>
<event>
 6    1  0.9364335E-007  0.3455429E+04  0.7818608E-02  0.8124435E-01
         -1   -1    0    0    0  501 -0.00000000000E+00  0.00000000000E+00  0.61534971168E+03  0.61534971168E+03  0.00000000000E+00 0.  1.
          1   -1    0    0  501    0  0.00000000000E+00 -0.00000000000E+00 -0.48508966097E+04  0.48508966097E+04  0.00000000000E+00 0. -1.
         23    2    1    2    0    0 -0.41038122470E+03  0.81918870080E+03  0.19561955973E+03  0.94134642708E+03  0.91559852162E+02 0.  0.
         11    1    3    3    0    0 -0.56731274049E+02  0.19824244898E+03  0.42692454955E+02  0.21057338802E+03  0.00000000000E+00 0. -1.
        -11    1    3    3    0    0 -0.35364995065E+03  0.62094625183E+03  0.15292710477E+03  0.73077303907E+03  0.00000000000E+00 0.  1.
         22    1    1    2    0    0  0.41038122470E+03 -0.81918870080E+03 -0.44311664578E+04  0.45248998943E+04  0.00000000000E+00 0. -1.
<mgrwt>
<rscale>  0 0.34554293E+04</rscale>
<asrwt>0</asrwt>
<pdfrwt beam="1">  1        1 0.74629178E+00 0.34554293E+04</pdfrwt>
<pdfrwt beam="2">  1       -1 0.94669187E-01 0.34554293E+04</pdfrwt>
<totfact> 0.11614846E-02</totfact>
</mgrwt>
</event>
<event>
 6    1  0.9364335E-007  0.5717334E+04  0.7818608E-02  0.7726472E-01
         -2   -1    0    0    0  501 -0.00000000000E+00  0.00000000000E+00  0.39624605814E+04  0.39624605814E+04  0.00000000000E+00 0.  1.
          2   -1    0    0  501    0  0.00000000000E+00 -0.00000000000E+00 -0.20623491913E+04  0.20623491913E+04  0.00000000000E+00 0. -1.
         23    2    1    2    0    0  0.69979441139E+03  0.18829154619E+04 -0.11920536155E+04  0.23374574330E+04  0.87364604044E+02 0.  0.
         13    1    3    3    0    0  0.40852503623E+03  0.10844205397E+04 -0.73731906180E+03  0.13734991850E+04  0.00000000000E+00 0.  1.
        -13    1    3    3    0    0  0.29126937517E+03  0.79849492223E+03 -0.45473455368E+03  0.96395824808E+03  0.00000000000E+00 0. -1.
         22    1    1    2    0    0 -0.69979441139E+03 -0.18829154619E+04  0.30921650056E+04  0.36873523396E+04  0.00000000000E+00 0. -1.
<mgrwt>
<rscale>  0 0.57173341E+04</rscale>
<asrwt>0</asrwt>
<pdfrwt beam="1">  1        2 0.31728449E+00 0.57173341E+04</pdfrwt>
<pdfrwt beam="2">  1       -2 0.60960932E+00 0.57173341E+04</pdfrwt>
<totfact> 0.20145654E-03</totfact>
</mgrwt>
</event>
<event>
 6    1  0.9364335E-007  0.2988418E+04  0.7818608E-02  0.8247046E-01
          2   -1    0    0  501    0  0.00000000000E+00  0.00000000000E+00  0.12406586728E+04  0.12406586728E+04  0.00000000000E+00 0. -1.
         -2   -1    0    0    0  501 -0.00000000000E+00 -0.00000000000E+00 -0.17995765080E+04  0.17995765080E+04  0.00000000000E+00 0.  1.
         23    2    1    2    0    0  0.14592220050E+04 -0.30717083212E+03 -0.20946268538E+03  0.15086341617E+04  0.91758581818E+02 0.  0.
         11    1    3    3    0    0  0.55058457499E+03 -0.16067592102E+03 -0.71898223771E+02  0.57803934157E+03  0.00000000000E+00 0. -1.
        -11    1    3    3    0    0  0.90863742998E+03 -0.14649491110E+03 -0.13756446161E+03  0.93059482012E+03  0.00000000000E+00 0.  1.
         22    1    1    2    0    0 -0.14592220050E+04  0.30717083212E+03 -0.34945514990E+03  0.15316010191E+04  0.00000000000E+00 0.  1.
<mgrwt>
<rscale>  0 0.29884178E+04</rscale>
<asrwt>0</asrwt>
<pdfrwt beam="1">  1        2 0.19087057E+00 0.29884178E+04</pdfrwt>
<pdfrwt beam="2">  1       -2 0.27685792E+00 0.29884178E+04</pdfrwt>
<totfact> 0.67554963E-01</totfact>
</mgrwt>
</event>
<event>
 6    1  0.9364335E-007  0.2148141E+04  0.7818608E-02  0.8540329E-01
          1   -1    0    0  501    0  0.00000000000E+00  0.00000000000E+00  0.68772896951E+03  0.68772896951E+03  0.00000000000E+00 0. -1.
         -1   -1    0    0    0  501 -0.00000000000E+00 -0.00000000000E+00 -0.16774443481E+04  0.16774443481E+04  0.00000000000E+00 0.  1.
         23    2    1    2    0    0  0.17246944532E+03  0.48194095780E+03  0.54163081920E+03  0.75054209846E+03  0.89088163491E+02 0.  0.
         11    1    3    3    0    0  0.62957335514E+02  0.29429835086E+03  0.28766611985E+03  0.41632552399E+03  0.00000000000E+00 0. -1.
        -11    1    3    3    0    0  0.10951210980E+03  0.18764260694E+03  0.25396469936E+03  0.33421657447E+03  0.00000000000E+00 0.  1.
         22    1    1    2    0    0 -0.17246944532E+03 -0.48194095780E+03 -0.15313461978E+04  0.16146312192E+04  0.00000000000E+00 0.  1.
<mgrwt>
<rscale>  0 0.21481407E+04</rscale>
<asrwt>0</asrwt>
<pdfrwt beam="1">  1        1 0.10580446E+00 0.21481407E+04</pdfrwt>
<pdfrwt beam="2">  1       -1 0.25806836E+00 0.21481407E+04</pdfrwt>
<totfact> 0.15830377E+00</totfact>
</mgrwt>
</event>
<event>
 6    1  0.9364335E-007  0.2767735E+04  0.7818608E-02  0.8313356E-01
          1   -1    0    0  501    0  0.00000000000E+00  0.00000000000E+00  0.60215251654E+03  0.60215251654E+03  0.00000000000E+00 0. -1.
         -1   -1    0    0    0  501 -0.00000000000E+00 -0.00000000000E+00 -0.31804058167E+04  0.31804058167E+04  0.00000000000E+00 0.  1.
         23    2    1    2    0    0 -0.73251670627E+03  0.10701215545E+04 -0.19461546474E+04  0.23398908133E+04  0.76356008493E+02 0.  0.
         13    1    3    3    0    0 -0.13039419503E+03  0.16489311824E+03 -0.36052158113E+03  0.41733463432E+03  0.00000000000E+00 0. -1.
        -13    1    3    3    0    0 -0.60212251123E+03  0.90522843629E+03 -0.15856330662E+04  0.19225561789E+04  0.00000000000E+00 0.  1.
         22    1    1    2    0    0  0.73251670627E+03 -0.10701215545E+04 -0.63209865283E+03  0.14426675200E+04  0.00000000000E+00 0. -1.
<mgrwt>
<rscale>  0 0.27677351E+04</rscale>
<asrwt>0</asrwt>
<pdfrwt beam="1">  1        1 0.92638851E-01 0.27677351E+04</pdfrwt>
<pdfrwt beam="2">  1       -1 0.48929319E+00 0.27677351E+04</pdfrwt>
<totfact> 0.51649249E-02</totfact>
</mgrwt>
</event>
<event>
 6    1  0.9364335E-007  0.4035033E+04  0.7818608E-02  0.7997516E-01
         -2   -1    0    0    0  501 -0.00000000000E+00  0.00000000000E+00  0.12274771203E+04  0.12274771203E+04  0.00000000000E+00 0.  1.
          2   -1    0    0  501    0  0.00000000000E+00 -0.00000000000E+00 -0.33160484233E+04  0.33160484233E+04  0.00000000000E+00 0. -1.
         23    2    1    2    0    0  0.11812411715E+03 -0.69550276278E+03  0.10824800011E+04  0.12949498907E+04  0.86341568789E+02 0.  0.
         13    1    3    3    0    0  0.42272424608E+02 -0.21623679898E+03  0.26867084087E+03  0.34746126669E+03  0.00000000000E+00 0. -1.
        -13    1    3    3    0    0  0.75851692538E+02 -0.47926596381E+03  0.81380916021E+03  0.94748862397E+03  0.00000000000E+00 0.  1.
         22    1    1    2    0    0 -0.11812411715E+03  0.69550276278E+03 -0.31710513040E+04  0.32485756529E+04  0.00000000000E+00 0. -1.
<mgrwt>
<rscale>  0 0.40350334E+04</rscale>
<asrwt>0</asrwt>
<pdfrwt beam="1">  1        2 0.51016129E+00 0.40350334E+04</pdfrwt>
<pdfrwt beam="2">  1       -2 0.18884263E+00 0.40350334E+04</pdfrwt>
<totfact> 0.13472053E-01</totfact>
</mgrwt>
</event>
<event>
 6    1  0.9364335E-007  0.2399357E+04  0.7818608E-02  0.8439744E-01
         -2   -1    0    0    0  501 -0.00000000000E+00  0.00000000000E+00  0.17474647224E+04  0.17474647224E+04  0.00000000000E+00 0.  1.
          2   -1    0    0  501    0  0.00000000000E+00 -0.00000000000E+00 -0.82360976841E+03  0.82360976841E+03  0.00000000000E+00 0. -1.
         23    2    1    2    0    0 -0.76093392553E+03 -0.89681922536E+01 -0.52879809711E+03  0.93116542189E+03  0.91327695343E+02 0.  0.
         11    1    3    3    0    0 -0.52358799325E+03 -0.48130827165E+02 -0.35592268292E+03  0.63493457885E+03  0.00000000000E+00 0. -1.
        -11    1    3    3    0    0 -0.23734593228E+03  0.39162634912E+02 -0.17287541419E+03  0.29623084305E+03  0.00000000000E+00 0.  1.
         22    1    1    2    0    0  0.76093392553E+03  0.89681922536E+01  0.14526530511E+04  0.16399090690E+04  0.00000000000E+00 0.  1.
<mgrwt>
<rscale>  0 0.23993574E+04</rscale>
<asrwt>0</asrwt>
<pdfrwt beam="1">  1        2 0.12670920E+00 0.23993574E+04</pdfrwt>
<pdfrwt beam="2">  1       -2 0.26884073E+00 0.23993574E+04</pdfrwt>
<totfact> 0.14675993E+00</totfact>
</mgrwt>
</event>
<event>
 6    1  0.9364335E-007  0.2911096E+04  0.7818608E-02  0.8269584E-01
         -2   -1    0    0    0  501 -0.00000000000E+00  0.00000000000E+00  0.10415071510E+04  0.10415071510E+04  0.00000000000E+00 0.  1.
          2   -1    0    0  501    0  0.00000000000E+00 -0.00000000000E+00 -0.20341868728E+04  0.20341868728E+04  0.00000000000E+00 0. -1.
         23    2    1    2    0    0 -0.12190456837E+04 -0.62991704312E+03 -0.10056808170E+04  0.17034561112E+04  0.86608064790E+02 0.  0.
         11    1    3    3    0    0 -0.89812481911E+03 -0.49490322080E+03 -0.78237539477E+03  0.12898327981E+04  0.00000000000E+00 0.  1.
        -11    1    3    3    0    0 -0.32092086461E+03 -0.13501382232E+03 -0.22330542226E+03  0.41362331313E+03  0.00000000000E+00 0. -1.
         22    1    1    2    0    0  0.12190456837E+04  0.62991704312E+03  0.13001095200E+02  0.13722379126E+04  0.00000000000E+00 0.  1.
<mgrwt>
<rscale>  0 0.29110961E+04</rscale>
<asrwt>0</asrwt>
<pdfrwt beam="1">  1        2 0.31295182E+00 0.29110961E+04</pdfrwt>
<pdfrwt beam="2">  1       -2 0.16023187E+00 0.29110961E+04</pdfrwt>
<totfact> 0.13835320E+00</totfact>
</mgrwt>
</event>
<event>
 6    1  0.9364335E-007  0.1573334E+04  0.7818608E-02  0.8837099E-01
          2   -1    0    0  501    0  0.00000000000E+00  0.00000000000E+00  0.20940600634E+04  0.20940600634E+04  0.00000000000E+00 0. -1.
         -2   -1    0    0    0  501 -0.00000000000E+00 -0.00000000000E+00 -0.29552403469E+03  0.29552403469E+03  0.00000000000E+00 0.  1.
         23    2    1    2    0    0 -0.90603438254E+02 -0.35815832741E+03  0.19526784125E+04  0.19892764101E+04  0.88211579421E+02 0.  0.
         11    1    3    3    0    0 -0.65025535313E+02 -0.94022210127E+02  0.61267182208E+03  0.62324574432E+03  0.00000000000E+00 0. -1.
        -11    1    3    3    0    0 -0.25577902941E+02 -0.26413611728E+03  0.13400065904E+04  0.13660306658E+04  0.00000000000E+00 0.  1.
         22    1    1    2    0    0  0.90603438254E+02  0.35815832741E+03 -0.15414238383E+03  0.40030768792E+03  0.00000000000E+00 0.  1.
<mgrwt>
<rscale>  0 0.15733341E+04</rscale>
<asrwt>0</asrwt>
<pdfrwt beam="1">  1        2 0.32216308E+00 0.15733341E+04</pdfrwt>
<pdfrwt beam="2">  1       -2 0.45465238E-01 0.15733341E+04</pdfrwt>
<totfact> 0.26113419E+01</totfact>
</mgrwt>
</event>
<event>
 6    1  0.9364335E-007  0.2635549E+04  0.7818608E-02  0.8356225E-01
         -2   -1    0    0    0  501 -0.00000000000E+00  0.00000000000E+00  0.47129493083E+03  0.47129493083E+03  0.00000000000E+00 0.  1.
          2   -1    0    0  501    0  0.00000000000E+00 -0.00000000000E+00 -0.36845910439E+04  0.36845910439E+04  0.00000000000E+00 0. -1.
         23    2    1    2    0    0  0.29274261893E+03  0.85951233431E+03 -0.10673766364E+03  0.91935000344E+03  0.96704737326E+02 0.  0.
         11    1    3    3    0    0  0.67940608078E+02  0.19741145188E+03  0.16192831832E+02  0.20940251995E+03  0.00000000000E+00 0. -1.
        -11    1    3    3    0    0  0.22480201085E+03  0.66210088243E+03 -0.12293049547E+03  0.70994748349E+03  0.00000000000E+00 0.  1.
         22    1    1    2    0    0 -0.29274261893E+03 -0.85951233431E+03 -0.31065584494E+04  0.32365359713E+04  0.00000000000E+00 0. -1.
<mgrwt>
<rscale>  0 0.26355486E+04</rscale>
<asrwt>0</asrwt>
<pdfrwt beam="1">  1        2 0.56686015E+00 0.26355486E+04</pdfrwt>
<pdfrwt beam="2">  1       -2 0.72506913E-01 0.26355486E+04</pdfrwt>
<totfact> 0.91024153E-01</totfact>
</mgrwt>
</event>
<event>
 6    1  0.9364335E-007  0.6328205E+04  0.7818608E-02  0.7650989E-01
          2   -1    0    0  501    0  0.00000000000E+00  0.00000000000E+00  0.26419227389E+04  0.26419227389E+04  0.00000000000E+00 0. -1.
         -2   -1    0    0    0  501 -0.00000000000E+00 -0.00000000000E+00 -0.37894918762E+04  0.37894918762E+04  0.00000000000E+00 0.  1.
         23    2    1    2    0    0 -0.19433905057E+04  0.24319594879E+04 -0.21709448679E+01  0.31143178984E+04  0.88190993248E+02 0.  0.
         13    1    3    3    0    0 -0.10434671085E+04  0.12600635952E+04 -0.34671995291E+02  0.16363942122E+04  0.00000000000E+00 0. -1.
        -13    1    3    3    0    0 -0.89992339721E+03  0.11718958927E+04  0.32501050423E+02  0.14779236863E+04  0.00000000000E+00 0.  1.
         22    1    1    2    0    0  0.19433905057E+04 -0.24319594879E+04 -0.11453981924E+04  0.33170967166E+04  0.00000000000E+00 0.  1.
<mgrwt>
<rscale>  0 0.63282050E+04</rscale>
<asrwt>0</asrwt>
<pdfrwt beam="1">  1        2 0.40644965E+00 0.63282050E+04</pdfrwt>
<pdfrwt beam="2">  1       -2 0.58299875E+00 0.63282050E+04</pdfrwt>
<totfact> 0.11518074E-03</totfact>
</mgrwt>
</event>
<event>
 6    1  0.9508871E-007  0.2677325E+04  0.7818608E-02  0.8342400E-01
         -1   -1    0    0    0  501 -0.00000000000E+00  0.00000000000E+00  0.16143405169E+04  0.16143405169E+04  0.00000000000E+00 0.  1.
          1   -1    0    0  501    0  0.00000000000E+00 -0.00000000000E+00 -0.11100618605E+04  0.11100618605E+04  0.00000000000E+00 0. -1.
         23    2    1    2    0    0  0.70506918028E+03  0.21529701021E+03 -0.88271908971E+03  0.11536579363E+04  0.90875139375E+02 0.  0.
         11    1    3    3    0    0  0.28674920217E+03  0.97744297192E+02 -0.29595237400E+03  0.42351724906E+03  0.00000000000E+00 0.  1.
        -11    1    3    3    0    0  0.41831997811E+03  0.11755271301E+03 -0.58676671572E+03  0.73014068719E+03  0.00000000000E+00 0. -1.
         22    1    1    2    0    0 -0.70506918028E+03 -0.21529701021E+03  0.13869977461E+04  0.15707444411E+04  0.00000000000E+00 0.  1.
<mgrwt>
<rscale>  0 0.26773254E+04</rscale>
<asrwt>0</asrwt>
<pdfrwt beam="1">  1        1 0.17077875E+00 0.26773254E+04</pdfrwt>
<pdfrwt beam="2">  1       -1 0.24836008E+00 0.26773254E+04</pdfrwt>
<totfact> 0.77892316E-01</totfact>
</mgrwt>
</event>
<event>
 6    1  0.9364335E-007  0.1837698E+04  0.7818608E-02  0.8686505E-01
          4   -1    0    0  501    0  0.00000000000E+00  0.00000000000E+00  0.51755099262E+03  0.51755099262E+03  0.00000000000E+00 0. -1.
         -4   -1    0    0    0  501 -0.00000000000E+00 -0.00000000000E+00 -0.16313057499E+04  0.16313057499E+04  0.00000000000E+00 0.  1.
         23    2    1    2    0    0  0.75381540128E+03  0.45595913356E+03 -0.85410863622E+03  0.12304056013E+04  0.90884489526E+02 0.  0.
         13    1    3    3    0    0  0.56113357931E+03  0.30433404371E+03 -0.57800875197E+03  0.86115284436E+03  0.00000000000E+00 0.  1.
        -13    1    3    3    0    0  0.19268182197E+03  0.15162508985E+03 -0.27609988425E+03  0.36925275689E+03  0.00000000000E+00 0. -1.
         22    1    1    2    0    0 -0.75381540128E+03 -0.45595913356E+03 -0.25964612102E+03  0.91845114124E+03  0.00000000000E+00 0. -1.
<mgrwt>
<rscale>  0 0.18376985E+04</rscale>
<asrwt>0</asrwt>
<pdfrwt beam="1">  1        4 0.79623231E-01 0.18376985E+04</pdfrwt>
<pdfrwt beam="2">  1       -4 0.25097011E+00 0.18376985E+04</pdfrwt>
<totfact> 0.16463883E-01</totfact>
</mgrwt>
</event>
<event>
 6    1  0.9364335E-007  0.1230936E+04  0.7818608E-02  0.9086201E-01
          2   -1    0    0  501    0  0.00000000000E+00  0.00000000000E+00  0.63775630533E+03  0.63775630533E+03  0.00000000000E+00 0. -1.
         -2   -1    0    0    0  501 -0.00000000000E+00 -0.00000000000E+00 -0.59395909325E+03  0.59395909325E+03  0.00000000000E+00 0.  1.
         23    2    1    2    0    0 -0.76262137118E+02  0.59434476296E+03  0.14645037301E+03  0.62376862273E+03  0.92617342503E+02 0.  0.
         13    1    3    3    0    0 -0.57917045193E+02  0.43629868206E+03  0.14893383939E+03  0.46464202630E+03  0.00000000000E+00 0. -1.
        -13    1    3    3    0    0 -0.18345091925E+02  0.15804608090E+03 -0.24834663791E+01  0.15912659643E+03  0.00000000000E+00 0.  1.
         22    1    1    2    0    0  0.76262137118E+02 -0.59434476296E+03 -0.10265316093E+03  0.60794677585E+03  0.00000000000E+00 0.  1.
<mgrwt>
<rscale>  0 0.12309365E+04</rscale>
<asrwt>0</asrwt>
<pdfrwt beam="1">  1        2 0.98116355E-01 0.12309365E+04</pdfrwt>
<pdfrwt beam="2">  1       -2 0.91378322E-01 0.12309365E+04</pdfrwt>
<totfact> 0.46268162E+01</totfact>
</mgrwt>
</event>
<event>
 6    1  0.9364335E-007  0.8683114E+03  0.7818608E-02  0.9466084E-01
         -1   -1    0    0    0  501 -0.00000000000E+00  0.00000000000E+00  0.63630971652E+03  0.63630971652E+03  0.00000000000E+00 0.  1.
          1   -1    0    0  501    0  0.00000000000E+00 -0.00000000000E+00 -0.29622550834E+03  0.29622550834E+03  0.00000000000E+00 0. -1.
         23    2    1    2    0    0  0.82662785775E+02 -0.24455410333E+03 -0.19538082323E+03  0.33809208590E+03  0.97430728479E+02 0.  0.
         11    1    3    3    0    0 -0.18327822931E+02 -0.86030233140E+02 -0.61952419887E+02  0.10758816123E+03  0.00000000000E+00 0. -1.
        -11    1    3    3    0    0  0.10099060871E+03 -0.15852387019E+03 -0.13342840334E+03  0.23050392466E+03  0.00000000000E+00 0.  1.
         22    1    1    2    0    0 -0.82662785775E+02  0.24455410333E+03  0.53546503141E+03  0.59444313897E+03  0.00000000000E+00 0.  1.
<mgrwt>
<rscale>  0 0.86831139E+03</rscale>
<asrwt>0</asrwt>
<pdfrwt beam="1">  1        1 0.45573155E-01 0.86831139E+03</pdfrwt>
<pdfrwt beam="2">  1       -1 0.97893802E-01 0.86831139E+03</pdfrwt>
<totfact> 0.90072909E+01</totfact>
</mgrwt>
</event>
<event>
 6    1  0.9364335E-007  0.1946952E+04  0.7818608E-02  0.8631832E-01
         -1   -1    0    0    0  501 -0.00000000000E+00  0.00000000000E+00  0.69521812330E+03  0.69521812330E+03  0.00000000000E+00 0.  1.
          1   -1    0    0  501    0  0.00000000000E+00 -0.00000000000E+00 -0.13631047211E+04  0.13631047211E+04  0.00000000000E+00 0. -1.
         23    2    1    2    0    0  0.11733685783E+03  0.93610648765E+03 -0.57832297343E+03  0.11106494106E+04  0.94980825515E+02 0.  0.
         13    1    3    3    0    0  0.12339025884E+03  0.66747885417E+03 -0.39466133501E+03  0.78518198278E+03  0.00000000000E+00 0. -1.
        -13    1    3    3    0    0 -0.60534010051E+01  0.26862763348E+03 -0.18366163842E+03  0.32546742780E+03  0.00000000000E+00 0.  1.
         22    1    1    2    0    0 -0.11733685783E+03 -0.93610648765E+03 -0.89563624408E+02  0.94767343386E+03  0.00000000000E+00 0.  1.
<mgrwt>
<rscale>  0 0.19469516E+04</rscale>
<asrwt>0</asrwt>
<pdfrwt beam="1">  1        1 0.20970842E+00 0.19469516E+04</pdfrwt>
<pdfrwt beam="2">  1       -1 0.10695664E+00 0.19469516E+04</pdfrwt>
<totfact> 0.61982038E+00</totfact>
</mgrwt>
</event>
<event>
 6    1  0.9364335E-007  0.4913720E+04  0.7818608E-02  0.7841956E-01
         -2   -1    0    0    0  501 -0.00000000000E+00  0.00000000000E+00  0.11769852365E+04  0.11769852365E+04  0.00000000000E+00 0.  1.
          2   -1    0    0  501    0  0.00000000000E+00 -0.00000000000E+00 -0.51284933451E+04  0.51284933451E+04  0.00000000000E+00 0. -1.
         23    2    1    2    0    0 -0.87876600690E+03 -0.22391992391E+04 -0.13401554034E+04  0.27550693265E+04  0.90263843797E+02 0.  0.
         11    1    3    3    0    0 -0.34320713544E+03 -0.78436013369E+03 -0.50892279856E+03  0.99599918275E+03  0.00000000000E+00 0.  1.
        -11    1    3    3    0    0 -0.53555887146E+03 -0.14548391054E+04 -0.83123260487E+03  0.17590701438E+04  0.00000000000E+00 0. -1.
         22    1    1    2    0    0  0.87876600690E+03  0.22391992391E+04 -0.26113527052E+04  0.35504092550E+04  0.00000000000E+00 0. -1.
<mgrwt>
<rscale>  0 0.49137200E+04</rscale>
<asrwt>0</asrwt>
<pdfrwt beam="1">  1        2 0.78899896E+00 0.49137200E+04</pdfrwt>
<pdfrwt beam="2">  1       -2 0.18107465E+00 0.49137200E+04</pdfrwt>
<totfact> 0.29791823E-03</totfact>
</mgrwt>
</event>
<event>
 6    1  0.9364335E-007  0.1393289E+04  0.7818608E-02  0.8958691E-01
          1   -1    0    0  501    0  0.00000000000E+00  0.00000000000E+00  0.13561849151E+04  0.13561849151E+04  0.00000000000E+00 0. -1.
         -1   -1    0    0    0  501 -0.00000000000E+00 -0.00000000000E+00 -0.35785186205E+03  0.35785186205E+03  0.00000000000E+00 0.  1.
         23    2    1    2    0    0  0.53224597151E+03 -0.21853044621E+03  0.97844064223E+03  0.11383310900E+04  0.86082809498E+02 0.  0.
         11    1    3    3    0    0  0.63239429375E+02 -0.20356229390E+02  0.17453241401E+03  0.18674893586E+03  0.00000000000E+00 0.  1.
        -11    1    3    3    0    0  0.46900654214E+03 -0.19817421682E+03  0.80390822822E+03  0.95158215419E+03  0.00000000000E+00 0. -1.
         22    1    1    2    0    0 -0.53224597151E+03  0.21853044621E+03  0.19892410769E+02  0.57570568706E+03  0.00000000000E+00 0.  1.
<mgrwt>
<rscale>  0 0.13932886E+04</rscale>
<asrwt>0</asrwt>
<pdfrwt beam="1">  1        1 0.20864383E+00 0.13932886E+04</pdfrwt>
<pdfrwt beam="2">  1       -1 0.55054133E-01 0.13932886E+04</pdfrwt>
<totfact> 0.26835642E+01</totfact>
</mgrwt>
</event>
<event>
 6    1  0.9364335E-007  0.3217773E+04  0.7818608E-02  0.8184139E-01
         -2   -1    0    0    0  501 -0.00000000000E+00  0.00000000000E+00  0.75651815745E+03  0.75651815745E+03  0.00000000000E+00 0.  1.
          2   -1    0    0  501    0  0.00000000000E+00 -0.00000000000E+00 -0.34216169150E+04  0.34216169150E+04  0.00000000000E+00 0. -1.
         23    2    1    2    0    0 -0.51669144630E+03  0.72311368956E+03  0.40583716907E+03  0.98118169085E+03  0.90278701591E+02 0.  0.
         13    1    3    3    0    0 -0.21564922449E+03  0.32799028903E+03  0.13304143426E+03  0.41446621208E+03  0.00000000000E+00 0. -1.
        -13    1    3    3    0    0 -0.30104222181E+03  0.39512340052E+03  0.27279573480E+03  0.56671547877E+03  0.00000000000E+00 0.  1.
         22    1    1    2    0    0  0.51669144630E+03 -0.72311368956E+03 -0.30709359266E+04  0.31969533816E+04  0.00000000000E+00 0. -1.
<mgrwt>
<rscale>  0 0.32177727E+04</rscale>
<asrwt>0</asrwt>
<pdfrwt beam="1">  1        2 0.52640259E+00 0.32177727E+04</pdfrwt>
<pdfrwt beam="2">  1       -2 0.11638741E+00 0.32177727E+04</pdfrwt>
<totfact> 0.44308828E-01</totfact>
</mgrwt>
</event>
<event>
 6    1  0.9364335E-007  0.2090778E+04  0.7818608E-02  0.8565317E-01
          1   -1    0    0  501    0  0.00000000000E+00  0.00000000000E+00  0.89052148972E+03  0.89052148972E+03  0.00000000000E+00 0. -1.
         -1   -1    0    0    0  501 -0.00000000000E+00 -0.00000000000E+00 -0.12271885684E+04  0.12271885684E+04  0.00000000000E+00 0.  1.
         23    2    1    2    0    0 -0.91020239882E+03 -0.42406071361E+03 -0.45585164326E+03  0.11065222140E+04  0.91075758528E+02 0.  0.
         13    1    3    3    0    0 -0.74532088492E+03 -0.36211401169E+03 -0.41000849110E+03  0.92451973572E+03  0.00000000000E+00 0.  1.
        -13    1    3    3    0    0 -0.16488151390E+03 -0.61946701927E+02 -0.45843152163E+02  0.18200247829E+03  0.00000000000E+00 0. -1.
         22    1    1    2    0    0  0.91020239882E+03  0.42406071361E+03  0.11918456458E+03  0.10111878441E+04  0.00000000000E+00 0.  1.
<mgrwt>
<rscale>  0 0.20907776E+04</rscale>
<asrwt>0</asrwt>
<pdfrwt beam="1">  1        1 0.13700331E+00 0.20907776E+04</pdfrwt>
<pdfrwt beam="2">  1       -1 0.18879824E+00 0.20907776E+04</pdfrwt>
<totfact> 0.30721903E+00</totfact>
</mgrwt>
</event>
<event>
 6    1  0.9364335E-007  0.8312528E+03  0.7818608E-02  0.9515850E-01
          1   -1    0    0  501    0  0.00000000000E+00  0.00000000000E+00  0.49422071848E+03  0.49422071848E+03  0.00000000000E+00 0. -1.
         -1   -1    0    0    0  501 -0.00000000000E+00 -0.00000000000E+00 -0.34953068035E+03  0.34953068035E+03  0.00000000000E+00 0.  1.
         23    2    1    2    0    0 -0.33540649084E+03  0.51622516705E+02  0.30902756266E+03  0.46669806003E+03  0.84537840167E+02 0.  0.
         13    1    3    3    0    0 -0.38812404789E+02 -0.12619438329E+02  0.67350087115E+02  0.78750791892E+02  0.00000000000E+00 0. -1.
        -13    1    3    3    0    0 -0.29659408605E+03  0.64241955033E+02  0.24167747555E+03  0.38794726814E+03  0.00000000000E+00 0.  1.
         22    1    1    2    0    0  0.33540649084E+03 -0.51622516705E+02 -0.16433752453E+03  0.37705333880E+03  0.00000000000E+00 0. -1.
<mgrwt>
<rscale>  0 0.83125280E+03</rscale>
<asrwt>0</asrwt>
<pdfrwt beam="1">  1        1 0.76033956E-01 0.83125280E+03</pdfrwt>
<pdfrwt beam="2">  1       -1 0.53773951E-01 0.83125280E+03</pdfrwt>
<totfact> 0.15888817E+02</totfact>
</mgrwt>
</event>
<event>
 6    1  0.9364335E-007  0.3142761E+04  0.7818608E-02  0.8204100E-01
          1   -1    0    0  501    0  0.00000000000E+00  0.00000000000E+00  0.12449390397E+04  0.12449390397E+04  0.00000000000E+00 0. -1.
         -1   -1    0    0    0  501 -0.00000000000E+00 -0.00000000000E+00 -0.19834192000E+04  0.19834192000E+04  0.00000000000E+00 0.  1.
         23    2    1    2    0    0  0.98142760787E+03  0.10706371764E+04  0.24304926566E+03  0.14753995617E+04  0.90921990247E+02 0.  0.
         11    1    3    3    0    0  0.68988416594E+03  0.79734171361E+03  0.14870439561E+03  0.10648037227E+04  0.00000000000E+00 0.  1.
        -11    1    3    3    0    0  0.29154344192E+03  0.27329546275E+03  0.94344870052E+02  0.41059583899E+03  0.00000000000E+00 0. -1.
         22    1    1    2    0    0 -0.98142760787E+03 -0.10706371764E+04 -0.98152942593E+03  0.17529586780E+04  0.00000000000E+00 0. -1.
<mgrwt>
<rscale>  0 0.31427606E+04</rscale>
<asrwt>0</asrwt>
<pdfrwt beam="1">  1        1 0.19152908E+00 0.31427606E+04</pdfrwt>
<pdfrwt beam="2">  1       -1 0.30514141E+00 0.31427606E+04</pdfrwt>
<totfact> 0.25476549E-01</totfact>
</mgrwt>
</event>
<event>
 6    1  0.9364335E-007  0.1333501E+04  0.7818608E-02  0.9003412E-01
         -2   -1    0    0    0  501 -0.00000000000E+00  0.00000000000E+00  0.85764370059E+03  0.85764370059E+03  0.00000000000E+00 0.  1.
          2   -1    0    0  501    0  0.00000000000E+00 -0.00000000000E+00 -0.51834622439E+03  0.51834622439E+03  0.00000000000E+00 0. -1.
         23    2    1    2    0    0  0.33889641151E+03 -0.10548635887E+03  0.74895213821E+03  0.83396124331E+03  0.92649340895E+02 0.  0.
         11    1    3    3    0    0  0.28899620000E+03 -0.12259416419E+03  0.63255981056E+03  0.70617281641E+03  0.00000000000E+00 0. -1.
        -11    1    3    3    0    0  0.49900211510E+02  0.17107805324E+02  0.11639232766E+03  0.12778842690E+03  0.00000000000E+00 0.  1.
         22    1    1    2    0    0 -0.33889641151E+03  0.10548635887E+03 -0.40965466201E+03  0.54202868167E+03  0.00000000000E+00 0. -1.
<mgrwt>
<rscale>  0 0.13335012E+04</rscale>
<asrwt>0</asrwt>
<pdfrwt beam="1">  1        2 0.79745573E-01 0.13335012E+04</pdfrwt>
<pdfrwt beam="2">  1       -2 0.13194518E+00 0.13335012E+04</pdfrwt>
<totfact> 0.24133343E+01</totfact>
</mgrwt>
</event>
<event>
 6    1  0.9364335E-007  0.9614876E+03  0.7818608E-02  0.9351823E-01
         -1   -1    0    0    0  501 -0.00000000000E+00  0.00000000000E+00  0.23985421055E+03  0.23985421055E+03  0.00000000000E+00 0.  1.
          1   -1    0    0  501    0  0.00000000000E+00 -0.00000000000E+00 -0.96356276892E+03  0.96356276892E+03  0.00000000000E+00 0. -1.
         23    2    1    2    0    0  0.63794110340E+02  0.43050639451E+03 -0.12241056394E+03  0.46114700006E+03  0.90921753545E+02 0.  0.
         13    1    3    3    0    0  0.43919238244E+02  0.71703277133E+02 -0.36512131149E+02  0.91670034148E+02  0.00000000000E+00 0.  1.
        -13    1    3    3    0    0  0.19874872096E+02  0.35880311738E+03 -0.85898432787E+02  0.36947696591E+03  0.00000000000E+00 0. -1.
         22    1    1    2    0    0 -0.63794110340E+02 -0.43050639451E+03 -0.60129799443E+03  0.74226997941E+03  0.00000000000E+00 0. -1.
<mgrwt>
<rscale>  0 0.96148757E+03</rscale>
<asrwt>0</asrwt>
<pdfrwt beam="1">  1        1 0.14824043E+00 0.96148757E+03</pdfrwt>
<pdfrwt beam="2">  1       -1 0.36900648E-01 0.96148757E+03</pdfrwt>
<totfact> 0.11445248E+02</totfact>
</mgrwt>
</event>
<event>
 6    1  0.9364335E-007  0.2141151E+04  0.7818608E-02  0.8543330E-01
         -2   -1    0    0    0  501 -0.00000000000E+00  0.00000000000E+00  0.36827341463E+03  0.36827341463E+03  0.00000000000E+00 0.  1.
          2   -1    0    0  501    0  0.00000000000E+00 -0.00000000000E+00 -0.31121767785E+04  0.31121767785E+04  0.00000000000E+00 0. -1.
         23    2    1    2    0    0  0.29351657058E+03  0.10214451918E+04 -0.15565447839E+04  0.18869249644E+04  0.90287872313E+02 0.  0.
         13    1    3    3    0    0  0.24153837164E+03  0.81232117822E+03 -0.11750014123E+04  0.14487355868E+04  0.00000000000E+00 0.  1.
        -13    1    3    3    0    0  0.51978198936E+02  0.20912401363E+03 -0.38154337157E+03  0.43818937759E+03  0.00000000000E+00 0. -1.
         22    1    1    2    0    0 -0.29351657058E+03 -0.10214451918E+04 -0.11873585800E+04  0.15935252287E+04  0.00000000000E+00 0.  1.
<mgrwt>
<rscale>  0 0.21411511E+04</rscale>
<asrwt>0</asrwt>
<pdfrwt beam="1">  1        2 0.47879642E+00 0.21411511E+04</pdfrwt>
<pdfrwt beam="2">  1       -2 0.56657449E-01 0.21411511E+04</pdfrwt>
<totfact> 0.39748872E+00</totfact>
</mgrwt>
</event>
<event>
 6    1  0.9364335E-007  0.3416224E+04  0.7818608E-02  0.8133936E-01
          2   -1    0    0  501    0  0.00000000000E+00  0.00000000000E+00  0.30708686485E+04  0.30708686485E+04  0.00000000000E+00 0. -1.
         -2   -1    0    0    0  501 -0.00000000000E+00 -0.00000000000E+00 -0.95010480323E+03  0.95010480323E+03  0.00000000000E+00 0.  1.
         23    2    1    2    0    0 -0.55275620002E+03  0.96712743712E+03 -0.46145049903E+03  0.12087313185E+04  0.84970235151E+02 0.  0.
         11    1    3    3    0    0 -0.39011967369E+03  0.60127195110E+03 -0.28994397319E+03  0.77316804549E+03  0.00000000000E+00 0. -1.
        -11    1    3    3    0    0 -0.16263652634E+03  0.36585548601E+03 -0.17150652584E+03  0.43556327296E+03  0.00000000000E+00 0.  1.
         22    1    1    2    0    0  0.55275620002E+03 -0.96712743712E+03  0.25822143443E+04  0.28122421333E+04  0.00000000000E+00 0. -1.
<mgrwt>
<rscale>  0 0.34162243E+04</rscale>
<asrwt>0</asrwt>
<pdfrwt beam="1">  1        2 0.47244133E+00 0.34162243E+04</pdfrwt>
<pdfrwt beam="2">  1       -2 0.14616997E+00 0.34162243E+04</pdfrwt>
<totfact> 0.41654763E-01</totfact>
</mgrwt>
</event>
<event>
 6    1  0.9364335E-007  0.1774873E+04  0.7818608E-02  0.8719777E-01
          2   -1    0    0  501    0  0.00000000000E+00  0.00000000000E+00  0.18622028954E+04  0.18622028954E+04  0.00000000000E+00 0. -1.
         -2   -1    0    0    0  501 -0.00000000000E+00 -0.00000000000E+00 -0.42290972499E+03  0.42290972499E+03  0.00000000000E+00 0.  1.
         23    2    1    2    0    0 -0.78831170829E+03 -0.37487107366E+03  0.53298251511E+03  0.10267952219E+04  0.90963701992E+02 0.  0.
         13    1    3    3    0    0 -0.52937516055E+03 -0.21251835115E+03  0.31752231380E+03  0.65285720487E+03  0.00000000000E+00 0. -1.
        -13    1    3    3    0    0 -0.25893654774E+03 -0.16235272250E+03  0.21546020131E+03  0.37393801707E+03  0.00000000000E+00 0.  1.
         22    1    1    2    0    0  0.78831170829E+03  0.37487107366E+03  0.90631065526E+03  0.12583173984E+04  0.00000000000E+00 0.  1.
<mgrwt>
<rscale>  0 0.17748732E+04</rscale>
<asrwt>0</asrwt>
<pdfrwt beam="1">  1        2 0.28649275E+00 0.17748732E+04</pdfrwt>
<pdfrwt beam="2">  1       -2 0.65063035E-01 0.17748732E+04</pdfrwt>
<totfact> 0.16422285E+01</totfact>
</mgrwt>
</event>
<event>
 6    1  0.9364335E-007  0.4843912E+04  0.7818608E-02  0.7853047E-01
          1   -1    0    0  501    0  0.00000000000E+00  0.00000000000E+00  0.41824860773E+04  0.41824860773E+04  0.00000000000E+00 0. -1.
         -1   -1    0    0    0  501 -0.00000000000E+00 -0.00000000000E+00 -0.14024844719E+04  0.14024844719E+04  0.00000000000E+00 0.  1.
         23    2    1    2    0    0 -0.22102388847E+04  0.42916438155E+03  0.24168069395E+04  0.33043459946E+04  0.91698829027E+02 0.  0.
         11    1    3    3    0    0 -0.12622130836E+04  0.23474203709E+03  0.14426637143E+04  0.19312079860E+04  0.00000000000E+00 0. -1.
        -11    1    3    3    0    0 -0.94802580103E+03  0.19442234446E+03  0.97414322516E+03  0.13731380086E+04  0.00000000000E+00 0.  1.
         22    1    1    2    0    0  0.22102388847E+04 -0.42916438155E+03  0.36319466590E+03  0.22806245546E+04  0.00000000000E+00 0.  1.
<mgrwt>
<rscale>  0 0.48439124E+04</rscale>
<asrwt>0</asrwt>
<pdfrwt beam="1">  1        1 0.64345939E+00 0.48439124E+04</pdfrwt>
<pdfrwt beam="2">  1       -1 0.21576684E+00 0.48439124E+04</pdfrwt>
<totfact> 0.56130146E-03</totfact>
</mgrwt>
</event>
<event>
 6    1  0.9364335E-007  0.5214318E+03  0.7818608E-02  0.1008332E+00
          2   -1    0    0  501    0  0.00000000000E+00  0.00000000000E+00  0.65826662363E+03  0.65826662363E+03  0.00000000000E+00 0. -1.
         -2   -1    0    0    0  501 -0.00000000000E+00 -0.00000000000E+00 -0.10326023899E+03  0.10326023899E+03  0.00000000000E+00 0.  1.
         23    2    1    2    0    0  0.61722688425E+02 -0.21125519926E+03  0.46748147216E+03  0.52467446177E+03  0.91136790279E+02 0.  0.
         11    1    3    3    0    0  0.56035131244E+02 -0.19838901066E+03  0.34882951912E+03  0.40519152125E+03  0.00000000000E+00 0. -1.
        -11    1    3    3    0    0  0.56875571811E+01 -0.12866188602E+02  0.11865195303E+03  0.11948294052E+03  0.00000000000E+00 0.  1.
         22    1    1    2    0    0 -0.61722688425E+02  0.21125519926E+03  0.87524912487E+02  0.23685240085E+03  0.00000000000E+00 0.  1.
<mgrwt>
<rscale>  0 0.52143176E+03</rscale>
<asrwt>0</asrwt>
<pdfrwt beam="1">  1        2 0.10127179E+00 0.52143176E+03</pdfrwt>
<pdfrwt beam="2">  1       -2 0.15886191E-01 0.52143176E+03</pdfrwt>
<totfact> 0.14088808E+03</totfact>
</mgrwt>
</event>
<event>
 6    1  0.9364335E-007  0.1122096E+04  0.7818608E-02  0.9183919E-01
         -2   -1    0    0    0  501 -0.00000000000E+00  0.00000000000E+00  0.36736063956E+03  0.36736063956E+03  0.00000000000E+00 0.  1.
          2   -1    0    0  501    0  0.00000000000E+00 -0.00000000000E+00 -0.85685545427E+03  0.85685545427E+03  0.00000000000E+00 0. -1.
         23    2    1    2    0    0 -0.14117524588E+03  0.52282464519E+02 -0.83194035772E+03  0.85014009076E+03  0.89160018870E+02 0.  0.
         13    1    3    3    0    0 -0.10654944159E+03  0.97715750566E+01 -0.68495808876E+03  0.69326463240E+03  0.00000000000E+00 0. -1.
        -13    1    3    3    0    0 -0.34625804293E+02  0.42510889463E+02 -0.14698226897E+03  0.15687545836E+03  0.00000000000E+00 0.  1.
         22    1    1    2    0    0  0.14117524588E+03 -0.52282464519E+02  0.34244554301E+03  0.37407600307E+03  0.00000000000E+00 0.  1.
<mgrwt>
<rscale>  0 0.11220962E+04</rscale>
<asrwt>0</asrwt>
<pdfrwt beam="1">  1        2 0.13182391E+00 0.11220962E+04</pdfrwt>
<pdfrwt beam="2">  1       -2 0.56517023E-01 0.11220962E+04</pdfrwt>
<totfact> 0.91444711E+01</totfact>
</mgrwt>
</event>
<event>
 6    1  0.9364335E-007  0.2464927E+04  0.7818608E-02  0.8415588E-01
         -1   -1    0    0    0  501 -0.00000000000E+00  0.00000000000E+00  0.96342144008E+03  0.96342144008E+03  0.00000000000E+00 0.  1.
          1   -1    0    0  501    0  0.00000000000E+00 -0.00000000000E+00 -0.15766368366E+04  0.15766368366E+04  0.00000000000E+00 0. -1.
         23    2    1    2    0    0  0.77467768822E+03 -0.91730146965E+03 -0.27946096951E+02  0.12043533468E+04  0.90102678425E+02 0.  0.
         11    1    3    3    0    0  0.22408001951E+03 -0.33095001433E+03 -0.66784675914E+01  0.39973037045E+03  0.00000000000E+00 0. -1.
        -11    1    3    3    0    0  0.55059766871E+03 -0.58635145532E+03 -0.21267629360E+02  0.80462297631E+03  0.00000000000E+00 0.  1.
         22    1    1    2    0    0 -0.77467768822E+03  0.91730146965E+03 -0.58526929962E+03  0.13357049300E+04  0.00000000000E+00 0. -1.
<mgrwt>
<rscale>  0 0.24649266E+04</rscale>
<asrwt>0</asrwt>
<pdfrwt beam="1">  1        1 0.24255951E+00 0.24649266E+04</pdfrwt>
<pdfrwt beam="2">  1       -1 0.14821869E+00 0.24649266E+04</pdfrwt>
<totfact> 0.18592030E+00</totfact>
</mgrwt>
</event>
<event>
 6    1  0.9364335E-007  0.4709165E+04  0.7818608E-02  0.7875007E-01
         -1   -1    0    0    0  501 -0.00000000000E+00  0.00000000000E+00  0.13650877734E+04  0.13650877734E+04  0.00000000000E+00 0.  1.
          1   -1    0    0  501    0  0.00000000000E+00 -0.00000000000E+00 -0.40613208327E+04  0.40613208327E+04  0.00000000000E+00 0. -1.
         23    2    1    2    0    0  0.49828210496E+03  0.10368708023E+04  0.10172805595E+04  0.15387911463E+04  0.98144477582E+02 0.  0.
         13    1    3    3    0    0  0.29528802991E+03  0.71904556291E+03  0.69564415579E+03  0.10431406107E+04  0.00000000000E+00 0. -1.
        -13    1    3    3    0    0  0.20299407505E+03  0.31782523938E+03  0.32163640369E+03  0.49565053564E+03  0.00000000000E+00 0.  1.
         22    1    1    2    0    0 -0.49828210496E+03 -0.10368708023E+04 -0.37135136187E+04  0.38876174598E+04  0.00000000000E+00 0. -1.
<mgrwt>
<rscale>  0 0.47091653E+04</rscale>
<asrwt>0</asrwt>
<pdfrwt beam="1">  1        1 0.62481858E+00 0.47091653E+04</pdfrwt>
<pdfrwt beam="2">  1       -1 0.21001351E+00 0.47091653E+04</pdfrwt>
<totfact> 0.80069505E-03</totfact>
</mgrwt>
</event>
<event>
 6    1  0.9364335E-007  0.1148059E+04  0.7818608E-02  0.9159576E-01
          1   -1    0    0  501    0  0.00000000000E+00  0.00000000000E+00  0.95688255288E+03  0.95688255288E+03  0.00000000000E+00 0. -1.
         -1   -1    0    0    0  501 -0.00000000000E+00 -0.00000000000E+00 -0.34435792449E+03  0.34435792449E+03  0.00000000000E+00 0.  1.
         23    2    1    2    0    0  0.22435485700E+02 -0.21530508479E+03  0.90665018045E+03  0.93604262561E+03  0.85449497901E+02 0.  0.
         13    1    3    3    0    0  0.12808407039E+00 -0.20886018094E+03  0.79291844441E+03  0.81996478649E+03  0.00000000000E+00 0. -1.
        -13    1    3    3    0    0  0.22307401629E+02 -0.64449038464E+01  0.11373173604E+03  0.11607783912E+03  0.00000000000E+00 0.  1.
         22    1    1    2    0    0 -0.22435485700E+02  0.21530508479E+03 -0.29412555206E+03  0.36519785176E+03  0.00000000000E+00 0.  1.
<mgrwt>
<rscale>  0 0.11480594E+04</rscale>
<asrwt>0</asrwt>
<pdfrwt beam="1">  1        1 0.14721270E+00 0.11480594E+04</pdfrwt>
<pdfrwt beam="2">  1       -1 0.52978143E-01 0.11480594E+04</pdfrwt>
<totfact> 0.58386833E+01</totfact>
</mgrwt>
</event>
<event>
 6    1  0.9364335E-007  0.2758551E+04  0.7818608E-02  0.8316253E-01
          2   -1    0    0  501    0  0.00000000000E+00  0.00000000000E+00  0.18608872015E+04  0.18608872015E+04  0.00000000000E+00 0. -1.
         -2   -1    0    0    0  501 -0.00000000000E+00 -0.00000000000E+00 -0.10223082418E+04  0.10223082418E+04  0.00000000000E+00 0.  1.
         23    2    1    2    0    0 -0.74107428299E+03  0.19112226115E+03  0.16171628545E+04  0.17914483604E+04  0.91393207787E+02 0.  0.
         13    1    3    3    0    0 -0.19731004458E+03  0.91603108703E+02  0.43021940048E+03  0.48209036058E+03  0.00000000000E+00 0. -1.
        -13    1    3    3    0    0 -0.54376423841E+03  0.99519152449E+02  0.11869434541E+04  0.13093579999E+04  0.00000000000E+00 0.  1.
         22    1    1    2    0    0  0.74107428299E+03 -0.19112226115E+03 -0.77858389482E+03  0.10917470828E+04  0.00000000000E+00 0.  1.
<mgrwt>
<rscale>  0 0.27585506E+04</rscale>
<asrwt>0</asrwt>
<pdfrwt beam="1">  1        2 0.28629034E+00 0.27585506E+04</pdfrwt>
<pdfrwt beam="2">  1       -2 0.15727819E+00 0.27585506E+04</pdfrwt>
<totfact> 0.18396680E+00</totfact>
</mgrwt>
</event>
<event>
 6    1  0.9364335E-007  0.6498142E+03  0.7818608E-02  0.9807128E-01
          2   -1    0    0  501    0  0.00000000000E+00  0.00000000000E+00  0.37151929374E+03  0.37151929374E+03  0.00000000000E+00 0. -1.
         -2   -1    0    0    0  501 -0.00000000000E+00 -0.00000000000E+00 -0.28414307889E+03  0.28414307889E+03  0.00000000000E+00 0.  1.
         23    2    1    2    0    0 -0.20791173879E+03 -0.24102476300E+03  0.52170221075E+02  0.33541295499E+03  0.91977665215E+02 0.  0.
         13    1    3    3    0    0 -0.12865087936E+03 -0.19749785887E+03  0.63943383701E+02  0.24422368710E+03  0.00000000000E+00 0. -1.
        -13    1    3    3    0    0 -0.79260859425E+02 -0.43526904133E+02 -0.11773162626E+02  0.91189267890E+02  0.00000000000E+00 0.  1.
         22    1    1    2    0    0  0.20791173879E+03  0.24102476300E+03  0.35205993778E+02  0.32024941765E+03  0.00000000000E+00 0.  1.
<mgrwt>
<rscale>  0 0.64981424E+03</rscale>
<asrwt>0</asrwt>
<pdfrwt beam="1">  1        2 0.57156815E-01 0.64981424E+03</pdfrwt>
<pdfrwt beam="2">  1       -2 0.43714319E-01 0.64981424E+03</pdfrwt>
<totfact> 0.43256945E+02</totfact>
</mgrwt>
</event>
<event>
 6    1  0.9364335E-007  0.2416250E+04  0.7818608E-02  0.8433445E-01
          2   -1    0    0  501    0  0.00000000000E+00  0.00000000000E+00  0.27857904572E+04  0.27857904572E+04  0.00000000000E+00 0. -1.
         -2   -1    0    0    0  501 -0.00000000000E+00 -0.00000000000E+00 -0.52393233152E+03  0.52393233152E+03  0.00000000000E+00 0.  1.
         23    2    1    2    0    0 -0.98979687373E+03 -0.67356710172E+03  0.93256257609E+03  0.15207518136E+04  0.98094996915E+02 0.  0.
         13    1    3    3    0    0 -0.43553387159E+03 -0.34258475526E+03  0.46949888027E+03  0.72628043235E+03  0.00000000000E+00 0. -1.
        -13    1    3    3    0    0 -0.55426300214E+03 -0.33098234646E+03  0.46306369582E+03  0.79447138123E+03  0.00000000000E+00 0.  1.
         22    1    1    2    0    0  0.98979687373E+03  0.67356710172E+03  0.13292955496E+04  0.17889709752E+04  0.00000000000E+00 0. -1.
<mgrwt>
<rscale>  0 0.24162497E+04</rscale>
<asrwt>0</asrwt>
<pdfrwt beam="1">  1        2 0.42858314E+00 0.24162497E+04</pdfrwt>
<pdfrwt beam="2">  1       -2 0.80604976E-01 0.24162497E+04</pdfrwt>
<totfact> 0.28788739E+00</totfact>
</mgrwt>
</event>
<event>
 6    1  0.9364335E-007  0.3750347E+04  0.7818608E-02  0.8056895E-01
          2   -1    0    0  501    0  0.00000000000E+00  0.00000000000E+00  0.26663123602E+04  0.26663123602E+04  0.00000000000E+00 0. -1.
         -2   -1    0    0    0  501 -0.00000000000E+00 -0.00000000000E+00 -0.13187785204E+04  0.13187785204E+04  0.00000000000E+00 0.  1.
         23    2    1    2    0    0 -0.14103162192E+04  0.54145829500E+03  0.18527157501E+04  0.23921760411E+04  0.88213591539E+02 0.  0.
         13    1    3    3    0    0 -0.12580000247E+04  0.49181852623E+03  0.16130183083E+04  0.21038720465E+04  0.00000000000E+00 0. -1.
        -13    1    3    3    0    0 -0.15231619451E+03  0.49639768765E+02  0.23969744175E+03  0.28830399465E+03  0.00000000000E+00 0.  1.
         22    1    1    2    0    0  0.14103162192E+04 -0.54145829500E+03 -0.50518191029E+03  0.15929148395E+04  0.00000000000E+00 0.  1.
<mgrwt>
<rscale>  0 0.37503469E+04</rscale>
<asrwt>0</asrwt>
<pdfrwt beam="1">  1        2 0.41020190E+00 0.37503469E+04</pdfrwt>
<pdfrwt beam="2">  1       -2 0.20288900E+00 0.37503469E+04</pdfrwt>
<totfact> 0.28501191E-01</totfact>
</mgrwt>
</event>
<event>
 6    1  0.9364335E-007  0.6975434E+03  0.7818608E-02  0.9721443E-01
         -1   -1    0    0    0  501 -0.00000000000E+00  0.00000000000E+00  0.65763375133E+02  0.65763375133E+02  0.00000000000E+00 0.  1.
          1   -1    0    0  501    0  0.00000000000E+00 -0.00000000000E+00 -0.18496873397E+04  0.18496873397E+04  0.00000000000E+00 0. -1.
         23    2    1    2    0    0  0.13526799999E+03  0.19757051358E+03 -0.15812864811E+04  0.16017733498E+04  0.88765922420E+02 0.  0.
         13    1    3    3    0    0  0.14428009123E+02  0.38083790165E+02 -0.53347825137E+03  0.53503045447E+03  0.00000000000E+00 0. -1.
        -13    1    3    3    0    0  0.12083999087E+03  0.15948672341E+03 -0.10478082298E+04  0.10667428953E+04  0.00000000000E+00 0.  1.
         22    1    1    2    0    0 -0.13526799999E+03 -0.19757051358E+03 -0.20263748343E+03  0.31367736505E+03  0.00000000000E+00 0.  1.
<mgrwt>
<rscale>  0 0.69754335E+03</rscale>
<asrwt>0</asrwt>
<pdfrwt beam="1">  1        1 0.28456722E+00 0.69754335E+03</pdfrwt>
<pdfrwt beam="2">  1       -1 0.10117445E-01 0.69754335E+03</pdfrwt>
<totfact> 0.24045321E+02</totfact>
</mgrwt>
</event>
<event>
 6    1  0.9364335E-007  0.2685029E+04  0.7818608E-02  0.8339879E-01
          2   -1    0    0  501    0  0.00000000000E+00  0.00000000000E+00  0.18685984082E+04  0.18685984082E+04  0.00000000000E+00 0. -1.
         -2   -1    0    0    0  501 -0.00000000000E+00 -0.00000000000E+00 -0.96454366913E+03  0.96454366913E+03  0.00000000000E+00 0.  1.
         23    2    1    2    0    0 -0.14812560131E+03  0.70371886257E+03 -0.74127315294E+03  0.10375181458E+04  0.98977695691E+02 0.  0.
         11    1    3    3    0    0 -0.74418790549E+02  0.18762327131E+03 -0.16767087276E+03  0.26240078105E+03  0.00000000000E+00 0.  1.
        -11    1    3    3    0    0 -0.73706810757E+02  0.51609559127E+03 -0.57360228018E+03  0.77511736473E+03  0.00000000000E+00 0. -1.
         22    1    1    2    0    0  0.14812560131E+03 -0.70371886257E+03  0.16453278920E+04  0.17956239316E+04  0.00000000000E+00 0. -1.
<mgrwt>
<rscale>  0 0.26850287E+04</rscale>
<asrwt>0</asrwt>
<pdfrwt beam="1">  1        2 0.28747668E+00 0.26850287E+04</pdfrwt>
<pdfrwt beam="2">  1       -2 0.14839133E+00 0.26850287E+04</pdfrwt>
<totfact> 0.21407998E+00</totfact>
</mgrwt>
</event>
<event>
 6    1  0.9364335E-007  0.1904174E+04  0.7818608E-02  0.8652781E-01
         -1   -1    0    0    0  501 -0.00000000000E+00  0.00000000000E+00  0.46390245440E+03  0.46390245440E+03  0.00000000000E+00 0.  1.
          1   -1    0    0  501    0  0.00000000000E+00 -0.00000000000E+00 -0.19540092690E+04  0.19540092690E+04  0.00000000000E+00 0. -1.
         23    2    1    2    0    0  0.30364600901E+03 -0.84564664469E+03 -0.35525215898E+03  0.97042623612E+03  0.90575034249E+02 0.  0.
         11    1    3    3    0    0  0.26955048024E+02 -0.15465155920E+03 -0.39409389545E+02  0.16185419167E+03  0.00000000000E+00 0.  1.
        -11    1    3    3    0    0  0.27669096099E+03 -0.69099508549E+03 -0.31584276944E+03  0.80857204445E+03  0.00000000000E+00 0. -1.
         22    1    1    2    0    0 -0.30364600901E+03  0.84564664469E+03 -0.11348546556E+04  0.14474854872E+04  0.00000000000E+00 0. -1.
<mgrwt>
<rscale>  0 0.19041740E+04</rscale>
<asrwt>0</asrwt>
<pdfrwt beam="1">  1        1 0.30061681E+00 0.19041740E+04</pdfrwt>
<pdfrwt beam="2">  1       -1 0.71369609E-01 0.19041740E+04</pdfrwt>
<totfact> 0.59368423E+00</totfact>
</mgrwt>
</event>
<event>
 6    1  0.9364335E-007  0.1523592E+04  0.7818608E-02  0.8868914E-01
          2   -1    0    0  501    0  0.00000000000E+00  0.00000000000E+00  0.12574106615E+04  0.12574106615E+04  0.00000000000E+00 0. -1.
         -2   -1    0    0    0  501 -0.00000000000E+00 -0.00000000000E+00 -0.46153061558E+03  0.46153061558E+03  0.00000000000E+00 0.  1.
         23    2    1    2    0    0 -0.32155683722E+03 -0.25475833996E+02 -0.37589941658E+03  0.50357510739E+03  0.90772791709E+02 0.  0.
         11    1    3    3    0    0 -0.26975824125E+03 -0.55229066533E+02 -0.30797348965E+03  0.41311914606E+03  0.00000000000E+00 0. -1.
        -11    1    3    3    0    0 -0.51798595972E+02  0.29753232537E+02 -0.67925926930E+02  0.90455961332E+02  0.00000000000E+00 0.  1.
         22    1    1    2    0    0  0.32155683722E+03  0.25475833996E+02  0.11717794625E+04  0.12153661697E+04  0.00000000000E+00 0. -1.
<mgrwt>
<rscale>  0 0.15235925E+04</rscale>
<asrwt>0</asrwt>
<pdfrwt beam="1">  1        2 0.19344779E+00 0.15235925E+04</pdfrwt>
<pdfrwt beam="2">  1       -2 0.71004711E-01 0.15235925E+04</pdfrwt>
<totfact> 0.30431515E+01</totfact>
</mgrwt>
</event>
<event>
 6    1  0.9364335E-007  0.1622643E+04  0.7818608E-02  0.8806757E-01
         -2   -1    0    0    0  501 -0.00000000000E+00  0.00000000000E+00  0.46807285415E+03  0.46807285415E+03  0.00000000000E+00 0.  1.
          2   -1    0    0  501    0  0.00000000000E+00 -0.00000000000E+00 -0.14062818313E+04  0.14062818313E+04  0.00000000000E+00 0. -1.
         23    2    1    2    0    0  0.14626770541E+03  0.79486055019E+03 -0.46238491807E+03  0.93648152178E+03  0.10000146140E+03 0.  0.
         13    1    3    3    0    0  0.51560127110E+02  0.28502952096E+03 -0.11153104625E+03  0.31038596747E+03  0.00000000000E+00 0.  1.
        -13    1    3    3    0    0  0.94707578295E+02  0.50983102923E+03 -0.35085387182E+03  0.62609555431E+03  0.00000000000E+00 0. -1.
         22    1    1    2    0    0 -0.14626770541E+03 -0.79486055019E+03 -0.47582405906E+03  0.93787316364E+03  0.00000000000E+00 0.  1.
<mgrwt>
<rscale>  0 0.16226427E+04</rscale>
<asrwt>0</asrwt>
<pdfrwt beam="1">  1        2 0.21635105E+00 0.16226427E+04</pdfrwt>
<pdfrwt beam="2">  1       -2 0.72011209E-01 0.16226427E+04</pdfrwt>
<totfact> 0.23999115E+01</totfact>
</mgrwt>
</event>
<event>
 6    1  0.9364335E-007  0.1337197E+04  0.7818608E-02  0.9000577E-01
         -2   -1    0    0    0  501 -0.00000000000E+00  0.00000000000E+00  0.38592136035E+03  0.38592136035E+03  0.00000000000E+00 0.  1.
          2   -1    0    0  501    0  0.00000000000E+00 -0.00000000000E+00 -0.11583288734E+04  0.11583288734E+04  0.00000000000E+00 0. -1.
         23    2    1    2    0    0  0.26460948992E+03  0.92240259310E+02 -0.10850864459E+04  0.11243757732E+04  0.91004596977E+02 0.  0.
         13    1    3    3    0    0  0.24442272362E+03  0.59431843377E+02 -0.99684332827E+03  0.10280910626E+04  0.00000000000E+00 0. -1.
        -13    1    3    3    0    0  0.20186766299E+02  0.32808415933E+02 -0.88243117644E+02  0.96284710631E+02  0.00000000000E+00 0.  1.
         22    1    1    2    0    0 -0.26460948992E+03 -0.92240259310E+02  0.31267893285E+03  0.41987446057E+03  0.00000000000E+00 0.  1.
<mgrwt>
<rscale>  0 0.13371969E+04</rscale>
<asrwt>0</asrwt>
<pdfrwt beam="1">  1        2 0.17820444E+00 0.13371969E+04</pdfrwt>
<pdfrwt beam="2">  1       -2 0.59372517E-01 0.13371969E+04</pdfrwt>
<totfact> 0.51954660E+01</totfact>
</mgrwt>
</event>
<event>
 6    1  0.9364335E-007  0.4329730E+04  0.7818608E-02  0.7941143E-01
          2   -1    0    0  501    0  0.00000000000E+00  0.00000000000E+00  0.28216831748E+04  0.28216831748E+04  0.00000000000E+00 0. -1.
         -2   -1    0    0    0  501 -0.00000000000E+00 -0.00000000000E+00 -0.16609380546E+04  0.16609380546E+04  0.00000000000E+00 0.  1.
         23    2    1    2    0    0  0.14300349366E+03  0.93205801679E+03  0.25970848729E+04  0.27644087770E+04  0.89016310351E+02 0.  0.
         11    1    3    3    0    0  0.12544678300E+03  0.80120823048E+03  0.23155593228E+04  0.24534641839E+04  0.00000000000E+00 0.  1.
        -11    1    3    3    0    0  0.17556710662E+02  0.13084978631E+03  0.28152555010E+03  0.31094459317E+03  0.00000000000E+00 0. -1.
         22    1    1    2    0    0 -0.14300349366E+03 -0.93205801679E+03 -0.14363397528E+04  0.17182124523E+04  0.00000000000E+00 0.  1.
<mgrwt>
<rscale>  0 0.43297302E+04</rscale>
<asrwt>0</asrwt>
<pdfrwt beam="1">  1        2 0.43410510E+00 0.43297302E+04</pdfrwt>
<pdfrwt beam="2">  1       -2 0.25552893E+00 0.43297302E+04</pdfrwt>
<totfact> 0.10238567E-01</totfact>
</mgrwt>
</event>
<event>
 6    1  0.9364335E-007  0.6335985E+03  0.7818608E-02  0.9838052E-01
         -3   -1    0    0    0  501 -0.00000000000E+00  0.00000000000E+00  0.55712902632E+03  0.55712902632E+03  0.00000000000E+00 0.  1.
          3   -1    0    0  501    0  0.00000000000E+00 -0.00000000000E+00 -0.18014097021E+03  0.18014097021E+03  0.00000000000E+00 0. -1.
         23    2    1    2    0    0  0.28036270319E+03 -0.28397302166E+02  0.34207974755E+03  0.45331887025E+03  0.95235457337E+02 0.  0.
         11    1    3    3    0    0  0.19315571764E+03 -0.43889510503E+02  0.17544117222E+03  0.26460352473E+03  0.00000000000E+00 0.  1.
        -11    1    3    3    0    0  0.87206985544E+02  0.15492208338E+02  0.16663857533E+03  0.18871534552E+03  0.00000000000E+00 0. -1.
         22    1    1    2    0    0 -0.28036270319E+03  0.28397302166E+02  0.34908308551E+02  0.28395112628E+03  0.00000000000E+00 0. -1.
<mgrwt>
<rscale>  0 0.63359850E+03</rscale>
<asrwt>0</asrwt>
<pdfrwt beam="1">  1        3 0.27713996E-01 0.63359850E+03</pdfrwt>
<pdfrwt beam="2">  1       -3 0.85712157E-01 0.63359850E+03</pdfrwt>
<totfact> 0.41272809E+01</totfact>
</mgrwt>
</event>
<event>
 6    1  0.9364335E-007  0.1816906E+04  0.7818608E-02  0.8697360E-01
         -2   -1    0    0    0  501 -0.00000000000E+00  0.00000000000E+00  0.55680547270E+03  0.55680547270E+03  0.00000000000E+00 0.  1.
          2   -1    0    0  501    0  0.00000000000E+00 -0.00000000000E+00 -0.14821816975E+04  0.14821816975E+04  0.00000000000E+00 0. -1.
         23    2    1    2    0    0  0.40768453711E+03  0.11822790400E+03 -0.13622928199E+04  0.14298232923E+04  0.91478964532E+02 0.  0.
         11    1    3    3    0    0  0.26806258007E+03  0.75813552974E+02 -0.10278541613E+04  0.10649363448E+04  0.00000000000E+00 0.  1.
        -11    1    3    3    0    0  0.13962195704E+03  0.42414351027E+02 -0.33443865862E+03  0.36488694748E+03  0.00000000000E+00 0. -1.
         22    1    1    2    0    0 -0.40768453711E+03 -0.11822790400E+03  0.43691659509E+03  0.60916387791E+03  0.00000000000E+00 0.  1.
<mgrwt>
<rscale>  0 0.18169060E+04</rscale>
<asrwt>0</asrwt>
<pdfrwt beam="1">  1        2 0.22802795E+00 0.18169060E+04</pdfrwt>
<pdfrwt beam="2">  1       -2 0.85662383E-01 0.18169060E+04</pdfrwt>
<totfact> 0.14500004E+01</totfact>
</mgrwt>
</event>
<event>
 6    1  0.9364335E-007  0.7038923E+03  0.7818608E-02  0.9710599E-01
         -2   -1    0    0    0  501 -0.00000000000E+00  0.00000000000E+00  0.10428639702E+03  0.10428639702E+03  0.00000000000E+00 0.  1.
          2   -1    0    0  501    0  0.00000000000E+00 -0.00000000000E+00 -0.11877492431E+04  0.11877492431E+04  0.00000000000E+00 0. -1.
         23    2    1    2    0    0 -0.54466728316E+02  0.16354270935E+03 -0.11016235207E+04  0.11187074763E+04  0.90659770572E+02 0.  0.
         13    1    3    3    0    0  0.47347932711E+01  0.24502212177E+02 -0.41037218790E+03  0.41113028260E+03  0.00000000000E+00 0. -1.
        -13    1    3    3    0    0 -0.59201521587E+02  0.13904049718E+03 -0.69125133275E+03  0.70757719370E+03  0.00000000000E+00 0.  1.
         22    1    1    2    0    0  0.54466728316E+02 -0.16354270935E+03  0.18160674566E+02  0.17332816383E+03  0.00000000000E+00 0.  1.
<mgrwt>
<rscale>  0 0.70389229E+03</rscale>
<asrwt>0</asrwt>
<pdfrwt beam="1">  1        2 0.18273066E+00 0.70389229E+03</pdfrwt>
<pdfrwt beam="2">  1       -2 0.16044060E-01 0.70389229E+03</pdfrwt>
<totfact> 0.60747757E+02</totfact>
</mgrwt>
</event>
<event>
 6    1  0.9364335E-007  0.4817927E+04  0.7818608E-02  0.7857224E-01
         -2   -1    0    0    0  501 -0.00000000000E+00  0.00000000000E+00  0.21882557601E+04  0.21882557601E+04  0.00000000000E+00 0.  1.
          2   -1    0    0  501    0  0.00000000000E+00 -0.00000000000E+00 -0.26519321246E+04  0.26519321246E+04  0.00000000000E+00 0. -1.
         23    2    1    2    0    0 -0.14967585101E+03 -0.23804536499E+04 -0.56545904420E+03  0.24528625710E+04  0.88478369323E+02 0.  0.
         13    1    3    3    0    0 -0.50181957663E+02 -0.51209969087E+03 -0.89592292492E+02  0.52229407534E+03  0.00000000000E+00 0.  1.
        -13    1    3    3    0    0 -0.99493893349E+02 -0.18683539590E+04 -0.47586675170E+03  0.19305684956E+04  0.00000000000E+00 0. -1.
         22    1    1    2    0    0  0.14967585101E+03  0.23804536499E+04  0.10178267967E+03  0.23873253137E+04  0.00000000000E+00 0.  1.
<mgrwt>
<rscale>  0 0.48179273E+04</rscale>
<asrwt>0</asrwt>
<pdfrwt beam="1">  1        2 0.40798956E+00 0.48179273E+04</pdfrwt>
<pdfrwt beam="2">  1       -2 0.33665473E+00 0.48179273E+04</pdfrwt>
<totfact> 0.39521673E-02</totfact>
</mgrwt>
</event>
<event>
 6    1  0.9364335E-007  0.4507097E+04  0.7818608E-02  0.7909395E-01
         -2   -1    0    0    0  501 -0.00000000000E+00  0.00000000000E+00  0.18847696624E+04  0.18847696624E+04  0.00000000000E+00 0.  1.
          2   -1    0    0  501    0  0.00000000000E+00 -0.00000000000E+00 -0.26944834554E+04  0.26944834554E+04  0.00000000000E+00 0. -1.
         23    2    1    2    0    0  0.89281113253E+03 -0.18758508881E+04  0.47970716352E+03  0.21341488919E+04  0.92435152290E+02 0.  0.
         13    1    3    3    0    0  0.16684201150E+03 -0.29829403658E+03  0.52503163803E+02  0.34579209255E+03  0.00000000000E+00 0. -1.
        -13    1    3    3    0    0  0.72596912104E+03 -0.15775568515E+04  0.42720399972E+03  0.17883567993E+04  0.00000000000E+00 0.  1.
         22    1    1    2    0    0 -0.89281113253E+03  0.18758508881E+04 -0.12894209564E+04  0.24451042259E+04  0.00000000000E+00 0. -1.
<mgrwt>
<rscale>  0 0.45070969E+04</rscale>
<asrwt>0</asrwt>
<pdfrwt beam="1">  1        2 0.41453592E+00 0.45070969E+04</pdfrwt>
<pdfrwt beam="2">  1       -2 0.28996456E+00 0.45070969E+04</pdfrwt>
<totfact> 0.74168385E-02</totfact>
</mgrwt>
</event>
<event>
 6    1  0.9364335E-007  0.1742489E+04  0.7818608E-02  0.8737496E-01
         -1   -1    0    0    0  501 -0.00000000000E+00  0.00000000000E+00  0.68145056697E+03  0.68145056697E+03  0.00000000000E+00 0.  1.
          1   -1    0    0  501    0  0.00000000000E+00 -0.00000000000E+00 -0.11138989156E+04  0.11138989156E+04  0.00000000000E+00 0. -1.
         23    2    1    2    0    0  0.18022617284E+02 -0.52083472374E+03 -0.93300001454E+03  0.10727530570E+04  0.93362036616E+02 0.  0.
         13    1    3    3    0    0  0.51169050212E+02 -0.35811504542E+03 -0.59932154322E+03  0.70003640592E+03  0.00000000000E+00 0.  1.
        -13    1    3    3    0    0 -0.33146432928E+02 -0.16271967832E+03 -0.33367847133E+03  0.37271665103E+03  0.00000000000E+00 0. -1.
         22    1    1    2    0    0 -0.18022617284E+02  0.52083472374E+03  0.50055166587E+03  0.72259642567E+03  0.00000000000E+00 0.  1.
<mgrwt>
<rscale>  0 0.17424891E+04</rscale>
<asrwt>0</asrwt>
<pdfrwt beam="1">  1        1 0.17136906E+00 0.17424891E+04</pdfrwt>
<pdfrwt beam="2">  1       -1 0.10483855E+00 0.17424891E+04</pdfrwt>
<totfact> 0.10029205E+01</totfact>
</mgrwt>
</event>
<event>
 6    1  0.9364335E-007  0.9555114E+03  0.7818608E-02  0.9358732E-01
          2   -1    0    0  501    0  0.00000000000E+00  0.00000000000E+00  0.40273286285E+03  0.40273286285E+03  0.00000000000E+00 0. -1.
         -2   -1    0    0    0  501 -0.00000000000E+00 -0.00000000000E+00 -0.56675406219E+03  0.56675406219E+03  0.00000000000E+00 0.  1.
         23    2    1    2    0    0  0.22561443454E+03 -0.27151344824E+02 -0.50387446078E+03  0.56066017944E+03  0.93868503699E+02 0.  0.
         13    1    3    3    0    0  0.13830145354E+03 -0.20124995520E+02 -0.19707325499E+03  0.24159920391E+03  0.00000000000E+00 0. -1.
        -13    1    3    3    0    0  0.87312981000E+02 -0.70263493038E+01 -0.30680120579E+03  0.31906097554E+03  0.00000000000E+00 0.  1.
         22    1    1    2    0    0 -0.22561443454E+03  0.27151344824E+02  0.33985326145E+03  0.40882674560E+03  0.00000000000E+00 0. -1.
<mgrwt>
<rscale>  0 0.95551135E+03</rscale>
<asrwt>0</asrwt>
<pdfrwt beam="1">  1        2 0.61958902E-01 0.95551135E+03</pdfrwt>
<pdfrwt beam="2">  1       -2 0.87192933E-01 0.95551135E+03</pdfrwt>
<totfact> 0.89811006E+01</totfact>
</mgrwt>
</event>
<event>
 6    1  0.9364335E-007  0.3548805E+04  0.7818608E-02  0.8102320E-01
         -1   -1    0    0    0  501 -0.00000000000E+00  0.00000000000E+00  0.21302375330E+04  0.21302375330E+04  0.00000000000E+00 0.  1.
          1   -1    0    0  501    0  0.00000000000E+00 -0.00000000000E+00 -0.14780060794E+04  0.14780060794E+04  0.00000000000E+00 0. -1.
         23    2    1    2    0    0  0.52588002753E+03 -0.68832548400E+03 -0.12468017095E+04  0.15209801576E+04  0.92327469884E+02 0.  0.
         11    1    3    3    0    0  0.15638941467E+03 -0.14320567749E+03 -0.32696900823E+03  0.38971046615E+03  0.00000000000E+00 0. -1.
        -11    1    3    3    0    0  0.36949061286E+03 -0.54511980651E+03 -0.91983270125E+03  0.11312696914E+04  0.00000000000E+00 0.  1.
         22    1    1    2    0    0 -0.52588002753E+03  0.68832548400E+03  0.18990331631E+04  0.20872634548E+04  0.00000000000E+00 0.  1.
<mgrwt>
<rscale>  0 0.35488049E+04</rscale>
<asrwt>0</asrwt>
<pdfrwt beam="1">  1        1 0.22738555E+00 0.35488049E+04</pdfrwt>
<pdfrwt beam="2">  1       -1 0.32772885E+00 0.35488049E+04</pdfrwt>
<totfact> 0.11990800E-01</totfact>
</mgrwt>
</event>
<event>
 6    1  0.9364335E-007  0.3724441E+04  0.7818608E-02  0.8062567E-01
         -1   -1    0    0    0  501 -0.00000000000E+00  0.00000000000E+00  0.18679657700E+04  0.18679657700E+04  0.00000000000E+00 0.  1.
          1   -1    0    0  501    0  0.00000000000E+00 -0.00000000000E+00 -0.18564924822E+04  0.18564924822E+04  0.00000000000E+00 0. -1.
         23    2    1    2    0    0  0.14950490211E+04 -0.18466303266E+03 -0.10866150178E+04  0.18603043052E+04  0.10357557639E+03 0.  0.
         13    1    3    3    0    0  0.64669217860E+03 -0.37805547285E+02 -0.43001401268E+03  0.77752947492E+03  0.00000000000E+00 0. -1.
        -13    1    3    3    0    0  0.84835684247E+03 -0.14685748537E+03 -0.65660100511E+03  0.10827748303E+04  0.00000000000E+00 0.  1.
         22    1    1    2    0    0 -0.14950490211E+04  0.18466303266E+03  0.10980883057E+04  0.18641539470E+04  0.00000000000E+00 0.  1.
<mgrwt>
<rscale>  0 0.37244406E+04</rscale>
<asrwt>0</asrwt>
<pdfrwt beam="1">  1        1 0.28561423E+00 0.37244406E+04</pdfrwt>
<pdfrwt beam="2">  1       -1 0.28737935E+00 0.37244406E+04</pdfrwt>
<totfact> 0.11904967E-01</totfact>
</mgrwt>
</event>
<event>
 6    1  0.9364335E-007  0.4333578E+04  0.7818608E-02  0.7940438E-01
          1   -1    0    0  501    0  0.00000000000E+00  0.00000000000E+00  0.21809841108E+04  0.21809841108E+04  0.00000000000E+00 0. -1.
         -1   -1    0    0    0  501 -0.00000000000E+00 -0.00000000000E+00 -0.21526865431E+04  0.21526865431E+04  0.00000000000E+00 0.  1.
         23    2    1    2    0    0  0.11776371224E+04  0.89799524539E+02 -0.18013197621E+04  0.21559671112E+04  0.92456218962E+02 0.  0.
         13    1    3    3    0    0  0.92887265807E+03  0.47693832609E+02 -0.14696825627E+04  0.17392659232E+04  0.00000000000E+00 0.  1.
        -13    1    3    3    0    0  0.24876446433E+03  0.42105691930E+02 -0.33163719942E+03  0.41670118796E+03  0.00000000000E+00 0. -1.
         22    1    1    2    0    0 -0.11776371224E+04 -0.89799524539E+02  0.18296173298E+04  0.21777035427E+04  0.00000000000E+00 0. -1.
<mgrwt>
<rscale>  0 0.43335783E+04</rscale>
<asrwt>0</asrwt>
<pdfrwt beam="1">  1        1 0.33553602E+00 0.43335783E+04</pdfrwt>
<pdfrwt beam="2">  1       -1 0.33118254E+00 0.43335783E+04</pdfrwt>
<totfact> 0.35350282E-02</totfact>
</mgrwt>
</event>
<event>
 6    1  0.9364335E-007  0.1970450E+04  0.7818608E-02  0.8620562E-01
          2   -1    0    0  501    0  0.00000000000E+00  0.00000000000E+00  0.99744508046E+03  0.99744508046E+03  0.00000000000E+00 0. -1.
         -2   -1    0    0    0  501 -0.00000000000E+00 -0.00000000000E+00 -0.97315458651E+03  0.97315458651E+03  0.00000000000E+00 0.  1.
         23    2    1    2    0    0  0.58701919835E+03  0.58386810050E+03  0.54233100454E+03  0.99394237363E+03  0.91131913211E+02 0.  0.
         13    1    3    3    0    0  0.33909085463E+03  0.29400531348E+03  0.33299020505E+03  0.55884184588E+03  0.00000000000E+00 0. -1.
        -13    1    3    3    0    0  0.24792834373E+03  0.28986278703E+03  0.20934079949E+03  0.43510052776E+03  0.00000000000E+00 0.  1.
         22    1    1    2    0    0 -0.58701919835E+03 -0.58386810050E+03 -0.51804051058E+03  0.97665729333E+03  0.00000000000E+00 0.  1.
<mgrwt>
<rscale>  0 0.19704500E+04</rscale>
<asrwt>0</asrwt>
<pdfrwt beam="1">  1        2 0.15345309E+00 0.19704500E+04</pdfrwt>
<pdfrwt beam="2">  1       -2 0.14971609E+00 0.19704500E+04</pdfrwt>
<totfact> 0.70897451E+00</totfact>
</mgrwt>
</event>
<event>
 6    1  0.9364335E-007  0.2142446E+04  0.7818608E-02  0.8542772E-01
          1   -1    0    0  501    0  0.00000000000E+00  0.00000000000E+00  0.93036721426E+03  0.93036721426E+03  0.00000000000E+00 0. -1.
         -1   -1    0    0    0  501 -0.00000000000E+00 -0.00000000000E+00 -0.12334045938E+04  0.12334045938E+04  0.00000000000E+00 0.  1.
         23    2    1    2    0    0  0.50753892138E+03  0.56876850601E+03  0.60428983998E+03  0.97872495099E+03  0.10790249699E+03 0.  0.
         11    1    3    3    0    0  0.12351022126E+03  0.15130164308E+03  0.98530253078E+02  0.21875825179E+03  0.00000000000E+00 0.  1.
        -11    1    3    3    0    0  0.38402870012E+03  0.41746686292E+03  0.50575958690E+03  0.75996669920E+03  0.00000000000E+00 0. -1.
         22    1    1    2    0    0 -0.50753892138E+03 -0.56876850601E+03 -0.90732721949E+03  0.11850468570E+04  0.00000000000E+00 0.  1.
<mgrwt>
<rscale>  0 0.21424464E+04</rscale>
<asrwt>0</asrwt>
<pdfrwt beam="1">  1        1 0.14313342E+00 0.21424464E+04</pdfrwt>
<pdfrwt beam="2">  1       -1 0.18975455E+00 0.21424464E+04</pdfrwt>
<totfact> 0.27939956E+00</totfact>
</mgrwt>
</event>
<event>
 6    1  0.9364335E-007  0.3282073E+04  0.7818608E-02  0.8167472E-01
          1   -1    0    0  501    0  0.00000000000E+00  0.00000000000E+00  0.27925680105E+04  0.27925680105E+04  0.00000000000E+00 0. -1.
         -1   -1    0    0    0  501 -0.00000000000E+00 -0.00000000000E+00 -0.96434562887E+03  0.96434562887E+03  0.00000000000E+00 0.  1.
         23    2    1    2    0    0 -0.94221015718E+03 -0.13410623103E+04  0.96073373002E+03  0.19025283878E+04  0.10196502359E+03 0.  0.
         13    1    3    3    0    0 -0.19639483700E+03 -0.35592496933E+03  0.23514798696E+03  0.46962548010E+03  0.00000000000E+00 0.  1.
        -13    1    3    3    0    0 -0.74581532017E+03 -0.98513734101E+03  0.72558574306E+03  0.14329029077E+04  0.00000000000E+00 0. -1.
         22    1    1    2    0    0  0.94221015718E+03  0.13410623103E+04  0.86748865164E+03  0.18543852516E+04  0.00000000000E+00 0.  1.
<mgrwt>
<rscale>  0 0.32820730E+04</rscale>
<asrwt>0</asrwt>
<pdfrwt beam="1">  1        1 0.42962584E+00 0.32820730E+04</pdfrwt>
<pdfrwt beam="2">  1       -1 0.14836087E+00 0.32820730E+04</pdfrwt>
<totfact> 0.25175482E-01</totfact>
</mgrwt>
</event>
<event>
 6    1  0.9413548E-007  0.4093768E+04  0.7818608E-02  0.7985893E-01
         -2   -1    0    0    0  501 -0.00000000000E+00  0.00000000000E+00  0.11598174976E+04  0.11598174976E+04  0.00000000000E+00 0.  1.
          2   -1    0    0  501    0  0.00000000000E+00 -0.00000000000E+00 -0.36124073602E+04  0.36124073602E+04  0.00000000000E+00 0. -1.
         23    2    1    2    0    0  0.12275184636E+04  0.14628369422E+04 -0.20827062432E+04  0.28271008540E+04  0.90224415558E+02 0.  0.
         11    1    3    3    0    0  0.59899036841E+03  0.70978158943E+03 -0.94640951331E+03  0.13259978631E+04  0.00000000000E+00 0.  1.
        -11    1    3    3    0    0  0.62852809522E+03  0.75305535279E+03 -0.11362967299E+04  0.15011029909E+04  0.00000000000E+00 0. -1.
         22    1    1    2    0    0 -0.12275184636E+04 -0.14628369422E+04 -0.36988361939E+03  0.19451240037E+04  0.00000000000E+00 0.  1.
<mgrwt>
<rscale>  0 0.40937676E+04</rscale>
<asrwt>0</asrwt>
<pdfrwt beam="1">  1        2 0.55575498E+00 0.40937676E+04</pdfrwt>
<pdfrwt beam="2">  1       -2 0.17843346E+00 0.40937676E+04</pdfrwt>
<totfact> 0.98232339E-02</totfact>
</mgrwt>
</event>
<event>
 6    1  0.9364335E-007  0.1777207E+04  0.7818608E-02  0.8718515E-01
         -1   -1    0    0    0  501 -0.00000000000E+00  0.00000000000E+00  0.77095659305E+03  0.77095659305E+03  0.00000000000E+00 0.  1.
          1   -1    0    0  501    0  0.00000000000E+00 -0.00000000000E+00 -0.10242032179E+04  0.10242032179E+04  0.00000000000E+00 0. -1.
         23    2    1    2    0    0  0.42935884261E+03  0.45958359582E+03 -0.75758776531E+03  0.98897987859E+03  0.92606051807E+02 0.  0.
         13    1    3    3    0    0  0.34605130701E+02  0.69588634041E+02 -0.12802793267E+03  0.14977063999E+03  0.00000000000E+00 0.  1.
        -13    1    3    3    0    0  0.39475371191E+03  0.38999496178E+03 -0.62955983264E+03  0.83920923860E+03  0.00000000000E+00 0. -1.
         22    1    1    2    0    0 -0.42935884261E+03 -0.45958359582E+03  0.50434114049E+03  0.80617993232E+03  0.00000000000E+00 0.  1.
<mgrwt>
<rscale>  0 0.17772070E+04</rscale>
<asrwt>0</asrwt>
<pdfrwt beam="1">  1        1 0.15756972E+00 0.17772070E+04</pdfrwt>
<pdfrwt beam="2">  1       -1 0.11860871E+00 0.17772070E+04</pdfrwt>
<totfact> 0.87271107E+00</totfact>
</mgrwt>
</event>
<event>
 6    1  0.9364335E-007  0.2973324E+04  0.7818608E-02  0.8251390E-01
          2   -1    0    0  501    0  0.00000000000E+00  0.00000000000E+00  0.28661957526E+04  0.28661957526E+04  0.00000000000E+00 0. -1.
         -2   -1    0    0    0  501 -0.00000000000E+00 -0.00000000000E+00 -0.77111405825E+03  0.77111405825E+03  0.00000000000E+00 0.  1.
         23    2    1    2    0    0  0.12786696994E+03  0.44810293649E+03  0.27736316195E+04  0.28141596394E+04  0.96518971309E+02 0.  0.
         13    1    3    3    0    0  0.59672254871E+02  0.22446654950E+03  0.16667167971E+04  0.16828222995E+04  0.00000000000E+00 0. -1.
        -13    1    3    3    0    0  0.68194715066E+02  0.22363638699E+03  0.11069148224E+04  0.11313373399E+04  0.00000000000E+00 0.  1.
         22    1    1    2    0    0 -0.12786696994E+03 -0.44810293649E+03 -0.67854992518E+03  0.82315017139E+03  0.00000000000E+00 0.  1.
<mgrwt>
<rscale>  0 0.29733240E+04</rscale>
<asrwt>0</asrwt>
<pdfrwt beam="1">  1        2 0.44095319E+00 0.29733240E+04</pdfrwt>
<pdfrwt beam="2">  1       -2 0.11863293E+00 0.29733240E+04</pdfrwt>
<totfact> 0.98727212E-01</totfact>
</mgrwt>
</event>
<event>
 6    1  0.9364335E-007  0.1057172E+04  0.7818608E-02  0.9247971E-01
          1   -1    0    0  501    0  0.00000000000E+00  0.00000000000E+00  0.93820624009E+03  0.93820624009E+03  0.00000000000E+00 0. -1.
         -1   -1    0    0    0  501 -0.00000000000E+00 -0.00000000000E+00 -0.29780553462E+03  0.29780553462E+03  0.00000000000E+00 0.  1.
         23    2    1    2    0    0  0.14805802812E+03 -0.28912975007E+03  0.80409484435E+03  0.87226328582E+03  0.93581670347E+02 0.  0.
         11    1    3    3    0    0  0.12644053602E+03 -0.16638418676E+03  0.56922846642E+03  0.60637608276E+03  0.00000000000E+00 0.  1.
        -11    1    3    3    0    0  0.21617492106E+02 -0.12274556330E+03  0.23486637793E+03  0.26588720307E+03  0.00000000000E+00 0. -1.
         22    1    1    2    0    0 -0.14805802812E+03  0.28912975007E+03 -0.16369413888E+03  0.36374848889E+03  0.00000000000E+00 0.  1.
<mgrwt>
<rscale>  0 0.10571717E+04</rscale>
<asrwt>0</asrwt>
<pdfrwt beam="1">  1        1 0.14433942E+00 0.10571717E+04</pdfrwt>
<pdfrwt beam="2">  1       -1 0.45816237E-01 0.10571717E+04</pdfrwt>
<totfact> 0.80105570E+01</totfact>
</mgrwt>
</event>
<event>
 6    1  0.9364335E-007  0.5134156E+03  0.7818608E-02  0.1010335E+00
         -2   -1    0    0    0  501 -0.00000000000E+00  0.00000000000E+00  0.61642690114E+02  0.61642690114E+02  0.00000000000E+00 0.  1.
          2   -1    0    0  501    0  0.00000000000E+00 -0.00000000000E+00 -0.10690464765E+04  0.10690464765E+04  0.00000000000E+00 0. -1.
         23    2    1    2    0    0 -0.16197699111E+03 -0.18883458455E+03 -0.50447622140E+03  0.56959097414E+03  0.89680398557E+02 0.  0.
         13    1    3    3    0    0 -0.54095946293E+02 -0.61599577722E+02 -0.84666192234E+02  0.11785263463E+03  0.00000000000E+00 0.  1.
        -13    1    3    3    0    0 -0.10788104482E+03 -0.12723500683E+03 -0.41981002917E+03  0.45173833951E+03  0.00000000000E+00 0. -1.
         22    1    1    2    0    0  0.16197699111E+03  0.18883458455E+03 -0.50292756495E+03  0.56109819244E+03  0.00000000000E+00 0. -1.
<mgrwt>
<rscale>  0 0.51341562E+03</rscale>
<asrwt>0</asrwt>
<pdfrwt beam="1">  1        2 0.16446870E+00 0.51341562E+03</pdfrwt>
<pdfrwt beam="2">  1       -2 0.94834904E-02 0.51341562E+03</pdfrwt>
<totfact> 0.17178585E+03</totfact>
</mgrwt>
</event>
<event>
 6    1  0.9364335E-007  0.2432771E+04  0.7818608E-02  0.8427336E-01
          1   -1    0    0  501    0  0.00000000000E+00  0.00000000000E+00  0.12986383905E+04  0.12986383905E+04  0.00000000000E+00 0. -1.
         -1   -1    0    0    0  501 -0.00000000000E+00 -0.00000000000E+00 -0.11393421759E+04  0.11393421759E+04  0.00000000000E+00 0.  1.
         23    2    1    2    0    0 -0.55607539668E+02  0.30023165429E+03 -0.10983467020E+04  0.11438024679E+04  0.93206025061E+02 0.  0.
         11    1    3    3    0    0 -0.79583081626E+02  0.20379213679E+03 -0.71004480290E+03  0.74298608602E+03  0.00000000000E+00 0. -1.
        -11    1    3    3    0    0  0.23975541958E+02  0.96439517501E+02 -0.38830189913E+03  0.40081638192E+03  0.00000000000E+00 0.  1.
         22    1    1    2    0    0  0.55607539668E+02 -0.30023165429E+03  0.12576429166E+04  0.12941780984E+04  0.00000000000E+00 0. -1.
<mgrwt>
<rscale>  0 0.24327708E+04</rscale>
<asrwt>0</asrwt>
<pdfrwt beam="1">  1        1 0.19979052E+00 0.24327708E+04</pdfrwt>
<pdfrwt beam="2">  1       -1 0.17528341E+00 0.24327708E+04</pdfrwt>
<totfact> 0.18238272E+00</totfact>
</mgrwt>
</event>
<event>
 6    1  0.9364335E-007  0.3168443E+04  0.7818608E-02  0.8197201E-01
          2   -1    0    0  501    0  0.00000000000E+00  0.00000000000E+00  0.24140927182E+04  0.24140927182E+04  0.00000000000E+00 0. -1.
         -2   -1    0    0    0  501 -0.00000000000E+00 -0.00000000000E+00 -0.10396274260E+04  0.10396274260E+04  0.00000000000E+00 0.  1.
         23    2    1    2    0    0  0.45432745446E+03  0.15067171059E+04  0.50212333073E+03  0.16543896102E+04  0.90924530184E+02 0.  0.
         13    1    3    3    0    0  0.36618089750E+03  0.13022034274E+04  0.45083506095E+03  0.14258592035E+04  0.00000000000E+00 0. -1.
        -13    1    3    3    0    0  0.88146556957E+02  0.20451367851E+03  0.51288269784E+02  0.22853040677E+03  0.00000000000E+00 0.  1.
         22    1    1    2    0    0 -0.45432745446E+03 -0.15067171059E+04  0.87234196145E+03  0.17993305340E+04  0.00000000000E+00 0. -1.
<mgrwt>
<rscale>  0 0.31684425E+04</rscale>
<asrwt>0</asrwt>
<pdfrwt beam="1">  1        2 0.37139888E+00 0.31684425E+04</pdfrwt>
<pdfrwt beam="2">  1       -2 0.15994268E+00 0.31684425E+04</pdfrwt>
<totfact> 0.83053214E-01</totfact>
</mgrwt>
</event>
<event>
 6    1  0.9364335E-007  0.2299994E+04  0.7818608E-02  0.8477924E-01
          1   -1    0    0  501    0  0.00000000000E+00  0.00000000000E+00  0.12414564897E+04  0.12414564897E+04  0.00000000000E+00 0. -1.
         -1   -1    0    0    0  501 -0.00000000000E+00 -0.00000000000E+00 -0.10652753370E+04  0.10652753370E+04  0.00000000000E+00 0.  1.
         23    2    1    2    0    0  0.27726211028E+03 -0.34037115569E+03  0.11530808437E+04  0.12357230462E+04  0.68477831566E+02 0.  0.
         11    1    3    3    0    0  0.17558658029E+03 -0.25977735471E+03  0.85259594115E+03  0.90842432820E+03  0.00000000000E+00 0.  1.
        -11    1    3    3    0    0  0.10167552998E+03 -0.80593800982E+02  0.30048490257E+03  0.32729871804E+03  0.00000000000E+00 0. -1.
         22    1    1    2    0    0 -0.27726211028E+03  0.34037115569E+03 -0.97689969108E+03  0.10710087805E+04  0.00000000000E+00 0.  1.
<mgrwt>
<rscale>  0 0.22999939E+04</rscale>
<asrwt>0</asrwt>
<pdfrwt beam="1">  1        1 0.19099331E+00 0.22999939E+04</pdfrwt>
<pdfrwt beam="2">  1       -1 0.16388851E+00 0.22999939E+04</pdfrwt>
<totfact> 0.24613410E+00</totfact>
</mgrwt>
</event>
<event>
 6    1  0.9364335E-007  0.1749911E+04  0.7818608E-02  0.8733399E-01
          2   -1    0    0  501    0  0.00000000000E+00  0.00000000000E+00  0.14793264899E+04  0.14793264899E+04  0.00000000000E+00 0. -1.
         -2   -1    0    0    0  501 -0.00000000000E+00 -0.00000000000E+00 -0.51749736514E+03  0.51749736514E+03  0.00000000000E+00 0.  1.
         23    2    1    2    0    0 -0.86608695369E+03  0.79066386566E+02  0.39483326795E+03  0.95863196213E+03  0.81998929796E+02 0.  0.
         11    1    3    3    0    0 -0.12358987269E+03  0.30539810525E+02  0.34533584618E+02  0.13190794186E+03  0.00000000000E+00 0. -1.
        -11    1    3    3    0    0 -0.74249708100E+03  0.48526576041E+02  0.36029968333E+03  0.82672402027E+03  0.00000000000E+00 0.  1.
         22    1    1    2    0    0  0.86608695369E+03 -0.79066386566E+02  0.56699585677E+03  0.10381918929E+04  0.00000000000E+00 0. -1.
<mgrwt>
<rscale>  0 0.17499115E+04</rscale>
<asrwt>0</asrwt>
<pdfrwt beam="1">  1        2 0.22758869E+00 0.17499115E+04</pdfrwt>
<pdfrwt beam="2">  1       -2 0.79614980E-01 0.17499115E+04</pdfrwt>
<totfact> 0.17271692E+01</totfact>
</mgrwt>
</event>
<event>
 6    1  0.9364335E-007  0.2110732E+04  0.7818608E-02  0.8556531E-01
         -2   -1    0    0    0  501 -0.00000000000E+00  0.00000000000E+00  0.14788585985E+04  0.14788585985E+04  0.00000000000E+00 0.  1.
          2   -1    0    0  501    0  0.00000000000E+00 -0.00000000000E+00 -0.75314668157E+03  0.75314668157E+03  0.00000000000E+00 0. -1.
         23    2    1    2    0    0  0.46018826281E+02 -0.40059117249E+03  0.13926100475E+04  0.14526824097E+04  0.91282086670E+02 0.  0.
         11    1    3    3    0    0  0.41795047172E+02 -0.29574467709E+03  0.11538541860E+04  0.11918855745E+04  0.00000000000E+00 0. -1.
        -11    1    3    3    0    0  0.42237791089E+01 -0.10484649540E+03  0.23875586143E+03  0.26079683524E+03  0.00000000000E+00 0.  1.
         22    1    1    2    0    0 -0.46018826281E+02  0.40059117249E+03 -0.66689813049E+03  0.77932287039E+03  0.00000000000E+00 0. -1.
<mgrwt>
<rscale>  0 0.21107320E+04</rscale>
<asrwt>0</asrwt>
<pdfrwt beam="1">  1        2 0.11586872E+00 0.21107320E+04</pdfrwt>
<pdfrwt beam="2">  1       -2 0.22751671E+00 0.21107320E+04</pdfrwt>
<totfact> 0.30419478E+00</totfact>
</mgrwt>
</event>
<event>
 6    1  0.9364335E-007  0.1995181E+04  0.7818608E-02  0.8608877E-01
         -2   -1    0    0    0  501 -0.00000000000E+00  0.00000000000E+00  0.60206208276E+03  0.60206208276E+03  0.00000000000E+00 0.  1.
          2   -1    0    0  501    0  0.00000000000E+00 -0.00000000000E+00 -0.16529634409E+04  0.16529634409E+04  0.00000000000E+00 0. -1.
         23    2    1    2    0    0  0.37060047005E+03 -0.86409071832E+03 -0.15595823288E+03  0.95698058017E+03  0.86552773097E+02 0.  0.
         13    1    3    3    0    0  0.19794343633E+03 -0.35820710315E+03 -0.81279084869E+02  0.41725318737E+03  0.00000000000E+00 0.  1.
        -13    1    3    3    0    0  0.17265703372E+03 -0.50588361517E+03 -0.74679148015E+02  0.53972739280E+03  0.00000000000E+00 0. -1.
         22    1    1    2    0    0 -0.37060047005E+03  0.86409071832E+03 -0.89494312528E+03  0.12980449435E+04  0.00000000000E+00 0. -1.
<mgrwt>
<rscale>  0 0.19951808E+04</rscale>
<asrwt>0</asrwt>
<pdfrwt beam="1">  1        2 0.25430207E+00 0.19951808E+04</pdfrwt>
<pdfrwt beam="2">  1       -2 0.92624935E-01 0.19951808E+04</pdfrwt>
<totfact> 0.95726589E+00</totfact>
</mgrwt>
</event>
<event>
 6    1  0.9364335E-007  0.1252155E+04  0.7818608E-02  0.9068392E-01
          2   -1    0    0  501    0  0.00000000000E+00  0.00000000000E+00  0.77566136330E+03  0.77566136330E+03  0.00000000000E+00 0. -1.
         -2   -1    0    0    0  501 -0.00000000000E+00 -0.00000000000E+00 -0.50534016041E+03  0.50534016041E+03  0.00000000000E+00 0.  1.
         23    2    1    2    0    0 -0.27437955107E+02  0.60720106541E+03  0.27513797254E+03  0.67316176153E+03  0.89442037268E+02 0.  0.
         13    1    3    3    0    0 -0.49974825419E+02  0.42329741083E+03  0.16148848887E+03  0.45580337124E+03  0.00000000000E+00 0. -1.
        -13    1    3    3    0    0  0.22536870312E+02  0.18390365458E+03  0.11364948367E+03  0.21735839029E+03  0.00000000000E+00 0.  1.
         22    1    1    2    0    0  0.27437955107E+02 -0.60720106541E+03 -0.48167696556E+01  0.60783976218E+03  0.00000000000E+00 0.  1.
<mgrwt>
<rscale>  0 0.12521547E+04</rscale>
<asrwt>0</asrwt>
<pdfrwt beam="1">  1        2 0.11933252E+00 0.12521547E+04</pdfrwt>
<pdfrwt beam="2">  1       -2 0.77744640E-01 0.12521547E+04</pdfrwt>
<totfact> 0.52035680E+01</totfact>
</mgrwt>
</event>
<event>
 6    1  0.9364335E-007  0.2470193E+04  0.7818608E-02  0.8413682E-01
         -2   -1    0    0    0  501 -0.00000000000E+00  0.00000000000E+00  0.98223219794E+03  0.98223219794E+03  0.00000000000E+00 0.  1.
          2   -1    0    0  501    0  0.00000000000E+00 -0.00000000000E+00 -0.15530580009E+04  0.15530580009E+04  0.00000000000E+00 0. -1.
         23    2    1    2    0    0 -0.94789585012E+03 -0.15781411760E+03 -0.10794063804E+04  0.14480615926E+04  0.91391485548E+02 0.  0.
         11    1    3    3    0    0 -0.50216452600E+03 -0.56292103890E+02 -0.51129108561E+03  0.71885783459E+03  0.00000000000E+00 0. -1.
        -11    1    3    3    0    0 -0.44573132412E+03 -0.10152201371E+03 -0.56811529476E+03  0.72920375802E+03  0.00000000000E+00 0.  1.
         22    1    1    2    0    0  0.94789585012E+03  0.15781411760E+03  0.50858057743E+03  0.10872286062E+04  0.00000000000E+00 0.  1.
<mgrwt>
<rscale>  0 0.24701932E+04</rscale>
<asrwt>0</asrwt>
<pdfrwt beam="1">  1        2 0.23893200E+00 0.24701932E+04</pdfrwt>
<pdfrwt beam="2">  1       -2 0.15111265E+00 0.24701932E+04</pdfrwt>
<totfact> 0.31129339E+00</totfact>
</mgrwt>
</event>
<event>
 6    1  0.9364335E-007  0.3198572E+04  0.7818608E-02  0.8189195E-01
         -2   -1    0    0    0  501 -0.00000000000E+00  0.00000000000E+00  0.13539328089E+04  0.13539328089E+04  0.00000000000E+00 0.  1.
          2   -1    0    0  501    0  0.00000000000E+00 -0.00000000000E+00 -0.18891003637E+04  0.18891003637E+04  0.00000000000E+00 0. -1.
         23    2    1    2    0    0 -0.12031523928E+04 -0.10205925021E+04 -0.52530389738E+03  0.16652873034E+04  0.89737854314E+02 0.  0.
         13    1    3    3    0    0 -0.38124412824E+03 -0.37906181223E+03 -0.18105462218E+03  0.56728803885E+03  0.00000000000E+00 0.  1.
        -13    1    3    3    0    0 -0.82190826460E+03 -0.64153068989E+03 -0.34424927519E+03  0.10979992646E+04  0.00000000000E+00 0. -1.
         22    1    1    2    0    0  0.12031523928E+04  0.10205925021E+04 -0.98636574138E+01  0.15777458691E+04  0.00000000000E+00 0.  1.
<mgrwt>
<rscale>  0 0.31985715E+04</rscale>
<asrwt>0</asrwt>
<pdfrwt beam="1">  1        2 0.29063082E+00 0.31985715E+04</pdfrwt>
<pdfrwt beam="2">  1       -2 0.20829736E+00 0.31985715E+04</pdfrwt>
<totfact> 0.76162366E-01</totfact>
</mgrwt>
</event>
<event>
 6    1  0.9364335E-007  0.1850313E+04  0.7818608E-02  0.8679992E-01
         -2   -1    0    0    0  501 -0.00000000000E+00  0.00000000000E+00  0.32023199866E+03  0.32023199866E+03  0.00000000000E+00 0.  1.
          2   -1    0    0  501    0  0.00000000000E+00 -0.00000000000E+00 -0.26727964846E+04  0.26727964846E+04  0.00000000000E+00 0. -1.
         23    2    1    2    0    0 -0.69081178189E+03  0.32385245179E+03 -0.20191980073E+04  0.21604214105E+04  0.90325797906E+02 0.  0.
         13    1    3    3    0    0 -0.17606016882E+03  0.44950758159E+02 -0.52948271575E+03  0.55979433722E+03  0.00000000000E+00 0. -1.
        -13    1    3    3    0    0 -0.51475161307E+03  0.27890169363E+03 -0.14897152916E+04  0.16006270733E+04  0.00000000000E+00 0.  1.
         22    1    1    2    0    0  0.69081178189E+03 -0.32385245179E+03 -0.33336647865E+03  0.83260707276E+03  0.00000000000E+00 0.  1.
<mgrwt>
<rscale>  0 0.18503134E+04</rscale>
<asrwt>0</asrwt>
<pdfrwt beam="1">  1        2 0.41119947E+00 0.18503134E+04</pdfrwt>
<pdfrwt beam="2">  1       -2 0.49266460E-01 0.18503134E+04</pdfrwt>
<totfact> 0.10124830E+01</totfact>
</mgrwt>
</event>
<event>
 6    1  0.9364335E-007  0.1539803E+04  0.7818608E-02  0.8858407E-01
         -2   -1    0    0    0  501 -0.00000000000E+00  0.00000000000E+00  0.16392311654E+03  0.16392311654E+03  0.00000000000E+00 0.  1.
          2   -1    0    0  501    0  0.00000000000E+00 -0.00000000000E+00 -0.36160157774E+04  0.36160157774E+04  0.00000000000E+00 0. -1.
         23    2    1    2    0    0 -0.19636716220E+03 -0.35615618745E+03 -0.33291348088E+04  0.33550554680E+04  0.88607709024E+02 0.  0.
         13    1    3    3    0    0 -0.16325221675E+03 -0.26082535848E+03 -0.21990298447E+04  0.22204534248E+04  0.00000000000E+00 0. -1.
        -13    1    3    3    0    0 -0.33114945454E+02 -0.95330828970E+02 -0.11301049641E+04  0.11346020432E+04  0.00000000000E+00 0.  1.
         22    1    1    2    0    0  0.19636716220E+03  0.35615618745E+03 -0.12295785209E+03  0.42488342594E+03  0.00000000000E+00 0.  1.
<mgrwt>
<rscale>  0 0.15398033E+04</rscale>
<asrwt>0</asrwt>
<pdfrwt beam="1">  1        2 0.55631009E+00 0.15398033E+04</pdfrwt>
<pdfrwt beam="2">  1       -2 0.25218942E-01 0.15398033E+04</pdfrwt>
<totfact> 0.92835043E+00</totfact>
</mgrwt>
</event>
<event>
 6    1  0.9364335E-007  0.2348214E+03  0.7818608E-02  0.1123292E+00
         -1   -1    0    0    0  501 -0.00000000000E+00  0.00000000000E+00  0.57858633005E+01  0.57858633005E+01  0.00000000000E+00 0.  1.
          1   -1    0    0  501    0  0.00000000000E+00 -0.00000000000E+00 -0.23825785783E+04  0.23825785783E+04  0.00000000000E+00 0. -1.
         23    2    1    2    0    0 -0.64011990998E+02  0.33422348317E+01 -0.21456234210E+04  0.21484729078E+04  0.90151345318E+02 0.  0.
         11    1    3    3    0    0 -0.29667553707E+02 -0.39836434662E+02 -0.13643581452E+04  0.13652619726E+04  0.00000000000E+00 0. -1.
        -11    1    3    3    0    0 -0.34344437291E+02  0.43178669493E+02 -0.78126527581E+03  0.78321093522E+03  0.00000000000E+00 0.  1.
         22    1    1    2    0    0  0.64011990998E+02 -0.33422348317E+01 -0.23116929399E+03  0.23989153384E+03  0.00000000000E+00 0.  1.
<mgrwt>
<rscale>  0 0.23482141E+03</rscale>
<asrwt>0</asrwt>
<pdfrwt beam="1">  1        1 0.36654987E+00 0.23482141E+03</pdfrwt>
<pdfrwt beam="2">  1       -1 0.89013447E-03 0.23482141E+03</pdfrwt>
<totfact> 0.42215270E+03</totfact>
</mgrwt>
</event>
<event>
 6    1  0.9364335E-007  0.1375221E+04  0.7818608E-02  0.8971952E-01
          2   -1    0    0  501    0  0.00000000000E+00  0.00000000000E+00  0.38304817434E+04  0.38304817434E+04  0.00000000000E+00 0. -1.
         -2   -1    0    0    0  501 -0.00000000000E+00 -0.00000000000E+00 -0.12343317542E+03  0.12343317542E+03  0.00000000000E+00 0.  1.
         23    2    1    2    0    0 -0.54651537482E+03  0.31604716863E+02  0.30432316338E+04  0.30934901196E+04  0.93511656165E+02 0.  0.
         13    1    3    3    0    0 -0.37677305861E+03  0.17955807093E+02  0.18397505246E+04  0.18780208575E+04  0.00000000000E+00 0.  1.
        -13    1    3    3    0    0 -0.16974231621E+03  0.13648909770E+02  0.12034811092E+04  0.12154692620E+04  0.00000000000E+00 0. -1.
         22    1    1    2    0    0  0.54651537482E+03 -0.31604716863E+02  0.66381693412E+03  0.86042479919E+03  0.00000000000E+00 0.  1.
<mgrwt>
<rscale>  0 0.13752215E+04</rscale>
<asrwt>0</asrwt>
<pdfrwt beam="1">  1        2 0.58930479E+00 0.13752215E+04</pdfrwt>
<pdfrwt beam="2">  1       -2 0.18989722E-01 0.13752215E+04</pdfrwt>
<totfact> 0.10895195E+01</totfact>
</mgrwt>
</event>
<event>
 6    1  0.9364335E-007  0.3285473E+04  0.7818608E-02  0.8166602E-01
         -1   -1    0    0    0  501 -0.00000000000E+00  0.00000000000E+00  0.11665132930E+04  0.11665132930E+04  0.00000000000E+00 0.  1.
          1   -1    0    0  501    0  0.00000000000E+00 -0.00000000000E+00 -0.23133761068E+04  0.23133761068E+04  0.00000000000E+00 0. -1.
         23    2    1    2    0    0 -0.11602533643E+04 -0.11475097133E+04 -0.38625920459E+03  0.16794771521E+04  0.92091909347E+02 0.  0.
         11    1    3    3    0    0 -0.69452435673E+03 -0.69872924182E+03 -0.18758167681E+03  0.10028826058E+04  0.00000000000E+00 0.  1.
        -11    1    3    3    0    0 -0.46572900753E+03 -0.44878047151E+03 -0.19867752778E+03  0.67659454631E+03  0.00000000000E+00 0. -1.
         22    1    1    2    0    0  0.11602533643E+04  0.11475097133E+04 -0.76060360923E+03  0.18004122477E+04  0.00000000000E+00 0.  1.
<mgrwt>
<rscale>  0 0.32854735E+04</rscale>
<asrwt>0</asrwt>
<pdfrwt beam="1">  1        1 0.35590401E+00 0.32854735E+04</pdfrwt>
<pdfrwt beam="2">  1       -1 0.17946358E+00 0.32854735E+04</pdfrwt>
<totfact> 0.31777709E-01</totfact>
</mgrwt>
</event>
<event>
 6    1  0.9364335E-007  0.2267603E+04  0.7818608E-02  0.8490805E-01
         -2   -1    0    0    0  501 -0.00000000000E+00  0.00000000000E+00  0.44036617355E+03  0.44036617355E+03  0.00000000000E+00 0.  1.
          2   -1    0    0  501    0  0.00000000000E+00 -0.00000000000E+00 -0.29191756087E+04  0.29191756087E+04  0.00000000000E+00 0. -1.
         23    2    1    2    0    0  0.57582697816E+03 -0.82177736297E+03 -0.20174854173E+04  0.22551348860E+04  0.92147718328E+02 0.  0.
         13    1    3    3    0    0  0.30829028716E+03 -0.44794564815E+03 -0.11948038782E+04  0.13127278897E+04  0.00000000000E+00 0. -1.
        -13    1    3    3    0    0  0.26753669100E+03 -0.37383171482E+03 -0.82268153905E+03  0.94240699633E+03  0.00000000000E+00 0.  1.
         22    1    1    2    0    0 -0.57582697816E+03  0.82177736297E+03 -0.46132401789E+03  0.11044068963E+04  0.00000000000E+00 0.  1.
<mgrwt>
<rscale>  0 0.22676033E+04</rscale>
<asrwt>0</asrwt>
<pdfrwt beam="1">  1        2 0.44910395E+00 0.22676033E+04</pdfrwt>
<pdfrwt beam="2">  1       -2 0.67748641E-01 0.22676033E+04</pdfrwt>
<totfact> 0.35500877E+00</totfact>
</mgrwt>
</event>
<event>
 6    1  0.9364335E-007  0.2277838E+04  0.7818608E-02  0.8486711E-01
         -1   -1    0    0    0  501 -0.00000000000E+00  0.00000000000E+00  0.11268328505E+04  0.11268328505E+04  0.00000000000E+00 0.  1.
          1   -1    0    0  501    0  0.00000000000E+00 -0.00000000000E+00 -0.11511350435E+04  0.11511350435E+04  0.00000000000E+00 0. -1.
         23    2    1    2    0    0  0.68418048009E+03  0.58293986263E+03  0.68423148359E+03  0.11334410120E+04  0.92703785612E+02 0.  0.
         13    1    3    3    0    0  0.97340906039E+02  0.10395488367E+03  0.14771041997E+03  0.20518342524E+03  0.00000000000E+00 0. -1.
        -13    1    3    3    0    0  0.58683957405E+03  0.47898497897E+03  0.53652106362E+03  0.92825758680E+03  0.00000000000E+00 0.  1.
         22    1    1    2    0    0 -0.68418048009E+03 -0.58293986263E+03 -0.70853367658E+03  0.11445268820E+04  0.00000000000E+00 0.  1.
<mgrwt>
<rscale>  0 0.22778383E+04</rscale>
<asrwt>0</asrwt>
<pdfrwt beam="1">  1        1 0.17709770E+00 0.22778383E+04</pdfrwt>
<pdfrwt beam="2">  1       -1 0.17335890E+00 0.22778383E+04</pdfrwt>
<totfact> 0.24447340E+00</totfact>
</mgrwt>
</event>
<event>
 6    1  0.9364335E-007  0.6852323E+04  0.7818608E-02  0.7592860E-01
          2   -1    0    0  501    0  0.00000000000E+00  0.00000000000E+00  0.35401866765E+04  0.35401866765E+04  0.00000000000E+00 0. -1.
         -2   -1    0    0    0  501 -0.00000000000E+00 -0.00000000000E+00 -0.33158093074E+04  0.33158093074E+04  0.00000000000E+00 0.  1.
         23    2    1    2    0    0 -0.18621080015E+04 -0.13421551456E+04 -0.24317409309E+04  0.33454702302E+04  0.99902262046E+02 0.  0.
         11    1    3    3    0    0 -0.14985178376E+04 -0.11125391480E+04 -0.19337349723E+04  0.26874951179E+04  0.00000000000E+00 0.  1.
        -11    1    3    3    0    0 -0.36359016386E+03 -0.22961599758E+03 -0.49800595861E+03  0.65797511230E+03  0.00000000000E+00 0. -1.
         22    1    1    2    0    0  0.18621080015E+04  0.13421551456E+04  0.26561182999E+04  0.35105257537E+04  0.00000000000E+00 0. -1.
<mgrwt>
<rscale>  0 0.68523234E+04</rscale>
<asrwt>0</asrwt>
<pdfrwt beam="1">  1        2 0.54464410E+00 0.68523234E+04</pdfrwt>
<pdfrwt beam="2">  1       -2 0.51012451E+00 0.68523234E+04</pdfrwt>
<totfact> 0.69656961E-04</totfact>
</mgrwt>
</event>
<event>
 6    1  0.9364335E-007  0.2239348E+04  0.7818608E-02  0.8502227E-01
         -2   -1    0    0    0  501 -0.00000000000E+00  0.00000000000E+00  0.19205081507E+04  0.19205081507E+04  0.00000000000E+00 0.  1.
          2   -1    0    0  501    0  0.00000000000E+00 -0.00000000000E+00 -0.65278054162E+03  0.65278054162E+03  0.00000000000E+00 0. -1.
         23    2    1    2    0    0  0.73847091852E+03  0.71729963854E+03  0.11353655528E+04  0.15353205893E+04  0.91084051662E+02 0.  0.
         13    1    3    3    0    0  0.33095401757E+03  0.27860170695E+03  0.42789899646E+03  0.60847927165E+03  0.00000000000E+00 0. -1.
        -13    1    3    3    0    0  0.40751690095E+03  0.43869793159E+03  0.70746655632E+03  0.92684131762E+03  0.00000000000E+00 0.  1.
         22    1    1    2    0    0 -0.73847091852E+03 -0.71729963854E+03  0.13236205627E+03  0.10379681030E+04  0.00000000000E+00 0. -1.
<mgrwt>
<rscale>  0 0.22393484E+04</rscale>
<asrwt>0</asrwt>
<pdfrwt beam="1">  1        2 0.10042778E+00 0.22393484E+04</pdfrwt>
<pdfrwt beam="2">  1       -2 0.29546279E+00 0.22393484E+04</pdfrwt>
<totfact> 0.13812225E+00</totfact>
</mgrwt>
</event>
<event>
 6    1  0.9364335E-007  0.9227408E+03  0.7818608E-02  0.9397592E-01
          2   -1    0    0  501    0  0.00000000000E+00  0.00000000000E+00  0.76031448749E+03  0.76031448749E+03  0.00000000000E+00 0. -1.
         -2   -1    0    0    0  501 -0.00000000000E+00 -0.00000000000E+00 -0.27996658525E+03  0.27996658525E+03  0.00000000000E+00 0.  1.
         23    2    1    2    0    0 -0.23127635308E+02 -0.19520380072E+03  0.70782192440E+03  0.73964201657E+03  0.86133760425E+02 0.  0.
         11    1    3    3    0    0  0.10928694755E+02 -0.15273006937E+03  0.42780801718E+03  0.45438486993E+03  0.00000000000E+00 0. -1.
        -11    1    3    3    0    0 -0.34056330063E+02 -0.42473731347E+02  0.28001390722E+03  0.28525714664E+03  0.00000000000E+00 0.  1.
         22    1    1    2    0    0  0.23127635308E+02  0.19520380072E+03 -0.22747402216E+03  0.30063905616E+03  0.00000000000E+00 0.  1.
<mgrwt>
<rscale>  0 0.92274081E+03</rscale>
<asrwt>0</asrwt>
<pdfrwt beam="1">  1        2 0.11697146E+00 0.92274081E+03</pdfrwt>
<pdfrwt beam="2">  1       -2 0.43071783E-01 0.92274081E+03</pdfrwt>
<totfact> 0.18857690E+02</totfact>
</mgrwt>
</event>
<event>
 6    1  0.9364335E-007  0.4434563E+04  0.7818608E-02  0.7922194E-01
         -2   -1    0    0    0  501 -0.00000000000E+00  0.00000000000E+00  0.12892503655E+04  0.12892503655E+04  0.00000000000E+00 0.  1.
          2   -1    0    0  501    0  0.00000000000E+00 -0.00000000000E+00 -0.38133297894E+04  0.38133297894E+04  0.00000000000E+00 0. -1.
         23    2    1    2    0    0  0.19267471946E+04  0.42846035844E+02 -0.32522077026E+01  0.19294491478E+04  0.92589971197E+02 0.  0.
         13    1    3    3    0    0  0.27147330225E+03 -0.54430230458E+01 -0.30588881251E+02  0.27324542080E+03  0.00000000000E+00 0.  1.
        -13    1    3    3    0    0  0.16552738923E+04  0.48289058889E+02  0.27336673548E+02  0.16562037270E+04  0.00000000000E+00 0. -1.
         22    1    1    2    0    0 -0.19267471946E+04 -0.42846035844E+02 -0.25208272162E+04  0.31731310071E+04  0.00000000000E+00 0. -1.
<mgrwt>
<rscale>  0 0.44345628E+04</rscale>
<asrwt>0</asrwt>
<pdfrwt beam="1">  1        2 0.58666612E+00 0.44345628E+04</pdfrwt>
<pdfrwt beam="2">  1       -2 0.19834621E+00 0.44345628E+04</pdfrwt>
<totfact> 0.49679733E-02</totfact>
</mgrwt>
</event>
<event>
 6    1  0.9364335E-007  0.5026695E+04  0.7818608E-02  0.7824402E-01
         -1   -1    0    0    0  501 -0.00000000000E+00  0.00000000000E+00  0.42133768865E+04  0.42133768865E+04  0.00000000000E+00 0.  1.
          1   -1    0    0  501    0  0.00000000000E+00 -0.00000000000E+00 -0.14992522250E+04  0.14992522250E+04  0.00000000000E+00 0. -1.
         23    2    1    2    0    0 -0.22777982991E+04 -0.37947250835E+03  0.23221492673E+03  0.23226084025E+04  0.90672725305E+02 0.  0.
         13    1    3    3    0    0 -0.18650544850E+04 -0.28685345256E+03  0.16349533110E+03  0.18940548721E+04  0.00000000000E+00 0.  1.
        -13    1    3    3    0    0 -0.41274381406E+03 -0.92619055786E+02  0.68719595630E+02  0.42855353033E+03  0.00000000000E+00 0. -1.
         22    1    1    2    0    0  0.22777982991E+04  0.37947250835E+03  0.24819097348E+04  0.33900207090E+04  0.00000000000E+00 0. -1.
<mgrwt>
<rscale>  0 0.50266946E+04</rscale>
<asrwt>0</asrwt>
<pdfrwt beam="1">  1        1 0.23065419E+00 0.50266946E+04</pdfrwt>
<pdfrwt beam="2">  1       -1 0.64821182E+00 0.50266946E+04</pdfrwt>
<totfact> 0.14158418E-03</totfact>
</mgrwt>
</event>
<event>
 6    1  0.9364335E-007  0.1886936E+04  0.7818608E-02  0.8661387E-01
          2   -1    0    0  501    0  0.00000000000E+00  0.00000000000E+00  0.82395781217E+03  0.82395781217E+03  0.00000000000E+00 0. -1.
         -2   -1    0    0    0  501 -0.00000000000E+00 -0.00000000000E+00 -0.10803124383E+04  0.10803124383E+04  0.00000000000E+00 0.  1.
         23    2    1    2    0    0 -0.84971463441E+03  0.36882445300E+03  0.40069634253E+02  0.93168926195E+03  0.91612598325E+02 0.  0.
         11    1    3    3    0    0 -0.58038462916E+03  0.29636234254E+03  0.37894043576E+02  0.65277324882E+03  0.00000000000E+00 0.  1.
        -11    1    3    3    0    0 -0.26933000525E+03  0.72462110457E+02  0.21755906767E+01  0.27891601312E+03  0.00000000000E+00 0. -1.
         22    1    1    2    0    0  0.84971463441E+03 -0.36882445300E+03 -0.29642426036E+03  0.97258098850E+03  0.00000000000E+00 0.  1.
<mgrwt>
<rscale>  0 0.18869360E+04</rscale>
<asrwt>0</asrwt>
<pdfrwt beam="1">  1        2 0.12676274E+00 0.18869360E+04</pdfrwt>
<pdfrwt beam="2">  1       -2 0.16620191E+00 0.18869360E+04</pdfrwt>
<totfact> 0.70410301E+00</totfact>
</mgrwt>
</event>
<event>
 6    1  0.9364335E-007  0.1746835E+04  0.7818608E-02  0.8735094E-01
          2   -1    0    0  501    0  0.00000000000E+00  0.00000000000E+00  0.52178791459E+03  0.52178791459E+03  0.00000000000E+00 0. -1.
         -2   -1    0    0    0  501 -0.00000000000E+00 -0.00000000000E+00 -0.14620083940E+04  0.14620083940E+04  0.00000000000E+00 0.  1.
         23    2    1    2    0    0 -0.39784388015E+03 -0.22169388892E+03 -0.13145828919E+04  0.13942412651E+04  0.91392517431E+02 0.  0.
         11    1    3    3    0    0 -0.22342715409E+03 -0.84259657089E+02 -0.59328937516E+03  0.63954019864E+03  0.00000000000E+00 0.  1.
        -11    1    3    3    0    0 -0.17441672606E+03 -0.13743423183E+03 -0.72129351676E+03  0.75470106646E+03  0.00000000000E+00 0. -1.
         22    1    1    2    0    0  0.39784388015E+03  0.22169388892E+03  0.37436241253E+03  0.58955504346E+03  0.00000000000E+00 0. -1.
<mgrwt>
<rscale>  0 0.17468352E+04</rscale>
<asrwt>0</asrwt>
<pdfrwt beam="1">  1        2 0.80275065E-01 0.17468352E+04</pdfrwt>
<pdfrwt beam="2">  1       -2 0.22492437E+00 0.17468352E+04</pdfrwt>
<totfact> 0.51067990E+00</totfact>
</mgrwt>
</event>
<event>
 6    1  0.9364335E-007  0.2378325E+04  0.7818608E-02  0.8447663E-01
          2   -1    0    0  501    0  0.00000000000E+00  0.00000000000E+00  0.22880512363E+04  0.22880512363E+04  0.00000000000E+00 0. -1.
         -2   -1    0    0    0  501 -0.00000000000E+00 -0.00000000000E+00 -0.61804009853E+03  0.61804009853E+03  0.00000000000E+00 0.  1.
         23    2    1    2    0    0  0.10743346508E+04 -0.22913184065E+03  0.28402245883E+03  0.11375719088E+04  0.81882526851E+02 0.  0.
         11    1    3    3    0    0  0.81449316424E+03 -0.18853521288E+03  0.24857049681E+03  0.87219948004E+03  0.00000000000E+00 0. -1.
        -11    1    3    3    0    0  0.25984148654E+03 -0.40596627765E+02  0.35451962019E+02  0.26537242872E+03  0.00000000000E+00 0.  1.
         22    1    1    2    0    0 -0.10743346508E+04  0.22913184065E+03  0.13859886790E+04  0.17685194261E+04  0.00000000000E+00 0. -1.
<mgrwt>
<rscale>  0 0.23783250E+04</rscale>
<asrwt>0</asrwt>
<pdfrwt beam="1">  1        2 0.35200788E+00 0.23783250E+04</pdfrwt>
<pdfrwt beam="2">  1       -2 0.95083093E-01 0.23783250E+04</pdfrwt>
<totfact> 0.38577650E+00</totfact>
</mgrwt>
</event>
<event>
 6    1  0.9364335E-007  0.2660541E+04  0.7818608E-02  0.8347923E-01
          2   -1    0    0  501    0  0.00000000000E+00  0.00000000000E+00  0.13322217333E+04  0.13322217333E+04  0.00000000000E+00 0. -1.
         -2   -1    0    0    0  501 -0.00000000000E+00 -0.00000000000E+00 -0.13283219416E+04  0.13283219416E+04  0.00000000000E+00 0.  1.
         23    2    1    2    0    0  0.13276995847E+04 -0.47904192128E+02 -0.22149225831E+02  0.13317248197E+04  0.88991057686E+02 0.  0.
         11    1    3    3    0    0  0.74431498576E+03 -0.65407882730E+02 -0.34012909201E+02  0.74795712922E+03  0.00000000000E+00 0. -1.
        -11    1    3    3    0    0  0.58338459890E+03  0.17503690601E+02  0.11863683370E+02  0.58376769044E+03  0.00000000000E+00 0.  1.
         22    1    1    2    0    0 -0.13276995847E+04  0.47904192128E+02  0.26049017439E+02  0.13288188552E+04  0.00000000000E+00 0.  1.
<mgrwt>
<rscale>  0 0.26605408E+04</rscale>
<asrwt>0</asrwt>
<pdfrwt beam="1">  1        2 0.20495719E+00 0.26605408E+04</pdfrwt>
<pdfrwt beam="2">  1       -2 0.20435722E+00 0.26605408E+04</pdfrwt>
<totfact> 0.17357682E+00</totfact>
</mgrwt>
</event>
<event>
 6    1  0.9364335E-007  0.3302100E+04  0.7818608E-02  0.8162361E-01
         -2   -1    0    0    0  501 -0.00000000000E+00  0.00000000000E+00  0.11851919060E+04  0.11851919060E+04  0.00000000000E+00 0.  1.
          2   -1    0    0  501    0  0.00000000000E+00 -0.00000000000E+00 -0.23000204987E+04  0.23000204987E+04  0.00000000000E+00 0. -1.
         23    2    1    2    0    0 -0.12928300172E+04 -0.97756754847E+03 -0.23307290636E+03  0.16400726117E+04  0.92018622033E+02 0.  0.
         11    1    3    3    0    0 -0.47758820232E+03 -0.33897649635E+03 -0.43345441356E+02  0.58726006450E+03  0.00000000000E+00 0.  1.
        -11    1    3    3    0    0 -0.81524181485E+03 -0.63859105212E+03 -0.18972746500E+03  0.10528125472E+04  0.00000000000E+00 0. -1.
         22    1    1    2    0    0  0.12928300172E+04  0.97756754847E+03 -0.88175568640E+03  0.18451397930E+04  0.00000000000E+00 0. -1.
<mgrwt>
<rscale>  0 0.33020997E+04</rscale>
<asrwt>0</asrwt>
<pdfrwt beam="1">  1        2 0.35384930E+00 0.33020997E+04</pdfrwt>
<pdfrwt beam="2">  1       -2 0.18233722E+00 0.33020997E+04</pdfrwt>
<totfact> 0.66144916E-01</totfact>
</mgrwt>
</event>
<event>
 6    1  0.9364335E-007  0.4186507E+04  0.7818608E-02  0.7967944E-01
         -2   -1    0    0    0  501 -0.00000000000E+00  0.00000000000E+00  0.16884670837E+04  0.16884670837E+04  0.00000000000E+00 0.  1.
          2   -1    0    0  501    0  0.00000000000E+00 -0.00000000000E+00 -0.25950820510E+04  0.25950820510E+04  0.00000000000E+00 0. -1.
         23    2    1    2    0    0  0.40627971845E+03 -0.14201184690E+04 -0.19696622637E+04  0.24636949566E+04  0.91780883153E+02 0.  0.
         13    1    3    3    0    0  0.26830195694E+03 -0.85060402525E+03 -0.11249525407E+04  0.14356292581E+04  0.00000000000E+00 0.  1.
        -13    1    3    3    0    0  0.13797776151E+03 -0.56951444370E+03 -0.84470972298E+03  0.10280656985E+04  0.00000000000E+00 0. -1.
         22    1    1    2    0    0 -0.40627971845E+03  0.14201184690E+04  0.10630472964E+04  0.18198541782E+04  0.00000000000E+00 0.  1.
<mgrwt>
<rscale>  0 0.41865072E+04</rscale>
<asrwt>0</asrwt>
<pdfrwt beam="1">  1        2 0.39924339E+00 0.41865072E+04</pdfrwt>
<pdfrwt beam="2">  1       -2 0.25976417E+00 0.41865072E+04</pdfrwt>
<totfact> 0.13326312E-01</totfact>
</mgrwt>
</event>
<event>
 6    1  0.9364335E-007  0.2538674E+04  0.7818608E-02  0.8389336E-01
          2   -1    0    0  501    0  0.00000000000E+00  0.00000000000E+00  0.21624933666E+04  0.21624933666E+04  0.00000000000E+00 0. -1.
         -2   -1    0    0    0  501 -0.00000000000E+00 -0.00000000000E+00 -0.74507372191E+03  0.74507372191E+03  0.00000000000E+00 0.  1.
         23    2    1    2    0    0  0.15570952733E+03  0.85667231663E+03 -0.34561161744E+03  0.94124764695E+03  0.91470365698E+02 0.  0.
         13    1    3    3    0    0  0.13793972811E+03  0.64582127697E+03 -0.29719576471E+03  0.72418078746E+03  0.00000000000E+00 0. -1.
        -13    1    3    3    0    0  0.17769799219E+02  0.21085103966E+03 -0.48415852734E+02  0.21706685949E+03  0.00000000000E+00 0.  1.
         22    1    1    2    0    0 -0.15570952733E+03 -0.85667231663E+03  0.17630312621E+04  0.19663194415E+04  0.00000000000E+00 0. -1.
<mgrwt>
<rscale>  0 0.25386744E+04</rscale>
<asrwt>0</asrwt>
<pdfrwt beam="1">  1        2 0.33269128E+00 0.25386744E+04</pdfrwt>
<pdfrwt beam="2">  1       -2 0.11462673E+00 0.25386744E+04</pdfrwt>
<totfact> 0.28640787E+00</totfact>
</mgrwt>
</event>
<event>
 6    1  0.9364335E-007  0.3016954E+04  0.7818608E-02  0.8238906E-01
          2   -1    0    0  501    0  0.00000000000E+00  0.00000000000E+00  0.16466674456E+04  0.16466674456E+04  0.00000000000E+00 0. -1.
         -2   -1    0    0    0  501 -0.00000000000E+00 -0.00000000000E+00 -0.13818836868E+04  0.13818836868E+04  0.00000000000E+00 0.  1.
         23    2    1    2    0    0  0.11005953819E+04 -0.11008861145E+03 -0.89500115473E+03  0.14258874925E+04  0.93265090886E+02 0.  0.
         11    1    3    3    0    0  0.16186842321E+03  0.10151044412E+02 -0.15735772529E+03  0.22597761801E+03  0.00000000000E+00 0.  1.
        -11    1    3    3    0    0  0.93872695872E+03 -0.12023965586E+03 -0.73764342944E+03  0.11999098745E+04  0.00000000000E+00 0. -1.
         22    1    1    2    0    0 -0.11005953819E+04  0.11008861145E+03  0.11597849135E+04  0.16026636399E+04  0.00000000000E+00 0. -1.
<mgrwt>
<rscale>  0 0.30169540E+04</rscale>
<asrwt>0</asrwt>
<pdfrwt beam="1">  1        2 0.25333345E+00 0.30169540E+04</pdfrwt>
<pdfrwt beam="2">  1       -2 0.21259749E+00 0.30169540E+04</pdfrwt>
<totfact> 0.98926251E-01</totfact>
</mgrwt>
</event>
<event>
 6    1  0.9364335E-007  0.3687561E+04  0.7818608E-02  0.8070724E-01
          2   -1    0    0  501    0  0.00000000000E+00  0.00000000000E+00  0.27978142015E+04  0.27978142015E+04  0.00000000000E+00 0. -1.
         -2   -1    0    0    0  501 -0.00000000000E+00 -0.00000000000E+00 -0.12150648831E+04  0.12150648831E+04  0.00000000000E+00 0.  1.
         23    2    1    2    0    0 -0.69023867223E+03 -0.12377391699E+04  0.20731271228E+04  0.25132464402E+04  0.10061771480E+03 0.  0.
         13    1    3    3    0    0 -0.61673654058E+03 -0.10772522351E+04  0.17583615272E+04  0.21523641883E+04  0.00000000000E+00 0.  1.
        -13    1    3    3    0    0 -0.73502131651E+02 -0.16048693476E+03  0.31476559558E+03  0.36088225191E+03  0.00000000000E+00 0. -1.
         22    1    1    2    0    0  0.69023867223E+03  0.12377391699E+04 -0.49037780442E+03  0.14996326445E+04  0.00000000000E+00 0.  1.
<mgrwt>
<rscale>  0 0.36875606E+04</rscale>
<asrwt>0</asrwt>
<pdfrwt beam="1">  1        2 0.43043295E+00 0.36875606E+04</pdfrwt>
<pdfrwt beam="2">  1       -2 0.18693306E+00 0.36875606E+04</pdfrwt>
<totfact> 0.30501194E-01</totfact>
</mgrwt>
</event>
<event>
 6    1  0.9364335E-007  0.4342634E+04  0.7818608E-02  0.7938781E-01
          1   -1    0    0  501    0  0.00000000000E+00  0.00000000000E+00  0.51276426040E+04  0.51276426040E+04  0.00000000000E+00 0. -1.
         -1   -1    0    0    0  501 -0.00000000000E+00 -0.00000000000E+00 -0.91945143934E+03  0.91945143934E+03  0.00000000000E+00 0.  1.
         23    2    1    2    0    0  0.18995751552E+04 -0.10490063805E+04  0.20484027313E+04  0.29854790719E+04  0.91276407479E+02 0.  0.
         11    1    3    3    0    0  0.87891927987E+03 -0.47423971649E+03  0.10039318269E+04  0.14160796313E+04  0.00000000000E+00 0. -1.
        -11    1    3    3    0    0  0.10206558753E+04 -0.57476666402E+03  0.10444709044E+04  0.15693994406E+04  0.00000000000E+00 0.  1.
         22    1    1    2    0    0 -0.18995751552E+04  0.10490063805E+04  0.21597884334E+04  0.30616149715E+04  0.00000000000E+00 0.  1.
<mgrwt>
<rscale>  0 0.43426344E+04</rscale>
<asrwt>0</asrwt>
<pdfrwt beam="1">  1        1 0.78886807E+00 0.43426344E+04</pdfrwt>
<pdfrwt beam="2">  1       -1 0.14145407E+00 0.43426344E+04</pdfrwt>
<totfact> 0.17920332E-03</totfact>
</mgrwt>
</event>
<event>
 6    1  0.9364335E-007  0.1444946E+04  0.7818608E-02  0.8921912E-01
         -1   -1    0    0    0  501 -0.00000000000E+00  0.00000000000E+00  0.35846444094E+03  0.35846444094E+03  0.00000000000E+00 0.  1.
          1   -1    0    0  501    0  0.00000000000E+00 -0.00000000000E+00 -0.14561200369E+04  0.14561200369E+04  0.00000000000E+00 0. -1.
         23    2    1    2    0    0  0.20380412664E+03 -0.27289809924E+03 -0.13469172095E+04  0.13925171294E+04  0.94384806137E+02 0.  0.
         11    1    3    3    0    0  0.18679593276E+03 -0.18196024367E+03 -0.97607706854E+03  0.10103111870E+04  0.00000000000E+00 0. -1.
        -11    1    3    3    0    0  0.17008193881E+02 -0.90937855568E+02 -0.37084014099E+03  0.38220594240E+03  0.00000000000E+00 0.  1.
         22    1    1    2    0    0 -0.20380412664E+03  0.27289809924E+03  0.24926161361E+03  0.42206734845E+03  0.00000000000E+00 0.  1.
<mgrwt>
<rscale>  0 0.14449460E+04</rscale>
<asrwt>0</asrwt>
<pdfrwt beam="1">  1        1 0.22401847E+00 0.14449460E+04</pdfrwt>
<pdfrwt beam="2">  1       -1 0.55148375E-01 0.14449460E+04</pdfrwt>
<totfact> 0.22661843E+01</totfact>
</mgrwt>
</event>
<event>
 6    1  0.9364335E-007  0.1932349E+04  0.7818608E-02  0.8638920E-01
          1   -1    0    0  501    0  0.00000000000E+00  0.00000000000E+00  0.15443453934E+04  0.15443453934E+04  0.00000000000E+00 0. -1.
         -1   -1    0    0    0  501 -0.00000000000E+00 -0.00000000000E+00 -0.60445903352E+03  0.60445903352E+03  0.00000000000E+00 0.  1.
         23    2    1    2    0    0 -0.29639013439E+03  0.78327763812E+03 -0.60271385050E+02  0.84431736879E+03  0.88702926900E+02 0.  0.
         11    1    3    3    0    0 -0.84543226370E+02  0.21608695417E+03 -0.56616509467E+02  0.23884421289E+03  0.00000000000E+00 0.  1.
        -11    1    3    3    0    0 -0.21184690802E+03  0.56719068395E+03 -0.36548755831E+01  0.60547315589E+03  0.00000000000E+00 0. -1.
         22    1    1    2    0    0  0.29639013439E+03 -0.78327763812E+03  0.10001577450E+04  0.13044870582E+04  0.00000000000E+00 0. -1.
<mgrwt>
<rscale>  0 0.19323494E+04</rscale>
<asrwt>0</asrwt>
<pdfrwt beam="1">  1        1 0.23759160E+00 0.19323494E+04</pdfrwt>
<pdfrwt beam="2">  1       -1 0.92993698E-01 0.19323494E+04</pdfrwt>
<totfact> 0.63875466E+00</totfact>
</mgrwt>
</event>
<event>
 6    1  0.9364335E-007  0.2427539E+04  0.7818608E-02  0.8429265E-01
          1   -1    0    0  501    0  0.00000000000E+00  0.00000000000E+00  0.12099405883E+04  0.12099405883E+04  0.00000000000E+00 0. -1.
         -1   -1    0    0    0  501 -0.00000000000E+00 -0.00000000000E+00 -0.12176105943E+04  0.12176105943E+04  0.00000000000E+00 0.  1.
         23    2    1    2    0    0  0.80849510491E+03 -0.36694372115E+03 -0.82948166693E+03  0.12177220892E+04  0.80592937050E+02 0.  0.
         13    1    3    3    0    0  0.56190177808E+03 -0.23526315948E+03 -0.52275991231E+03  0.80272055433E+03  0.00000000000E+00 0. -1.
        -13    1    3    3    0    0  0.24659332683E+03 -0.13168056166E+03 -0.30672175462E+03  0.41500153483E+03  0.00000000000E+00 0.  1.
         22    1    1    2    0    0 -0.80849510491E+03  0.36694372115E+03  0.82181166091E+03  0.12098290934E+04  0.00000000000E+00 0. -1.
<mgrwt>
<rscale>  0 0.24275391E+04</rscale>
<asrwt>0</asrwt>
<pdfrwt beam="1">  1        1 0.18614471E+00 0.24275391E+04</pdfrwt>
<pdfrwt beam="2">  1       -1 0.18732471E+00 0.24275391E+04</pdfrwt>
<totfact> 0.17336761E+00</totfact>
</mgrwt>
</event>
<event>
 6    1  0.9364335E-007  0.2917317E+04  0.7818608E-02  0.8267744E-01
          2   -1    0    0  501    0  0.00000000000E+00  0.00000000000E+00  0.92500278036E+03  0.92500278036E+03  0.00000000000E+00 0. -1.
         -2   -1    0    0    0  501 -0.00000000000E+00 -0.00000000000E+00 -0.23001928981E+04  0.23001928981E+04  0.00000000000E+00 0.  1.
         23    2    1    2    0    0  0.11433177616E+04  0.55512321370E+03  0.99757032698E+02  0.12781963505E+04  0.92180032886E+02 0.  0.
         13    1    3    3    0    0  0.76014660849E+03  0.40122838787E+03  0.35200132783E+02  0.86025934170E+03  0.00000000000E+00 0. -1.
        -13    1    3    3    0    0  0.38317115313E+03  0.15389482583E+03  0.64556899915E+02  0.41793700882E+03  0.00000000000E+00 0.  1.
         22    1    1    2    0    0 -0.11433177616E+04 -0.55512321370E+03 -0.14749471504E+04  0.19469993279E+04  0.00000000000E+00 0.  1.
<mgrwt>
<rscale>  0 0.29173171E+04</rscale>
<asrwt>0</asrwt>
<pdfrwt beam="1">  1        2 0.14230812E+00 0.29173171E+04</pdfrwt>
<pdfrwt beam="2">  1       -2 0.35387583E+00 0.29173171E+04</pdfrwt>
<totfact> 0.35741999E-01</totfact>
</mgrwt>
</event>
<event>
 6    1  0.9364335E-007  0.3467841E+04  0.7818608E-02  0.8121454E-01
          1   -1    0    0  501    0  0.00000000000E+00  0.00000000000E+00  0.21641250715E+04  0.21641250715E+04  0.00000000000E+00 0. -1.
         -1   -1    0    0    0  501 -0.00000000000E+00 -0.00000000000E+00 -0.13892359289E+04  0.13892359289E+04  0.00000000000E+00 0.  1.
         23    2    1    2    0    0  0.97488889096E+03  0.13428992886E+04  0.89866280807E+03  0.18892976696E+04  0.89799736797E+02 0.  0.
         11    1    3    3    0    0  0.43603704164E+03  0.64109970737E+03  0.37658993222E+03  0.86194960034E+03  0.00000000000E+00 0.  1.
        -11    1    3    3    0    0  0.53885184931E+03  0.70179958121E+03  0.52207287585E+03  0.10273480692E+04  0.00000000000E+00 0. -1.
         22    1    1    2    0    0 -0.97488889096E+03 -0.13428992886E+04 -0.12377366549E+03  0.16640633309E+04  0.00000000000E+00 0.  1.
<mgrwt>
<rscale>  0 0.34678410E+04</rscale>
<asrwt>0</asrwt>
<pdfrwt beam="1">  1        1 0.33294232E+00 0.34678410E+04</pdfrwt>
<pdfrwt beam="2">  1       -1 0.21372860E+00 0.34678410E+04</pdfrwt>
<totfact> 0.22868732E-01</totfact>
</mgrwt>
</event>
<event>
 6    1  0.9364335E-007  0.3083094E+04  0.7818608E-02  0.8220393E-01
          2   -1    0    0  501    0  0.00000000000E+00  0.00000000000E+00  0.15841809643E+04  0.15841809643E+04  0.00000000000E+00 0. -1.
         -2   -1    0    0    0  501 -0.00000000000E+00 -0.00000000000E+00 -0.15000608404E+04  0.15000608404E+04  0.00000000000E+00 0.  1.
         23    2    1    2    0    0  0.12963207316E+04  0.42989444988E+03 -0.67021370868E+03  0.15240250863E+04  0.90605581390E+02 0.  0.
         13    1    3    3    0    0  0.85341418790E+03  0.25242191542E+03 -0.40045881405E+03  0.97590976081E+03  0.00000000000E+00 0.  1.
        -13    1    3    3    0    0  0.44290654367E+03  0.17747253446E+03 -0.26975489463E+03  0.54811532553E+03  0.00000000000E+00 0. -1.
         22    1    1    2    0    0 -0.12963207316E+04 -0.42989444988E+03  0.75433383259E+03  0.15602167183E+04  0.00000000000E+00 0. -1.
<mgrwt>
<rscale>  0 0.30830944E+04</rscale>
<asrwt>0</asrwt>
<pdfrwt beam="1">  1        2 0.24372015E+00 0.30830944E+04</pdfrwt>
<pdfrwt beam="2">  1       -2 0.23077859E+00 0.30830944E+04</pdfrwt>
<totfact> 0.81817363E-01</totfact>
</mgrwt>
</event>
<event>
 6    1  0.9364335E-007  0.5952079E+04  0.7818608E-02  0.7696372E-01
         -2   -1    0    0    0  501 -0.00000000000E+00  0.00000000000E+00  0.20622089052E+04  0.20622089052E+04  0.00000000000E+00 0.  1.
          2   -1    0    0  501    0  0.00000000000E+00 -0.00000000000E+00 -0.42948178935E+04  0.42948178935E+04  0.00000000000E+00 0. -1.
         23    2    1    2    0    0 -0.51864891546E+03 -0.11434906724E+02 -0.42456764776E+04  0.42781886205E+04  0.89452024768E+02 0.  0.
         13    1    3    3    0    0 -0.15434665949E+03 -0.33388787533E+02 -0.15215875999E+04  0.15297602841E+04  0.00000000000E+00 0. -1.
        -13    1    3    3    0    0 -0.36430225597E+03  0.21953880809E+02 -0.27240888777E+04  0.27484283364E+04  0.00000000000E+00 0.  1.
         22    1    1    2    0    0  0.51864891546E+03  0.11434906724E+02  0.20130674893E+04  0.20788381782E+04  0.00000000000E+00 0.  1.
<mgrwt>
<rscale>  0 0.59520792E+04</rscale>
<asrwt>0</asrwt>
<pdfrwt beam="1">  1        2 0.66074120E+00 0.59520792E+04</pdfrwt>
<pdfrwt beam="2">  1       -2 0.31726291E+00 0.59520792E+04</pdfrwt>
<totfact> 0.31966354E-03</totfact>
</mgrwt>
</event>
<event>
 6    1  0.9364335E-007  0.2679403E+04  0.7818608E-02  0.8341719E-01
         -2   -1    0    0    0  501 -0.00000000000E+00  0.00000000000E+00  0.11464239542E+04  0.11464239542E+04  0.00000000000E+00 0.  1.
          2   -1    0    0  501    0  0.00000000000E+00 -0.00000000000E+00 -0.15655640180E+04  0.15655640180E+04  0.00000000000E+00 0. -1.
         23    2    1    2    0    0  0.30894402230E+03 -0.82618728473E+03  0.80863099677E+03  0.12002162912E+04  0.92753535631E+02 0.  0.
         11    1    3    3    0    0  0.22616656703E+03 -0.62867493574E+03  0.66288654071E+03  0.94117057791E+03  0.00000000000E+00 0.  1.
        -11    1    3    3    0    0  0.82777455272E+02 -0.19751234898E+03  0.14574445607E+03  0.25904571329E+03  0.00000000000E+00 0. -1.
         22    1    1    2    0    0 -0.30894402230E+03  0.82618728473E+03 -0.12277710606E+04  0.15117716810E+04  0.00000000000E+00 0. -1.
<mgrwt>
<rscale>  0 0.26794030E+04</rscale>
<asrwt>0</asrwt>
<pdfrwt beam="1">  1        2 0.24085600E+00 0.26794030E+04</pdfrwt>
<pdfrwt beam="2">  1       -2 0.17637292E+00 0.26794030E+04</pdfrwt>
<totfact> 0.19692301E+00</totfact>
</mgrwt>
</event>
<event>
 6    1  0.9364335E-007  0.3474845E+04  0.7818608E-02  0.8119777E-01
         -2   -1    0    0    0  501 -0.00000000000E+00  0.00000000000E+00  0.12233803903E+04  0.12233803903E+04  0.00000000000E+00 0.  1.
          2   -1    0    0  501    0  0.00000000000E+00 -0.00000000000E+00 -0.24674561208E+04  0.24674561208E+04  0.00000000000E+00 0. -1.
         23    2    1    2    0    0  0.79326633471E+03  0.27537207525E+03  0.99165261988E+03  0.13026190766E+04  0.91325147320E+02 0.  0.
         13    1    3    3    0    0  0.33368791247E+03  0.13949339708E+03  0.48773332803E+03  0.60719834488E+03  0.00000000000E+00 0.  1.
        -13    1    3    3    0    0  0.45957842224E+03  0.13587867817E+03  0.50391929186E+03  0.69542073170E+03  0.00000000000E+00 0. -1.
         22    1    1    2    0    0 -0.79326633471E+03 -0.27537207525E+03 -0.22357283504E+04  0.23882174345E+04  0.00000000000E+00 0. -1.
<mgrwt>
<rscale>  0 0.34748453E+04</rscale>
<asrwt>0</asrwt>
<pdfrwt beam="1">  1        2 0.37960863E+00 0.34748453E+04</pdfrwt>
<pdfrwt beam="2">  1       -2 0.18821237E+00 0.34748453E+04</pdfrwt>
<totfact> 0.47697761E-01</totfact>
</mgrwt>
</event>
<event>
 6    1  0.9364335E-007  0.1955614E+04  0.7818608E-02  0.8627659E-01
          2   -1    0    0  501    0  0.00000000000E+00  0.00000000000E+00  0.87528106596E+03  0.87528106596E+03  0.00000000000E+00 0. -1.
         -2   -1    0    0    0  501 -0.00000000000E+00 -0.00000000000E+00 -0.10923419173E+04  0.10923419173E+04  0.00000000000E+00 0.  1.
         23    2    1    2    0    0 -0.84786353670E+03  0.34254640454E+03  0.23334615879E+03  0.94827167436E+03  0.92510120789E+02 0.  0.
         11    1    3    3    0    0 -0.77063508305E+03  0.28070960848E+03  0.20960467861E+03  0.84652846190E+03  0.00000000000E+00 0. -1.
        -11    1    3    3    0    0 -0.77228453652E+02  0.61836796059E+02  0.23741480176E+02  0.10174321246E+03  0.00000000000E+00 0.  1.
         22    1    1    2    0    0  0.84786353670E+03 -0.34254640454E+03 -0.45040701009E+03  0.10193513089E+04  0.00000000000E+00 0.  1.
<mgrwt>
<rscale>  0 0.19556137E+04</rscale>
<asrwt>0</asrwt>
<pdfrwt beam="1">  1        2 0.13465863E+00 0.19556137E+04</pdfrwt>
<pdfrwt beam="2">  1       -2 0.16805260E+00 0.19556137E+04</pdfrwt>
<totfact> 0.62527601E+00</totfact>
</mgrwt>
</event>
<event>
 6    1  0.9364335E-007  0.3044697E+04  0.7818608E-02  0.8231081E-01
         -1   -1    0    0    0  501 -0.00000000000E+00  0.00000000000E+00  0.16083841479E+04  0.16083841479E+04  0.00000000000E+00 0.  1.
          1   -1    0    0  501    0  0.00000000000E+00 -0.00000000000E+00 -0.14409150731E+04  0.14409150731E+04  0.00000000000E+00 0. -1.
         23    2    1    2    0    0  0.12408478749E+04 -0.32470445636E+03 -0.73493308781E+03  0.14810307186E+04  0.90492615197E+02 0.  0.
         13    1    3    3    0    0  0.64718317290E+03 -0.17063728961E+03 -0.33137560989E+03  0.74684197707E+03  0.00000000000E+00 0. -1.
        -13    1    3    3    0    0  0.59366470197E+03 -0.15406716675E+03 -0.40355747792E+03  0.73418874156E+03  0.00000000000E+00 0.  1.
         22    1    1    2    0    0 -0.12408478749E+04  0.32470445636E+03  0.90240216264E+03  0.15682685024E+04  0.00000000000E+00 0.  1.
<mgrwt>
<rscale>  0 0.30446970E+04</rscale>
<asrwt>0</asrwt>
<pdfrwt beam="1">  1        1 0.22167924E+00 0.30446970E+04</pdfrwt>
<pdfrwt beam="2">  1       -1 0.24744371E+00 0.30446970E+04</pdfrwt>
<totfact> 0.44178690E-01</totfact>
</mgrwt>
</event>
<event>
 6    1  0.9364335E-007  0.4051674E+04  0.7818608E-02  0.7994203E-01
         -1   -1    0    0    0  501 -0.00000000000E+00  0.00000000000E+00  0.20493720097E+04  0.20493720097E+04  0.00000000000E+00 0.  1.
          1   -1    0    0  501    0  0.00000000000E+00 -0.00000000000E+00 -0.20025726713E+04  0.20025726713E+04  0.00000000000E+00 0. -1.
         23    2    1    2    0    0 -0.16114009698E+04 -0.71004584055E+03  0.10230122558E+04  0.20385470945E+04  0.91334549152E+02 0.  0.
         11    1    3    3    0    0 -0.40520483335E+03 -0.14846843666E+03  0.21851073104E+03  0.48371559126E+03  0.00000000000E+00 0. -1.
        -11    1    3    3    0    0 -0.12061961365E+04 -0.56157740389E+03  0.80450152471E+03  0.15548315032E+04  0.00000000000E+00 0.  1.
         22    1    1    2    0    0  0.16114009698E+04  0.71004584055E+03 -0.97621291736E+03  0.20133975865E+04  0.00000000000E+00 0. -1.
<mgrwt>
<rscale>  0 0.40516744E+04</rscale>
<asrwt>0</asrwt>
<pdfrwt beam="1">  1        1 0.30808810E+00 0.40516744E+04</pdfrwt>
<pdfrwt beam="2">  1       -1 0.31528800E+00 0.40516744E+04</pdfrwt>
<totfact> 0.60760438E-02</totfact>
</mgrwt>
</event>
<event>
 6    1  0.9364335E-007  0.8359127E+03  0.7818608E-02  0.9509442E-01
          2   -1    0    0  501    0  0.00000000000E+00  0.00000000000E+00  0.13807743327E+04  0.13807743327E+04  0.00000000000E+00 0. -1.
         -2   -1    0    0    0  501 -0.00000000000E+00 -0.00000000000E+00 -0.12651415702E+03  0.12651415702E+03  0.00000000000E+00 0.  1.
         23    2    1    2    0    0 -0.45187019562E+02  0.28067080324E+03  0.11743077215E+04  0.12119744849E+04  0.95213238413E+02 0.  0.
         13    1    3    3    0    0 -0.66822532217E+02  0.21656642470E+03  0.99082113805E+03  0.10164117250E+04  0.00000000000E+00 0.  1.
        -13    1    3    3    0    0  0.21635512655E+02  0.64104378538E+02  0.18348658346E+03  0.19556275992E+03  0.00000000000E+00 0. -1.
         22    1    1    2    0    0  0.45187019562E+02 -0.28067080324E+03  0.79952454208E+02  0.29531400485E+03  0.00000000000E+00 0.  1.
<mgrwt>
<rscale>  0 0.83591268E+03</rscale>
<asrwt>0</asrwt>
<pdfrwt beam="1">  1        2 0.21242681E+00 0.83591268E+03</pdfrwt>
<pdfrwt beam="2">  1       -2 0.19463717E-01 0.83591268E+03</pdfrwt>
<totfact> 0.33428026E+02</totfact>
</mgrwt>
</event>
<event>
 6    1  0.9364335E-007  0.1886716E+04  0.7818608E-02  0.8661497E-01
          1   -1    0    0  501    0  0.00000000000E+00  0.00000000000E+00  0.94749026456E+03  0.94749026456E+03  0.00000000000E+00 0. -1.
         -1   -1    0    0    0  501 -0.00000000000E+00 -0.00000000000E+00 -0.93924357810E+03  0.93924357810E+03  0.00000000000E+00 0.  1.
         23    2    1    2    0    0 -0.59171898189E+02  0.86879169187E+03  0.36061251020E+03  0.94733936156E+03  0.95447189908E+02 0.  0.
         13    1    3    3    0    0 -0.35952836357E+02  0.17573021205E+03  0.42135249023E+02  0.18425279667E+03  0.00000000000E+00 0. -1.
        -13    1    3    3    0    0 -0.23219061832E+02  0.69306147981E+03  0.31847726117E+03  0.76308656489E+03  0.00000000000E+00 0.  1.
         22    1    1    2    0    0  0.59171898189E+02 -0.86879169187E+03 -0.35236582374E+03  0.93939448110E+03  0.00000000000E+00 0.  1.
<mgrwt>
<rscale>  0 0.18867158E+04</rscale>
<asrwt>0</asrwt>
<pdfrwt beam="1">  1        1 0.14576773E+00 0.18867158E+04</pdfrwt>
<pdfrwt beam="2">  1       -1 0.14449901E+00 0.18867158E+04</pdfrwt>
<totfact> 0.60150807E+00</totfact>
</mgrwt>
</event>
<event>
 6    1  0.9364335E-007  0.1502223E+04  0.7818608E-02  0.8882976E-01
         -1   -1    0    0    0  501 -0.00000000000E+00  0.00000000000E+00  0.42836121751E+03  0.42836121751E+03  0.00000000000E+00 0.  1.
          1   -1    0    0  501    0  0.00000000000E+00 -0.00000000000E+00 -0.13170384669E+04  0.13170384669E+04  0.00000000000E+00 0. -1.
         23    2    1    2    0    0  0.27416271662E+03 -0.47270267381E+02  0.36100730020E+03  0.46512192281E+03  0.92803334638E+02 0.  0.
         11    1    3    3    0    0  0.14055571428E+03 -0.63133322858E+02  0.15118396487E+03  0.21586643209E+03  0.00000000000E+00 0.  1.
        -11    1    3    3    0    0  0.13360700234E+03  0.15863055477E+02  0.20982333533E+03  0.24925549072E+03  0.00000000000E+00 0. -1.
         22    1    1    2    0    0 -0.27416271662E+03  0.47270267381E+02 -0.12496845496E+04  0.12802777616E+04  0.00000000000E+00 0. -1.
<mgrwt>
<rscale>  0 0.15022226E+04</rscale>
<asrwt>0</asrwt>
<pdfrwt beam="1">  1        1 0.20262130E+00 0.15022226E+04</pdfrwt>
<pdfrwt beam="2">  1       -1 0.65901726E-01 0.15022226E+04</pdfrwt>
<totfact> 0.19852264E+01</totfact>
</mgrwt>
</event>
<event>
 6    1  0.9364335E-007  0.1969132E+04  0.7818608E-02  0.8621190E-01
          1   -1    0    0  501    0  0.00000000000E+00  0.00000000000E+00  0.27157283498E+04  0.27157283498E+04  0.00000000000E+00 0. -1.
         -1   -1    0    0    0  501 -0.00000000000E+00 -0.00000000000E+00 -0.35694677206E+03  0.35694677206E+03  0.00000000000E+00 0.  1.
         23    2    1    2    0    0 -0.52867943502E+03 -0.24875548493E+03 -0.50566190929E+02  0.59349422756E+03  0.91089089295E+02 0.  0.
         11    1    3    3    0    0 -0.20207838127E+03 -0.76817698143E+02 -0.59728763948E+02  0.22428588044E+03  0.00000000000E+00 0.  1.
        -11    1    3    3    0    0 -0.32660105375E+03 -0.17193778679E+03  0.91625730184E+01  0.36920834712E+03  0.00000000000E+00 0. -1.
         22    1    1    2    0    0  0.52867943502E+03  0.24875548493E+03  0.24093477687E+04  0.24791808943E+04  0.00000000000E+00 0. -1.
<mgrwt>
<rscale>  0 0.19691323E+04</rscale>
<asrwt>0</asrwt>
<pdfrwt beam="1">  1        1 0.41780435E+00 0.19691323E+04</pdfrwt>
<pdfrwt beam="2">  1       -1 0.54914890E-01 0.19691323E+04</pdfrwt>
<totfact> 0.29848441E+00</totfact>
</mgrwt>
</event>
<event>
 6    1  0.1005687E-006  0.3917160E+04  0.7818608E-02  0.8021470E-01
          2   -1    0    0  501    0  0.00000000000E+00  0.00000000000E+00  0.24928165944E+04  0.24928165944E+04  0.00000000000E+00 0. -1.
         -2   -1    0    0    0  501 -0.00000000000E+00 -0.00000000000E+00 -0.15388356749E+04  0.15388356749E+04  0.00000000000E+00 0.  1.
         23    2    1    2    0    0 -0.15243694349E+04 -0.12278591497E+04  0.45212638716E+03  0.20109597551E+04  0.90557169952E+02 0.  0.
         13    1    3    3    0    0 -0.50937719235E+03 -0.46359294471E+03  0.17135960811E+03  0.70975182829E+03  0.00000000000E+00 0.  1.
        -13    1    3    3    0    0 -0.10149922425E+04 -0.76426620501E+03  0.28076677905E+03  0.13012079268E+04  0.00000000000E+00 0. -1.
         22    1    1    2    0    0  0.15243694349E+04  0.12278591497E+04  0.50185453227E+03  0.20206925142E+04  0.00000000000E+00 0.  1.
<mgrwt>
<rscale>  0 0.39171597E+04</rscale>
<asrwt>0</asrwt>
<pdfrwt beam="1">  1        2 0.38351024E+00 0.39171597E+04</pdfrwt>
<pdfrwt beam="2">  1       -2 0.23674395E+00 0.39171597E+04</pdfrwt>
<totfact> 0.21660892E-01</totfact>
</mgrwt>
</event>
<event>
 6    1  0.1077888E-006  0.3392302E+04  0.7818608E-02  0.8139798E-01
         -2   -1    0    0    0  501 -0.00000000000E+00  0.00000000000E+00  0.14282777292E+04  0.14282777292E+04  0.00000000000E+00 0.  1.
          2   -1    0    0  501    0  0.00000000000E+00 -0.00000000000E+00 -0.20142643287E+04  0.20142643287E+04  0.00000000000E+00 0. -1.
         23    2    1    2    0    0 -0.45979522876E+03  0.35123731293E+03  0.13234941555E+04  0.14473237599E+04  0.91268745915E+02 0.  0.
         11    1    3    3    0    0 -0.12515587868E+03  0.14922548154E+03  0.45323902329E+03  0.49331313639E+03  0.00000000000E+00 0. -1.
        -11    1    3    3    0    0 -0.33463935008E+03  0.20201183139E+03  0.87025513225E+03  0.95401062355E+03  0.00000000000E+00 0.  1.
         22    1    1    2    0    0  0.45979522876E+03 -0.35123731293E+03 -0.19094807550E+04  0.19952182979E+04  0.00000000000E+00 0. -1.
<mgrwt>
<rscale>  0 0.33923024E+04</rscale>
<asrwt>0</asrwt>
<pdfrwt beam="1">  1        2 0.30988682E+00 0.33923024E+04</pdfrwt>
<pdfrwt beam="2">  1       -2 0.21973504E+00 0.33923024E+04</pdfrwt>
<totfact> 0.53959335E-01</totfact>
</mgrwt>
</event>
<event>
 6    1  0.9364335E-007  0.5803627E+04  0.7818608E-02  0.7715238E-01
          2   -1    0    0  501    0  0.00000000000E+00  0.00000000000E+00  0.48465097794E+04  0.48465097794E+04  0.00000000000E+00 0. -1.
         -2   -1    0    0    0  501 -0.00000000000E+00 -0.00000000000E+00 -0.17374402792E+04  0.17374402792E+04  0.00000000000E+00 0.  1.
         23    2    1    2    0    0  0.10668374973E+03  0.11198424799E+04  0.45885322946E+04  0.47253918103E+04  0.96283645658E+02 0.  0.
         11    1    3    3    0    0  0.11765439336E+03  0.96346799480E+03  0.38574205652E+04  0.39776634536E+04  0.00000000000E+00 0.  1.
        -11    1    3    3    0    0 -0.10970643628E+02  0.15637448512E+03  0.73111172933E+03  0.74772835668E+03  0.00000000000E+00 0. -1.
         22    1    1    2    0    0 -0.10668374973E+03 -0.11198424799E+04 -0.14794627944E+04  0.18585582483E+04  0.00000000000E+00 0.  1.
<mgrwt>
<rscale>  0 0.58036269E+04</rscale>
<asrwt>0</asrwt>
<pdfrwt beam="1">  1        2 0.74561688E+00 0.58036269E+04</pdfrwt>
<pdfrwt beam="2">  1       -2 0.26729851E+00 0.58036269E+04</pdfrwt>
<totfact> 0.17801509E-03</totfact>
</mgrwt>
</event>
<event>
 6    1  0.9392378E-007  0.2403198E+04  0.7818608E-02  0.8438307E-01
          1   -1    0    0  501    0  0.00000000000E+00  0.00000000000E+00  0.17844067956E+04  0.17844067956E+04  0.00000000000E+00 0. -1.
         -1   -1    0    0    0  501 -0.00000000000E+00 -0.00000000000E+00 -0.80914261235E+03  0.80914261235E+03  0.00000000000E+00 0.  1.
         23    2    1    2    0    0  0.13448353887E+03 -0.70307714032E+03  0.15275263543E+04  0.16894494173E+04  0.92191557474E+02 0.  0.
         13    1    3    3    0    0  0.87624493362E+02 -0.25761232028E+03  0.52184699339E+03  0.58852905103E+03  0.00000000000E+00 0.  1.
        -13    1    3    3    0    0  0.46859045510E+02 -0.44546482004E+03  0.10056793609E+04  0.11009203663E+04  0.00000000000E+00 0. -1.
         22    1    1    2    0    0 -0.13448353887E+03  0.70307714032E+03 -0.55226217103E+03  0.90409999061E+03  0.00000000000E+00 0.  1.
<mgrwt>
<rscale>  0 0.24031975E+04</rscale>
<asrwt>0</asrwt>
<pdfrwt beam="1">  1        1 0.27452412E+00 0.24031975E+04</pdfrwt>
<pdfrwt beam="2">  1       -1 0.12448348E+00 0.24031975E+04</pdfrwt>
<totfact> 0.21145463E+00</totfact>
</mgrwt>
</event>
<event>
 6    1  0.9364335E-007  0.2142811E+04  0.7818608E-02  0.8542616E-01
          1   -1    0    0  501    0  0.00000000000E+00  0.00000000000E+00  0.12675171697E+04  0.12675171697E+04  0.00000000000E+00 0. -1.
         -1   -1    0    0    0  501 -0.00000000000E+00 -0.00000000000E+00 -0.90563668200E+03  0.90563668200E+03  0.00000000000E+00 0.  1.
         23    2    1    2    0    0  0.47764044980E+03  0.18816142300E+03  0.11326567049E+04  0.12470647105E+04  0.93349132544E+02 0.  0.
         11    1    3    3    0    0  0.42986072484E+03  0.15200634125E+03  0.93029406926E+03  0.10360179660E+04  0.00000000000E+00 0.  1.
        -11    1    3    3    0    0  0.47779724961E+02  0.36155081751E+02  0.20236263566E+03  0.21104674450E+03  0.00000000000E+00 0. -1.
         22    1    1    2    0    0 -0.47764044980E+03 -0.18816142300E+03 -0.77077621724E+03  0.92608914120E+03  0.00000000000E+00 0.  1.
<mgrwt>
<rscale>  0 0.21428113E+04</rscale>
<asrwt>0</asrwt>
<pdfrwt beam="1">  1        1 0.19500264E+00 0.21428113E+04</pdfrwt>
<pdfrwt beam="2">  1       -1 0.13932872E+00 0.21428113E+04</pdfrwt>
<totfact> 0.37124863E+00</totfact>
</mgrwt>
</event>
<event>
 6    1  0.1130735E-006  0.2867449E+04  0.7818608E-02  0.8282629E-01
          2   -1    0    0  501    0  0.00000000000E+00  0.00000000000E+00  0.96990851838E+03  0.96990851838E+03  0.00000000000E+00 0. -1.
         -2   -1    0    0    0  501 -0.00000000000E+00 -0.00000000000E+00 -0.21193405636E+04  0.21193405636E+04  0.00000000000E+00 0.  1.
         23    2    1    2    0    0  0.98200299126E+03 -0.14310993401E+03  0.53788599791E+03  0.11317372668E+04  0.81838659276E+02 0.  0.
         13    1    3    3    0    0  0.53361619525E+03 -0.89299566040E+02  0.24855662283E+03  0.59539990853E+03  0.00000000000E+00 0. -1.
        -13    1    3    3    0    0  0.44838679601E+03 -0.53810367975E+02  0.28932937509E+03  0.53633735822E+03  0.00000000000E+00 0.  1.
         22    1    1    2    0    0 -0.98200299126E+03  0.14310993401E+03 -0.16873180431E+04  0.19575118152E+04  0.00000000000E+00 0.  1.
<mgrwt>
<rscale>  0 0.28674494E+04</rscale>
<asrwt>0</asrwt>
<pdfrwt beam="1">  1        2 0.14921670E+00 0.28674494E+04</pdfrwt>
<pdfrwt beam="2">  1       -2 0.32605239E+00 0.28674494E+04</pdfrwt>
<totfact> 0.50072396E-01</totfact>
</mgrwt>
</event>
<event>
 6    1  0.9364335E-007  0.1506543E+04  0.7818608E-02  0.8880114E-01
         -2   -1    0    0    0  501 -0.00000000000E+00  0.00000000000E+00  0.33584938211E+03  0.33584938211E+03  0.00000000000E+00 0.  1.
          2   -1    0    0  501    0  0.00000000000E+00 -0.00000000000E+00 -0.16895011940E+04  0.16895011940E+04  0.00000000000E+00 0. -1.
         23    2    1    2    0    0  0.25964268049E+03 -0.54419265537E+03 -0.12802909172E+04  0.14179447904E+04  0.88671462605E+02 0.  0.
         11    1    3    3    0    0  0.18232946583E+03 -0.28686550501E+03 -0.67770565059E+03  0.75816937482E+03  0.00000000000E+00 0.  1.
        -11    1    3    3    0    0  0.77313214653E+02 -0.25732715036E+03 -0.60258526656E+03  0.65977541554E+03  0.00000000000E+00 0. -1.
         22    1    1    2    0    0 -0.25964268049E+03  0.54419265537E+03 -0.73360894748E+02  0.60740578575E+03  0.00000000000E+00 0.  1.
<mgrwt>
<rscale>  0 0.15065430E+04</rscale>
<asrwt>0</asrwt>
<pdfrwt beam="1">  1        2 0.25992326E+00 0.15065430E+04</pdfrwt>
<pdfrwt beam="2">  1       -2 0.51669136E-01 0.15065430E+04</pdfrwt>
<totfact> 0.33956357E+01</totfact>
</mgrwt>
</event>
<event>
 6    1  0.1146850E-006  0.3137526E+04  0.7818608E-02  0.8205514E-01
         -1   -1    0    0    0  501 -0.00000000000E+00  0.00000000000E+00  0.12505362995E+04  0.12505362995E+04  0.00000000000E+00 0.  1.
          1   -1    0    0  501    0  0.00000000000E+00 -0.00000000000E+00 -0.19679696916E+04  0.19679696916E+04  0.00000000000E+00 0. -1.
         23    2    1    2    0    0 -0.79803453329E+03 -0.10748677418E+04 -0.11953324764E+04  0.17970323496E+04  0.91135930351E+02 0.  0.
         13    1    3    3    0    0 -0.11639192709E+03 -0.15260713182E+03 -0.21606564059E+03  0.28899892460E+03  0.00000000000E+00 0. -1.
        -13    1    3    3    0    0 -0.68164260620E+03 -0.92226060994E+03 -0.97926683580E+03  0.15080334250E+04  0.00000000000E+00 0.  1.
         22    1    1    2    0    0  0.79803453329E+03  0.10748677418E+04  0.47789908431E+03  0.14214736415E+04  0.00000000000E+00 0.  1.
<mgrwt>
<rscale>  0 0.31375261E+04</rscale>
<asrwt>0</asrwt>
<pdfrwt beam="1">  1        1 0.30276457E+00 0.31375261E+04</pdfrwt>
<pdfrwt beam="2">  1       -1 0.19239020E+00 0.31375261E+04</pdfrwt>
<totfact> 0.44802979E-01</totfact>
</mgrwt>
</event>
<event>
 6    1  0.9364335E-007  0.2141821E+04  0.7818608E-02  0.8543041E-01
          2   -1    0    0  501    0  0.00000000000E+00  0.00000000000E+00  0.55196306851E+03  0.55196306851E+03  0.00000000000E+00 0. -1.
         -2   -1    0    0    0  501 -0.00000000000E+00 -0.00000000000E+00 -0.20777648396E+04  0.20777648396E+04  0.00000000000E+00 0.  1.
         23    2    1    2    0    0 -0.10641515372E+04 -0.40830126915E+02 -0.87387525335E+03  0.13810911403E+04  0.98332019398E+02 0.  0.
         13    1    3    3    0    0 -0.96638125055E+03 -0.57410700577E+02 -0.81709348329E+03  0.12668190362E+04  0.00000000000E+00 0.  1.
        -13    1    3    3    0    0 -0.97770286662E+02  0.16580573662E+02 -0.56781770062E+02  0.11427210416E+03  0.00000000000E+00 0. -1.
         22    1    1    2    0    0  0.10641515372E+04  0.40830126915E+02 -0.65192651779E+03  0.12486367678E+04  0.00000000000E+00 0. -1.
<mgrwt>
<rscale>  0 0.21418211E+04</rscale>
<asrwt>0</asrwt>
<pdfrwt beam="1">  1        2 0.84917394E-01 0.21418211E+04</pdfrwt>
<pdfrwt beam="2">  1       -2 0.31965613E+00 0.21418211E+04</pdfrwt>
<totfact> 0.12127509E+00</totfact>
</mgrwt>
</event>
<event>
 6    1  0.9364335E-007  0.1992973E+04  0.7818608E-02  0.8609913E-01
         -3   -1    0    0    0  501 -0.00000000000E+00  0.00000000000E+00  0.18482941219E+04  0.18482941219E+04  0.00000000000E+00 0.  1.
          3   -1    0    0  501    0  0.00000000000E+00 -0.00000000000E+00 -0.53724406328E+03  0.53724406328E+03  0.00000000000E+00 0. -1.
         23    2    1    2    0    0 -0.92942013099E+03  0.10778146434E+03  0.25360290108E+03  0.97357745097E+03  0.89999986982E+02 0.  0.
         11    1    3    3    0    0 -0.33310255497E+03 -0.31202161346E+01  0.10184363708E+03  0.34833773021E+03  0.00000000000E+00 0. -1.
        -11    1    3    3    0    0 -0.59631757602E+03  0.11090168048E+03  0.15175926400E+03  0.62523972076E+03  0.00000000000E+00 0.  1.
         22    1    1    2    0    0  0.92942013099E+03 -0.10778146434E+03  0.10574471575E+04  0.14119607342E+04  0.00000000000E+00 0. -1.
<mgrwt>
<rscale>  0 0.19929727E+04</rscale>
<asrwt>0</asrwt>
<pdfrwt beam="1">  1        3 0.82652934E-01 0.19929727E+04</pdfrwt>
<pdfrwt beam="2">  1       -3 0.28435294E+00 0.19929727E+04</pdfrwt>
<totfact> 0.15303356E-01</totfact>
</mgrwt>
</event>
<event>
 6    1  0.9364335E-007  0.4218443E+04  0.7818608E-02  0.7961873E-01
         -3   -1    0    0    0  501 -0.00000000000E+00  0.00000000000E+00  0.16081139820E+04  0.16081139820E+04  0.00000000000E+00 0.  1.
          3   -1    0    0  501    0  0.00000000000E+00 -0.00000000000E+00 -0.27664806049E+04  0.27664806049E+04  0.00000000000E+00 0. -1.
         23    2    1    2    0    0 -0.46595235856E+03  0.15809379532E+04  0.78380606440E+03  0.18273389737E+04  0.91320129366E+02 0.  0.
         11    1    3    3    0    0 -0.31097059901E+03  0.10910639236E+04  0.49359371569E+03  0.12372380349E+04  0.00000000000E+00 0.  1.
        -11    1    3    3    0    0 -0.15498175955E+03  0.48987402953E+03  0.29021234871E+03  0.59010093878E+03  0.00000000000E+00 0. -1.
         22    1    1    2    0    0  0.46595235856E+03 -0.15809379532E+04 -0.19421726873E+04  0.25472556133E+04  0.00000000000E+00 0. -1.
<mgrwt>
<rscale>  0 0.42184434E+04</rscale>
<asrwt>0</asrwt>
<pdfrwt beam="1">  1        3 0.42561240E+00 0.42184434E+04</pdfrwt>
<pdfrwt beam="2">  1       -3 0.24740215E+00 0.42184434E+04</pdfrwt>
<totfact> 0.12322986E-03</totfact>
</mgrwt>
</event>
<event>
 6    1  0.9364335E-007  0.1802919E+04  0.7818608E-02  0.8704749E-01
         -1   -1    0    0    0  501 -0.00000000000E+00  0.00000000000E+00  0.30839868784E+03  0.30839868784E+03  0.00000000000E+00 0.  1.
          1   -1    0    0  501    0  0.00000000000E+00 -0.00000000000E+00 -0.26349952723E+04  0.26349952723E+04  0.00000000000E+00 0. -1.
         23    2    1    2    0    0 -0.87927563140E+03  0.18657600711E+03 -0.12075644555E+04  0.15080650264E+04  0.90066459993E+02 0.  0.
         13    1    3    3    0    0 -0.44774845186E+03  0.80289674762E+02 -0.53951943264E+03  0.70569563284E+03  0.00000000000E+00 0.  1.
        -13    1    3    3    0    0 -0.43152717954E+03  0.10628633235E+03 -0.66804502286E+03  0.80236939354E+03  0.00000000000E+00 0. -1.
         22    1    1    2    0    0  0.87927563140E+03 -0.18657600711E+03 -0.11190321290E+04  0.14353289338E+04  0.00000000000E+00 0.  1.
<mgrwt>
<rscale>  0 0.18029188E+04</rscale>
<asrwt>0</asrwt>
<pdfrwt beam="1">  1        1 0.40538391E+00 0.18029188E+04</pdfrwt>
<pdfrwt beam="2">  1       -1 0.47445950E-01 0.18029188E+04</pdfrwt>
<totfact> 0.45680527E+00</totfact>
</mgrwt>
</event>
<event>
 6    1  0.9364335E-007  0.2741811E+04  0.7818608E-02  0.8321565E-01
          2   -1    0    0  501    0  0.00000000000E+00  0.00000000000E+00  0.89533455417E+03  0.89533455417E+03  0.00000000000E+00 0. -1.
         -2   -1    0    0    0  501 -0.00000000000E+00 -0.00000000000E+00 -0.20990833397E+04  0.20990833397E+04  0.00000000000E+00 0.  1.
         23    2    1    2    0    0  0.11875692391E+04 -0.60544031559E+03 -0.26013414940E+03  0.13612347275E+04  0.91714417359E+02 0.  0.
         11    1    3    3    0    0  0.98629763533E+03 -0.46348531635E+03 -0.20637125478E+03  0.11091396480E+04  0.00000000000E+00 0. -1.
        -11    1    3    3    0    0  0.20127160377E+03 -0.14195499924E+03 -0.53762894620E+02  0.25209507954E+03  0.00000000000E+00 0.  1.
         22    1    1    2    0    0 -0.11875692391E+04  0.60544031559E+03 -0.94361463615E+03  0.16331831664E+04  0.00000000000E+00 0.  1.
<mgrwt>
<rscale>  0 0.27418110E+04</rscale>
<asrwt>0</asrwt>
<pdfrwt beam="1">  1        2 0.13774378E+00 0.27418110E+04</pdfrwt>
<pdfrwt beam="2">  1       -2 0.32293589E+00 0.27418110E+04</pdfrwt>
<totfact> 0.59302234E-01</totfact>
</mgrwt>
</event>
<event>
 6    1  0.9364335E-007  0.2391405E+04  0.7818608E-02  0.8442728E-01
          2   -1    0    0  501    0  0.00000000000E+00  0.00000000000E+00  0.16782666187E+04  0.16782666187E+04  0.00000000000E+00 0. -1.
         -2   -1    0    0    0  501 -0.00000000000E+00 -0.00000000000E+00 -0.85189378705E+03  0.85189378705E+03  0.00000000000E+00 0.  1.
         23    2    1    2    0    0  0.72249463251E+03 -0.44067642256E+03 -0.47740481336E+03  0.97580190431E+03  0.89887692348E+02 0.  0.
         11    1    3    3    0    0  0.55689319631E+03 -0.35986012342E+03 -0.33468688180E+03  0.74272784341E+03  0.00000000000E+00 0.  1.
        -11    1    3    3    0    0  0.16560143620E+03 -0.80816299133E+02 -0.14271793155E+03  0.23307406090E+03  0.00000000000E+00 0. -1.
         22    1    1    2    0    0 -0.72249463251E+03  0.44067642256E+03  0.13037776450E+04  0.15543585015E+04  0.00000000000E+00 0. -1.
<mgrwt>
<rscale>  0 0.23914054E+04</rscale>
<asrwt>0</asrwt>
<pdfrwt beam="1">  1        2 0.25819486E+00 0.23914054E+04</pdfrwt>
<pdfrwt beam="2">  1       -2 0.13106058E+00 0.23914054E+04</pdfrwt>
<totfact> 0.38611399E+00</totfact>
</mgrwt>
</event>
<event>
 6    1  0.9364335E-007  0.5990820E+03  0.7818608E-02  0.9907312E-01
          3   -1    0    0  501    0  0.00000000000E+00  0.00000000000E+00  0.28224512090E+03  0.28224512090E+03  0.00000000000E+00 0. -1.
         -3   -1    0    0    0  501 -0.00000000000E+00 -0.00000000000E+00 -0.31789674688E+03  0.31789674688E+03  0.00000000000E+00 0.  1.
         23    2    1    2    0    0 -0.10272377319E+03  0.32755520328E+02 -0.29065571574E+03  0.32328056047E+03  0.91675940109E+02 0.  0.
         11    1    3    3    0    0 -0.89587712069E+02  0.92129968564E+01 -0.28027948364E+03  0.29439331924E+03  0.00000000000E+00 0. -1.
        -11    1    3    3    0    0 -0.13136061119E+02  0.23542523471E+02 -0.10376232100E+02  0.28887241227E+02  0.00000000000E+00 0.  1.
         22    1    1    2    0    0  0.10272377319E+03 -0.32755520328E+02  0.25500408976E+03  0.27686130731E+03  0.00000000000E+00 0. -1.
<mgrwt>
<rscale>  0 0.59908198E+03</rscale>
<asrwt>0</asrwt>
<pdfrwt beam="1">  1        3 0.43422327E-01 0.59908198E+03</pdfrwt>
<pdfrwt beam="2">  1       -3 0.48907192E-01 0.59908198E+03</pdfrwt>
<totfact> 0.57549682E+01</totfact>
</mgrwt>
</event>
<event>
 6    1  0.9364335E-007  0.1985517E+04  0.7818608E-02  0.8613422E-01
          1   -1    0    0  501    0  0.00000000000E+00  0.00000000000E+00  0.97753229467E+03  0.97753229467E+03  0.00000000000E+00 0. -1.
         -1   -1    0    0    0  501 -0.00000000000E+00 -0.00000000000E+00 -0.10082221087E+04  0.10082221087E+04  0.00000000000E+00 0.  1.
         23    2    1    2    0    0  0.29323333163E+03 -0.12054156178E+03 -0.95406400240E+03  0.10094675876E+04  0.90943031074E+02 0.  0.
         11    1    3    3    0    0  0.14201293736E+03 -0.21718458644E+02 -0.33309048854E+03  0.36275148433E+03  0.00000000000E+00 0.  1.
        -11    1    3    3    0    0  0.15122039426E+03 -0.98823103133E+02 -0.62097351386E+03  0.64671610330E+03  0.00000000000E+00 0. -1.
         22    1    1    2    0    0 -0.29323333163E+03  0.12054156178E+03  0.92337418835E+03  0.97628681575E+03  0.00000000000E+00 0. -1.
<mgrwt>
<rscale>  0 0.19855172E+04</rscale>
<asrwt>0</asrwt>
<pdfrwt beam="1">  1        1 0.15038958E+00 0.19855172E+04</pdfrwt>
<pdfrwt beam="2">  1       -1 0.15511109E+00 0.19855172E+04</pdfrwt>
<totfact> 0.46623389E+00</totfact>
</mgrwt>
</event>
<event>
 6    1  0.9364335E-007  0.1620279E+04  0.7818608E-02  0.8808186E-01
          1   -1    0    0  501    0  0.00000000000E+00  0.00000000000E+00  0.92522935431E+03  0.92522935431E+03  0.00000000000E+00 0. -1.
         -1   -1    0    0    0  501 -0.00000000000E+00 -0.00000000000E+00 -0.70936606491E+03  0.70936606491E+03  0.00000000000E+00 0.  1.
         23    2    1    2    0    0  0.23161098188E+03 -0.19156382062E+03 -0.64776479667E+03  0.72015908171E+03  0.93217631688E+02 0.  0.
         13    1    3    3    0    0  0.49165122349E+02 -0.90875947766E+02 -0.17016328825E+03  0.19907584436E+03  0.00000000000E+00 0.  1.
        -13    1    3    3    0    0  0.18244585953E+03 -0.10068787285E+03 -0.47760150842E+03  0.52108323735E+03  0.00000000000E+00 0. -1.
         22    1    1    2    0    0 -0.23161098188E+03  0.19156382062E+03  0.86362808607E+03  0.91443633751E+03  0.00000000000E+00 0. -1.
<mgrwt>
<rscale>  0 0.16202794E+04</rscale>
<asrwt>0</asrwt>
<pdfrwt beam="1">  1        1 0.14234298E+00 0.16202794E+04</pdfrwt>
<pdfrwt beam="2">  1       -1 0.10913324E+00 0.16202794E+04</pdfrwt>
<totfact> 0.12930175E+01</totfact>
</mgrwt>
</event>
<event>
 6    1  0.9364335E-007  0.4255243E+04  0.7818608E-02  0.7954946E-01
          2   -1    0    0  501    0  0.00000000000E+00  0.00000000000E+00  0.22490126177E+04  0.22490126177E+04  0.00000000000E+00 0. -1.
         -2   -1    0    0    0  501 -0.00000000000E+00 -0.00000000000E+00 -0.20127829626E+04  0.20127829626E+04  0.00000000000E+00 0.  1.
         23    2    1    2    0    0  0.20524567059E+04 -0.41461192244E+03  0.49027837405E+03  0.21525250126E+04  0.92246788144E+02 0.  0.
         13    1    3    3    0    0  0.10155276374E+04 -0.17284565607E+03  0.20665494516E+03  0.10506561138E+04  0.00000000000E+00 0.  1.
        -13    1    3    3    0    0  0.10369290685E+04 -0.24176626637E+03  0.28362342889E+03  0.11018688988E+04  0.00000000000E+00 0. -1.
         22    1    1    2    0    0 -0.20524567059E+04  0.41461192244E+03 -0.25404871892E+03  0.21092705676E+04  0.00000000000E+00 0.  1.
<mgrwt>
<rscale>  0 0.42552435E+04</rscale>
<asrwt>0</asrwt>
<pdfrwt beam="1">  1        2 0.34600194E+00 0.42552435E+04</pdfrwt>
<pdfrwt beam="2">  1       -2 0.30965892E+00 0.42552435E+04</pdfrwt>
<totfact> 0.10383424E-01</totfact>
</mgrwt>
</event>
<event>
 6    1  0.9364335E-007  0.2797457E+04  0.7818608E-02  0.8304058E-01
          2   -1    0    0  501    0  0.00000000000E+00  0.00000000000E+00  0.41043596204E+04  0.41043596204E+04  0.00000000000E+00 0. -1.
         -2   -1    0    0    0  501 -0.00000000000E+00 -0.00000000000E+00 -0.47667404274E+03  0.47667404274E+03  0.00000000000E+00 0.  1.
         23    2    1    2    0    0  0.95777513781E+03 -0.94376973251E+02  0.34745096563E+04  0.36065065519E+04  0.91825538370E+02 0.  0.
         11    1    3    3    0    0  0.30871839964E+03  0.10165514922E+02  0.11640748060E+04  0.12043589755E+04  0.00000000000E+00 0. -1.
        -11    1    3    3    0    0  0.64905673818E+03 -0.10454248817E+03  0.23104348503E+04  0.24021475764E+04  0.00000000000E+00 0.  1.
         22    1    1    2    0    0 -0.95777513781E+03  0.94376973251E+02  0.15317592138E+03  0.97452711126E+03  0.00000000000E+00 0.  1.
<mgrwt>
<rscale>  0 0.27974572E+04</rscale>
<asrwt>0</asrwt>
<pdfrwt beam="1">  1        2 0.63143992E+00 0.27974572E+04</pdfrwt>
<pdfrwt beam="2">  1       -2 0.73334471E-01 0.27974572E+04</pdfrwt>
<totfact> 0.41026379E-01</totfact>
</mgrwt>
</event>
<event>
 6    1  0.9364335E-007  0.2453812E+04  0.7818608E-02  0.8419628E-01
          2   -1    0    0  501    0  0.00000000000E+00  0.00000000000E+00  0.33436199728E+04  0.33436199728E+04  0.00000000000E+00 0. -1.
         -2   -1    0    0    0  501 -0.00000000000E+00 -0.00000000000E+00 -0.45020014060E+03  0.45020014060E+03  0.00000000000E+00 0.  1.
         23    2    1    2    0    0 -0.67912028783E+03 -0.99170528371E+03  0.18204164191E+04  0.21826031635E+04  0.71811526582E+02 0.  0.
         11    1    3    3    0    0 -0.42971614348E+03 -0.68542888225E+03  0.12377778768E+04  0.14787030767E+04  0.00000000000E+00 0.  1.
        -11    1    3    3    0    0 -0.24940414435E+03 -0.30627640146E+03  0.58263854224E+03  0.70390008681E+03  0.00000000000E+00 0. -1.
         22    1    1    2    0    0  0.67912028783E+03  0.99170528371E+03  0.10730034131E+04  0.16112169499E+04  0.00000000000E+00 0.  1.
<mgrwt>
<rscale>  0 0.24538119E+04</rscale>
<asrwt>0</asrwt>
<pdfrwt beam="1">  1        2 0.51440306E+00 0.24538119E+04</pdfrwt>
<pdfrwt beam="2">  1       -2 0.69261562E-01 0.24538119E+04</pdfrwt>
<totfact> 0.17754272E+00</totfact>
</mgrwt>
</event>
<event>
 6    1  0.9364335E-007  0.1434338E+04  0.7818608E-02  0.8929331E-01
          2   -1    0    0  501    0  0.00000000000E+00  0.00000000000E+00  0.17484611931E+04  0.17484611931E+04  0.00000000000E+00 0. -1.
         -2   -1    0    0    0  501 -0.00000000000E+00 -0.00000000000E+00 -0.29416216926E+03  0.29416216926E+03  0.00000000000E+00 0.  1.
         23    2    1    2    0    0  0.34732978203E+03  0.54854457188E+03  0.11538807554E+04  0.13272281843E+04  0.92491786375E+02 0.  0.
         11    1    3    3    0    0  0.32018215223E+03  0.46184540916E+03  0.10335378235E+04  0.11764430395E+04  0.00000000000E+00 0.  1.
        -11    1    3    3    0    0  0.27147629808E+02  0.86699162718E+02  0.12034293193E+03  0.15078514478E+03  0.00000000000E+00 0. -1.
         22    1    1    2    0    0 -0.34732978203E+03 -0.54854457188E+03  0.30041826840E+03  0.71539517808E+03  0.00000000000E+00 0.  1.
<mgrwt>
<rscale>  0 0.14343377E+04</rscale>
<asrwt>0</asrwt>
<pdfrwt beam="1">  1        2 0.26899402E+00 0.14343377E+04</pdfrwt>
<pdfrwt beam="2">  1       -2 0.45255719E-01 0.14343377E+04</pdfrwt>
<totfact> 0.41431283E+01</totfact>
</mgrwt>
</event>
<event>
 6    1  0.9364335E-007  0.1259955E+04  0.7818608E-02  0.9061938E-01
         -2   -1    0    0    0  501 -0.00000000000E+00  0.00000000000E+00  0.34472624347E+03  0.34472624347E+03  0.00000000000E+00 0.  1.
          2   -1    0    0  501    0  0.00000000000E+00 -0.00000000000E+00 -0.11512657613E+04  0.11512657613E+04  0.00000000000E+00 0. -1.
         23    2    1    2    0    0  0.20045950739E+03  0.53597576638E+02  0.29675705093E+03  0.37335224377E+03  0.90941939289E+02 0.  0.
         13    1    3    3    0    0  0.12876111794E+03 -0.99876954966E+01  0.14831052775E+03  0.19666009304E+03  0.00000000000E+00 0.  1.
        -13    1    3    3    0    0  0.71698389458E+02  0.63585272134E+02  0.14844652318E+03  0.17669215072E+03  0.00000000000E+00 0. -1.
         22    1    1    2    0    0 -0.20045950739E+03 -0.53597576638E+02 -0.11032965688E+04  0.11226397610E+04  0.00000000000E+00 0. -1.
<mgrwt>
<rscale>  0 0.12599548E+04</rscale>
<asrwt>0</asrwt>
<pdfrwt beam="1">  1        2 0.17711781E+00 0.12599548E+04</pdfrwt>
<pdfrwt beam="2">  1       -2 0.53034807E-01 0.12599548E+04</pdfrwt>
<totfact> 0.66771449E+01</totfact>
</mgrwt>
</event>
<event>
 6    1  0.9364335E-007  0.2866414E+04  0.7818608E-02  0.8282941E-01
         -2   -1    0    0    0  501 -0.00000000000E+00  0.00000000000E+00  0.80595764354E+03  0.80595764354E+03  0.00000000000E+00 0.  1.
          2   -1    0    0  501    0  0.00000000000E+00 -0.00000000000E+00 -0.25486236545E+04  0.25486236545E+04  0.00000000000E+00 0. -1.
         23    2    1    2    0    0 -0.12064908846E+04 -0.51098136717E+03 -0.19637957181E+03  0.13278292253E+04  0.88562425148E+02 0.  0.
         11    1    3    3    0    0 -0.78014007736E+03 -0.28653115175E+03 -0.11039769825E+03  0.83839506976E+03  0.00000000000E+00 0. -1.
        -11    1    3    3    0    0 -0.42635080728E+03 -0.22445021542E+03 -0.85981873556E+02  0.48943415558E+03  0.00000000000E+00 0.  1.
         22    1    1    2    0    0  0.12064908846E+04  0.51098136717E+03 -0.15462864391E+04  0.20267520727E+04  0.00000000000E+00 0.  1.
<mgrwt>
<rscale>  0 0.28664143E+04</rscale>
<asrwt>0</asrwt>
<pdfrwt beam="1">  1        2 0.39209594E+00 0.28664143E+04</pdfrwt>
<pdfrwt beam="2">  1       -2 0.12399349E+00 0.28664143E+04</pdfrwt>
<totfact> 0.13808112E+00</totfact>
</mgrwt>
</event>
<event>
 6    1  0.9364335E-007  0.1606170E+04  0.7818608E-02  0.8816767E-01
          2   -1    0    0  501    0  0.00000000000E+00  0.00000000000E+00  0.25801200047E+04  0.25801200047E+04  0.00000000000E+00 0. -1.
         -2   -1    0    0    0  501 -0.00000000000E+00 -0.00000000000E+00 -0.24996723851E+03  0.24996723851E+03  0.00000000000E+00 0.  1.
         23    2    1    2    0    0  0.86276474799E+02 -0.77435488179E+03  0.14918643106E+04  0.16856237672E+04  0.92732143546E+02 0.  0.
         11    1    3    3    0    0  0.94254813761E+02 -0.75038034956E+03  0.14109256515E+04  0.16008328560E+04  0.00000000000E+00 0.  1.
        -11    1    3    3    0    0 -0.79783389615E+01 -0.23974532235E+02  0.80938659084E+02  0.84790911204E+02  0.00000000000E+00 0. -1.
         22    1    1    2    0    0 -0.86276474799E+02  0.77435488179E+03  0.83828845567E+03  0.11444634760E+04  0.00000000000E+00 0.  1.
<mgrwt>
<rscale>  0 0.16061699E+04</rscale>
<asrwt>0</asrwt>
<pdfrwt beam="1">  1        2 0.39694152E+00 0.16061699E+04</pdfrwt>
<pdfrwt beam="2">  1       -2 0.38456500E-01 0.16061699E+04</pdfrwt>
<totfact> 0.19186763E+01</totfact>
</mgrwt>
</event>
<event>
 6    1  0.9364335E-007  0.1589705E+04  0.7818608E-02  0.8826897E-01
          1   -1    0    0  501    0  0.00000000000E+00  0.00000000000E+00  0.22762019755E+04  0.22762019755E+04  0.00000000000E+00 0. -1.
         -1   -1    0    0    0  501 -0.00000000000E+00 -0.00000000000E+00 -0.27756357639E+03  0.27756357639E+03  0.00000000000E+00 0.  1.
         23    2    1    2    0    0  0.44837271381E+03 -0.38900735309E+03  0.15971197938E+03  0.62140554703E+03  0.90951230209E+02 0.  0.
         11    1    3    3    0    0  0.29681212446E+03 -0.20602156896E+03  0.11859762877E+03  0.38027321974E+03  0.00000000000E+00 0.  1.
        -11    1    3    3    0    0  0.15156058935E+03 -0.18298578413E+03  0.41114350618E+02  0.24113232729E+03  0.00000000000E+00 0. -1.
         22    1    1    2    0    0 -0.44837271381E+03  0.38900735309E+03  0.18389264197E+04  0.19323600049E+04  0.00000000000E+00 0. -1.
<mgrwt>
<rscale>  0 0.15897053E+04</rscale>
<asrwt>0</asrwt>
<pdfrwt beam="1">  1        1 0.35018491E+00 0.15897053E+04</pdfrwt>
<pdfrwt beam="2">  1       -1 0.42702090E-01 0.15897053E+04</pdfrwt>
<totfact> 0.10031835E+01</totfact>
</mgrwt>
</event>
<event>
 6    1  0.9364335E-007  0.8331491E+03  0.7818608E-02  0.9513237E-01
         -2   -1    0    0    0  501 -0.00000000000E+00  0.00000000000E+00  0.80458817989E+02  0.80458817989E+02  0.00000000000E+00 0.  1.
          2   -1    0    0  501    0  0.00000000000E+00 -0.00000000000E+00 -0.21568096333E+04  0.21568096333E+04  0.00000000000E+00 0. -1.
         23    2    1    2    0    0  0.28869705521E+03  0.17115085373E+03 -0.41364912639E+03  0.54103276285E+03  0.94721941987E+02 0.  0.
         13    1    3    3    0    0  0.24546824650E+03  0.12296234735E+03 -0.37784030181E+03  0.46705213047E+03  0.00000000000E+00 0. -1.
        -13    1    3    3    0    0  0.43228808709E+02  0.48188506374E+02 -0.35808824581E+02  0.73980632377E+02  0.00000000000E+00 0.  1.
         22    1    1    2    0    0 -0.28869705521E+03 -0.17115085373E+03 -0.16627016889E+04  0.16962356885E+04  0.00000000000E+00 0. -1.
<mgrwt>
<rscale>  0 0.83314910E+03</rscale>
<asrwt>0</asrwt>
<pdfrwt beam="1">  1        2 0.33181688E+00 0.83314910E+03</pdfrwt>
<pdfrwt beam="2">  1       -2 0.12378279E-01 0.83314910E+03</pdfrwt>
<totfact> 0.26946035E+02</totfact>
</mgrwt>
</event>
<event>
 6    1  0.9364335E-007  0.1506049E+04  0.7818608E-02  0.8880440E-01
         -4   -1    0    0    0  501 -0.00000000000E+00  0.00000000000E+00  0.34967489036E+03  0.34967489036E+03  0.00000000000E+00 0.  1.
          4   -1    0    0  501    0  0.00000000000E+00 -0.00000000000E+00 -0.16216381720E+04  0.16216381720E+04  0.00000000000E+00 0. -1.
         23    2    1    2    0    0 -0.39778682482E+03 -0.60374706073E+03 -0.37475188749E+03  0.81904002303E+03  0.87422598990E+02 0.  0.
         13    1    3    3    0    0 -0.26822380381E+03 -0.35758921837E+03 -0.19392217329E+03  0.48725749591E+03  0.00000000000E+00 0. -1.
        -13    1    3    3    0    0 -0.12956302101E+03 -0.24615784236E+03 -0.18082971420E+03  0.33178252713E+03  0.00000000000E+00 0.  1.
         22    1    1    2    0    0  0.39778682482E+03  0.60374706073E+03 -0.89721139414E+03  0.11522730393E+04  0.00000000000E+00 0. -1.
<mgrwt>
<rscale>  0 0.15060493E+04</rscale>
<asrwt>0</asrwt>
<pdfrwt beam="1">  1        4 0.24948279E+00 0.15060493E+04</pdfrwt>
<pdfrwt beam="2">  1       -4 0.53796137E-01 0.15060493E+04</pdfrwt>
<totfact> 0.40762055E-01</totfact>
</mgrwt>
</event>
<event>
 6    1  0.9364335E-007  0.2119081E+04  0.7818608E-02  0.8552884E-01
          1   -1    0    0  501    0  0.00000000000E+00  0.00000000000E+00  0.11579263863E+04  0.11579263863E+04  0.00000000000E+00 0. -1.
         -1   -1    0    0    0  501 -0.00000000000E+00 -0.00000000000E+00 -0.96951419094E+03  0.96951419094E+03  0.00000000000E+00 0.  1.
         23    2    1    2    0    0 -0.15998937254E+03 -0.22468853486E+03  0.11194441996E+04  0.11564091000E+04  0.89694778897E+02 0.  0.
         13    1    3    3    0    0 -0.12123009459E+03 -0.11944200475E+03  0.53902970804E+03  0.56525760011E+03  0.00000000000E+00 0.  1.
        -13    1    3    3    0    0 -0.38759277956E+02 -0.10524653011E+03  0.58041449160E+03  0.59115149986E+03  0.00000000000E+00 0. -1.
         22    1    1    2    0    0  0.15998937254E+03  0.22468853486E+03 -0.93103200424E+03  0.97103147732E+03  0.00000000000E+00 0.  1.
<mgrwt>
<rscale>  0 0.21190810E+04</rscale>
<asrwt>0</asrwt>
<pdfrwt beam="1">  1        1 0.17814252E+00 0.21190810E+04</pdfrwt>
<pdfrwt beam="2">  1       -1 0.14915603E+00 0.21190810E+04</pdfrwt>
<totfact> 0.37329456E+00</totfact>
</mgrwt>
</event>
<event>
 6    1  0.9364335E-007  0.1428534E+04  0.7818608E-02  0.8933420E-01
         -2   -1    0    0    0  501 -0.00000000000E+00  0.00000000000E+00  0.70805542835E+03  0.70805542835E+03  0.00000000000E+00 0.  1.
          2   -1    0    0  501    0  0.00000000000E+00 -0.00000000000E+00 -0.72053267819E+03  0.72053267819E+03  0.00000000000E+00 0. -1.
         23    2    1    2    0    0 -0.27497396291E+03  0.11149671406E+03 -0.65313416124E+03  0.72255448436E+03  0.86362913071E+02 0.  0.
         13    1    3    3    0    0 -0.32666924659E+02  0.35134590372E+02 -0.56741971940E+02  0.74304904192E+02  0.00000000000E+00 0.  1.
        -13    1    3    3    0    0 -0.24230703825E+03  0.76362123684E+02 -0.59639218930E+03  0.64824958016E+03  0.00000000000E+00 0. -1.
         22    1    1    2    0    0  0.27497396291E+03 -0.11149671406E+03  0.64065691140E+03  0.70603362218E+03  0.00000000000E+00 0.  1.
<mgrwt>
<rscale>  0 0.14285336E+04</rscale>
<asrwt>0</asrwt>
<pdfrwt beam="1">  1        2 0.11085118E+00 0.14285336E+04</pdfrwt>
<pdfrwt beam="2">  1       -2 0.10893160E+00 0.14285336E+04</pdfrwt>
<totfact> 0.25806304E+01</totfact>
</mgrwt>
</event>
<event>
 6    1  0.9364335E-007  0.1967800E+04  0.7818608E-02  0.8621825E-01
         -1   -1    0    0    0  501 -0.00000000000E+00  0.00000000000E+00  0.77356252388E+03  0.77356252388E+03  0.00000000000E+00 0.  1.
          1   -1    0    0  501    0  0.00000000000E+00 -0.00000000000E+00 -0.12514300710E+04  0.12514300710E+04  0.00000000000E+00 0. -1.
         23    2    1    2    0    0 -0.49130560842E+03 -0.57093463673E+02  0.63300769175E+03  0.80898081007E+03  0.95448147095E+02 0.  0.
         11    1    3    3    0    0 -0.36543226065E+03 -0.81928539307E+02  0.44943530713E+03  0.58501719460E+03  0.00000000000E+00 0.  1.
        -11    1    3    3    0    0 -0.12587334777E+03  0.24835075633E+02  0.18357238462E+03  0.22396361548E+03  0.00000000000E+00 0. -1.
         22    1    1    2    0    0  0.49130560842E+03  0.57093463673E+02 -0.11108752389E+04  0.12160117848E+04  0.00000000000E+00 0. -1.
<mgrwt>
<rscale>  0 0.19678002E+04</rscale>
<asrwt>0</asrwt>
<pdfrwt beam="1">  1        1 0.19252770E+00 0.19678002E+04</pdfrwt>
<pdfrwt beam="2">  1       -1 0.11900962E+00 0.19678002E+04</pdfrwt>
<totfact> 0.57618903E+00</totfact>
</mgrwt>
</event>
<event>
 6    1  0.9364335E-007  0.2874134E+04  0.7818608E-02  0.8280615E-01
          2   -1    0    0  501    0  0.00000000000E+00  0.00000000000E+00  0.15913742529E+04  0.15913742529E+04  0.00000000000E+00 0. -1.
         -2   -1    0    0    0  501 -0.00000000000E+00 -0.00000000000E+00 -0.12977223931E+04  0.12977223931E+04  0.00000000000E+00 0.  1.
         23    2    1    2    0    0 -0.68157552665E+03  0.58604936415E+02 -0.11217190203E+04  0.13170742335E+04  0.91930621237E+02 0.  0.
         11    1    3    3    0    0 -0.45055210058E+03  0.40938312052E+02 -0.82160373657E+03  0.93792635142E+03  0.00000000000E+00 0. -1.
        -11    1    3    3    0    0 -0.23102342608E+03  0.17666624362E+02 -0.30011528368E+03  0.37914788212E+03  0.00000000000E+00 0.  1.
         22    1    1    2    0    0  0.68157552665E+03 -0.58604936415E+02  0.14153708801E+04  0.15720224124E+04  0.00000000000E+00 0. -1.
<mgrwt>
<rscale>  0 0.28741343E+04</rscale>
<asrwt>0</asrwt>
<pdfrwt beam="1">  1        2 0.24482681E+00 0.28741343E+04</pdfrwt>
<pdfrwt beam="2">  1       -2 0.19964960E+00 0.28741343E+04</pdfrwt>
<totfact> 0.13042136E+00</totfact>
</mgrwt>
</event>
<event>
 6    1  0.9364335E-007  0.1237045E+04  0.7818608E-02  0.9081035E-01
          1   -1    0    0  501    0  0.00000000000E+00  0.00000000000E+00  0.76769898874E+03  0.76769898874E+03  0.00000000000E+00 0. -1.
         -1   -1    0    0    0  501 -0.00000000000E+00 -0.00000000000E+00 -0.49833343679E+03  0.49833343679E+03  0.00000000000E+00 0.  1.
         23    2    1    2    0    0  0.42054562691E+03  0.56322893423E+02  0.59109220369E+03  0.73354868768E+03  0.93127822396E+02 0.  0.
         11    1    3    3    0    0  0.30456528946E+03  0.12099216198E+02  0.36416366008E+03  0.47489112215E+03  0.00000000000E+00 0. -1.
        -11    1    3    3    0    0  0.11598033745E+03  0.44223677225E+02  0.22692854361E+03  0.25865756553E+03  0.00000000000E+00 0.  1.
         22    1    1    2    0    0 -0.42054562691E+03 -0.56322893423E+02 -0.32172665174E+03  0.53248373785E+03  0.00000000000E+00 0.  1.
<mgrwt>
<rscale>  0 0.12370450E+04</rscale>
<asrwt>0</asrwt>
<pdfrwt beam="1">  1        1 0.11810754E+00 0.12370450E+04</pdfrwt>
<pdfrwt beam="2">  1       -1 0.76666682E-01 0.12370450E+04</pdfrwt>
<totfact> 0.39805135E+01</totfact>
</mgrwt>
</event>
<event>
 6    1  0.1068107E-006  0.2091441E+04  0.7818608E-02  0.8565023E-01
         -2   -1    0    0    0  501 -0.00000000000E+00  0.00000000000E+00  0.66038892854E+03  0.66038892854E+03  0.00000000000E+00 0.  1.
          2   -1    0    0  501    0  0.00000000000E+00 -0.00000000000E+00 -0.16558894642E+04  0.16558894642E+04  0.00000000000E+00 0. -1.
         23    2    1    2    0    0 -0.14108254043E+03 -0.53018889995E+03 -0.14820860918E+04  0.15829503240E+04  0.90266228622E+02 0.  0.
         13    1    3    3    0    0  0.71431076656E+01 -0.89731410776E+02 -0.28227202643E+03  0.29627731430E+03  0.00000000000E+00 0.  1.
        -13    1    3    3    0    0 -0.14822564810E+03 -0.44045748917E+03 -0.11998140654E+04  0.12866730097E+04  0.00000000000E+00 0. -1.
         22    1    1    2    0    0  0.14108254043E+03  0.53018889995E+03  0.48658555616E+03  0.73332806868E+03  0.00000000000E+00 0.  1.
<mgrwt>
<rscale>  0 0.20914407E+04</rscale>
<asrwt>0</asrwt>
<pdfrwt beam="1">  1        2 0.25475222E+00 0.20914407E+04</pdfrwt>
<pdfrwt beam="2">  1       -2 0.10159830E+00 0.20914407E+04</pdfrwt>
<totfact> 0.76129002E+00</totfact>
</mgrwt>
</event>
<event>
 6    1  0.9364335E-007  0.7185420E+03  0.7818608E-02  0.9686038E-01
          3   -1    0    0  501    0  0.00000000000E+00  0.00000000000E+00  0.14987612606E+03  0.14987612606E+03  0.00000000000E+00 0. -1.
         -3   -1    0    0    0  501 -0.00000000000E+00 -0.00000000000E+00 -0.86121544549E+03  0.86121544549E+03  0.00000000000E+00 0.  1.
         23    2    1    2    0    0  0.11676670096E+03  0.16375146942E+03  0.46502074565E+02  0.22701722262E+03  0.94474177632E+02 0.  0.
         11    1    3    3    0    0  0.40392165088E+01 -0.11084538940E+02  0.10710084621E+02  0.15933869151E+02  0.00000000000E+00 0. -1.
        -11    1    3    3    0    0  0.11272748445E+03  0.17483600836E+03  0.35791989944E+02  0.21108335347E+03  0.00000000000E+00 0.  1.
         22    1    1    2    0    0 -0.11676670096E+03 -0.16375146942E+03 -0.75784139400E+03  0.78407434893E+03  0.00000000000E+00 0.  1.
<mgrwt>
<rscale>  0 0.71854195E+03</rscale>
<asrwt>0</asrwt>
<pdfrwt beam="1">  1        3 0.23057866E-01 0.71854195E+03</pdfrwt>
<pdfrwt beam="2">  1       -3 0.13249468E+00 0.71854195E+03</pdfrwt>
<totfact> 0.20693327E+01</totfact>
</mgrwt>
</event>
<event>
 6    1  0.9364335E-007  0.2315497E+04  0.7818608E-02  0.8471836E-01
         -2   -1    0    0    0  501 -0.00000000000E+00  0.00000000000E+00  0.10164314933E+04  0.10164314933E+04  0.00000000000E+00 0.  1.
          2   -1    0    0  501    0  0.00000000000E+00 -0.00000000000E+00 -0.13187133315E+04  0.13187133315E+04  0.00000000000E+00 0. -1.
         23    2    1    2    0    0  0.77259246533E+03  0.72054991046E+03  0.32176622579E+03  0.11081455269E+04  0.91442406423E+02 0.  0.
         11    1    3    3    0    0  0.59137669251E+03  0.53059634093E+03  0.27943859669E+03  0.84222609717E+03  0.00000000000E+00 0. -1.
        -11    1    3    3    0    0  0.18121577282E+03  0.18995356953E+03  0.42327629102E+02  0.26591942968E+03  0.00000000000E+00 0.  1.
         22    1    1    2    0    0 -0.77259246533E+03 -0.72054991046E+03 -0.62404806402E+03  0.12269992979E+04  0.00000000000E+00 0. -1.
<mgrwt>
<rscale>  0 0.23154971E+04</rscale>
<asrwt>0</asrwt>
<pdfrwt beam="1">  1        2 0.20287897E+00 0.23154971E+04</pdfrwt>
<pdfrwt beam="2">  1       -2 0.15637408E+00 0.23154971E+04</pdfrwt>
<totfact> 0.39135441E+00</totfact>
</mgrwt>
</event>
<event>
 6    1  0.9364335E-007  0.5998189E+04  0.7818608E-02  0.7690626E-01
          2   -1    0    0  501    0  0.00000000000E+00  0.00000000000E+00  0.41692906534E+04  0.41692906534E+04  0.00000000000E+00 0. -1.
         -2   -1    0    0    0  501 -0.00000000000E+00 -0.00000000000E+00 -0.21573373617E+04  0.21573373617E+04  0.00000000000E+00 0.  1.
         23    2    1    2    0    0 -0.77010412747E+03  0.70032054458E+03 -0.19596651453E+04  0.22208683726E+04  0.91976161449E+02 0.  0.
         11    1    3    3    0    0 -0.53104241710E+03  0.46507623446E+03 -0.14129932333E+04  0.15795099968E+04  0.00000000000E+00 0. -1.
        -11    1    3    3    0    0 -0.23906171037E+03  0.23524431012E+03 -0.54667191198E+03  0.64135837576E+03  0.00000000000E+00 0.  1.
         22    1    1    2    0    0  0.77010412747E+03 -0.70032054458E+03  0.39716184371E+04  0.41057596425E+04  0.00000000000E+00 0. -1.
<mgrwt>
<rscale>  0 0.59981886E+04</rscale>
<asrwt>0</asrwt>
<pdfrwt beam="1">  1        2 0.64142933E+00 0.59981886E+04</pdfrwt>
<pdfrwt beam="2">  1       -2 0.33189806E+00 0.59981886E+04</pdfrwt>
<totfact> 0.33375590E-03</totfact>
</mgrwt>
</event>
<event>
 6    1  0.9364335E-007  0.2498225E+04  0.7818608E-02  0.8403618E-01
         -1   -1    0    0    0  501 -0.00000000000E+00  0.00000000000E+00  0.57348179564E+03  0.57348179564E+03  0.00000000000E+00 0.  1.
          1   -1    0    0  501    0  0.00000000000E+00 -0.00000000000E+00 -0.27207177692E+04  0.27207177692E+04  0.00000000000E+00 0. -1.
         23    2    1    2    0    0 -0.28983627947E+03 -0.38688199342E+03 -0.25914100790E+04  0.26377139355E+04  0.91901373652E+02 0.  0.
         11    1    3    3    0    0 -0.62937228268E+02 -0.15638254671E+03 -0.86943771190E+03  0.88562888983E+03  0.00000000000E+00 0. -1.
        -11    1    3    3    0    0 -0.22689905121E+03 -0.23049944670E+03 -0.17219723671E+04  0.17520850457E+04  0.00000000000E+00 0.  1.
         22    1    1    2    0    0  0.28983627947E+03  0.38688199342E+03  0.44417410534E+03  0.65648562938E+03  0.00000000000E+00 0.  1.
<mgrwt>
<rscale>  0 0.24982251E+04</rscale>
<asrwt>0</asrwt>
<pdfrwt beam="1">  1        1 0.41857197E+00 0.24982251E+04</pdfrwt>
<pdfrwt beam="2">  1       -1 0.88227967E-01 0.24982251E+04</pdfrwt>
<totfact> 0.10637368E+00</totfact>
</mgrwt>
</event>
<event>
 6    1  0.9364335E-007  0.3013123E+04  0.7818608E-02  0.8239993E-01
          2   -1    0    0  501    0  0.00000000000E+00  0.00000000000E+00  0.21719991500E+04  0.21719991500E+04  0.00000000000E+00 0. -1.
         -2   -1    0    0    0  501 -0.00000000000E+00 -0.00000000000E+00 -0.10449945906E+04  0.10449945906E+04  0.00000000000E+00 0.  1.
         23    2    1    2    0    0  0.99444471544E+03  0.65176338435E+03  0.15494880190E+04  0.19551664645E+04  0.89704969673E+02 0.  0.
         11    1    3    3    0    0  0.61388312943E+03  0.39126936891E+03  0.10176782843E+04  0.12512447027E+04  0.00000000000E+00 0. -1.
        -11    1    3    3    0    0  0.38056158601E+03  0.26049401544E+03  0.53180973472E+03  0.70392176182E+03  0.00000000000E+00 0.  1.
         22    1    1    2    0    0 -0.99444471544E+03 -0.65176338435E+03 -0.42248345964E+03  0.12618272762E+04  0.00000000000E+00 0.  1.
<mgrwt>
<rscale>  0 0.30131229E+04</rscale>
<asrwt>0</asrwt>
<pdfrwt beam="1">  1        2 0.33415372E+00 0.30131229E+04</pdfrwt>
<pdfrwt beam="2">  1       -2 0.16076840E+00 0.30131229E+04</pdfrwt>
<totfact> 0.11383369E+00</totfact>
</mgrwt>
</event>
<event>
 6    1  0.9364335E-007  0.5126380E+03  0.7818608E-02  0.1010532E+00
         -2   -1    0    0    0  501 -0.00000000000E+00  0.00000000000E+00  0.68737215762E+02  0.68737215762E+02  0.00000000000E+00 0.  1.
          2   -1    0    0  501    0  0.00000000000E+00 -0.00000000000E+00 -0.95580586154E+03  0.95580586154E+03  0.00000000000E+00 0. -1.
         23    2    1    2    0    0  0.13671996635E+02  0.21631154770E+03 -0.21584872304E+03  0.31919650019E+03  0.91203757250E+02 0.  0.
         11    1    3    3    0    0 -0.25604360975E+02  0.72875060235E+02 -0.34307903372E+02  0.84518577478E+02  0.00000000000E+00 0.  1.
        -11    1    3    3    0    0  0.39276357610E+02  0.14343648747E+03 -0.18154081967E+03  0.23467792272E+03  0.00000000000E+00 0. -1.
         22    1    1    2    0    0 -0.13671996635E+02 -0.21631154770E+03 -0.67121992273E+03  0.70534657711E+03  0.00000000000E+00 0. -1.
<mgrwt>
<rscale>  0 0.51263802E+03</rscale>
<asrwt>0</asrwt>
<pdfrwt beam="1">  1        2 0.14704705E+00 0.51263802E+03</pdfrwt>
<pdfrwt beam="2">  1       -2 0.10574957E-01 0.51263802E+03</pdfrwt>
<totfact> 0.16960065E+03</totfact>
</mgrwt>
</event>
<event>
 6    1  0.9364335E-007  0.1139141E+04  0.7818608E-02  0.9167860E-01
         -2   -1    0    0    0  501 -0.00000000000E+00  0.00000000000E+00  0.10239767716E+03  0.10239767716E+03  0.00000000000E+00 0.  1.
          2   -1    0    0  501    0  0.00000000000E+00 -0.00000000000E+00 -0.31681445405E+04  0.31681445405E+04  0.00000000000E+00 0. -1.
         23    2    1    2    0    0 -0.35475484916E+03  0.29804599515E+03 -0.24758739713E+04  0.25204539248E+04  0.89742115872E+02 0.  0.
         11    1    3    3    0    0 -0.86725540040E+02  0.99491136083E+02 -0.52930150002E+03  0.54550882979E+03  0.00000000000E+00 0.  1.
        -11    1    3    3    0    0 -0.26802930912E+03  0.19855485907E+03 -0.19465724712E+04  0.19749450950E+04  0.00000000000E+00 0. -1.
         22    1    1    2    0    0  0.35475484916E+03 -0.29804599515E+03 -0.58987289204E+03  0.75008829280E+03  0.00000000000E+00 0.  1.
<mgrwt>
<rscale>  0 0.11391412E+04</rscale>
<asrwt>0</asrwt>
<pdfrwt beam="1">  1        2 0.48740673E+00 0.11391412E+04</pdfrwt>
<pdfrwt beam="2">  1       -2 0.15753493E-01 0.11391412E+04</pdfrwt>
<totfact> 0.44443485E+01</totfact>
</mgrwt>
</event>
<event>
 6    1  0.9364335E-007  0.2011004E+04  0.7818608E-02  0.8601493E-01
         -1   -1    0    0    0  501 -0.00000000000E+00  0.00000000000E+00  0.56769841619E+03  0.56769841619E+03  0.00000000000E+00 0.  1.
          1   -1    0    0  501    0  0.00000000000E+00 -0.00000000000E+00 -0.17809349074E+04  0.17809349074E+04  0.00000000000E+00 0. -1.
         23    2    1    2    0    0  0.34443733120E+03  0.18409446511E+03  0.47144476518E+03  0.61927541302E+03  0.93348933316E+02 0.  0.
         11    1    3    3    0    0  0.15357291487E+03  0.53146720573E+02  0.25497295674E+03  0.30235810351E+03  0.00000000000E+00 0.  1.
        -11    1    3    3    0    0  0.19086441632E+03  0.13094774454E+03  0.21647180844E+03  0.31691730951E+03  0.00000000000E+00 0. -1.
         22    1    1    2    0    0 -0.34443733120E+03 -0.18409446511E+03 -0.16846812564E+04  0.17293579106E+04  0.00000000000E+00 0. -1.
<mgrwt>
<rscale>  0 0.20110037E+04</rscale>
<asrwt>0</asrwt>
<pdfrwt beam="1">  1        1 0.27398998E+00 0.20110037E+04</pdfrwt>
<pdfrwt beam="2">  1       -1 0.87338220E-01 0.20110037E+04</pdfrwt>
<totfact> 0.50193558E+00</totfact>
</mgrwt>
</event>
<event>
 6    1  0.9364335E-007  0.2581321E+04  0.7818608E-02  0.8374574E-01
         -3   -1    0    0    0  501 -0.00000000000E+00  0.00000000000E+00  0.14726576800E+04  0.14726576800E+04  0.00000000000E+00 0.  1.
          3   -1    0    0  501    0  0.00000000000E+00 -0.00000000000E+00 -0.11311550036E+04  0.11311550036E+04  0.00000000000E+00 0. -1.
         23    2    1    2    0    0 -0.12466455800E+04 -0.30615259585E+03  0.52729714274E+02  0.12880450606E+04  0.91788022748E+02 0.  0.
         13    1    3    3    0    0 -0.53798868086E+03 -0.89530137203E+02  0.37240207604E+01  0.54540016000E+03  0.00000000000E+00 0. -1.
        -13    1    3    3    0    0 -0.70865689919E+03 -0.21662245865E+03  0.49005693514E+02  0.74264490058E+03  0.00000000000E+00 0.  1.
         22    1    1    2    0    0  0.12466455800E+04  0.30615259585E+03  0.28877296219E+03  0.13157676231E+04  0.00000000000E+00 0. -1.
<mgrwt>
<rscale>  0 0.25813207E+04</rscale>
<asrwt>0</asrwt>
<pdfrwt beam="1">  1        3 0.17402385E+00 0.25813207E+04</pdfrwt>
<pdfrwt beam="2">  1       -3 0.22656272E+00 0.25813207E+04</pdfrwt>
<totfact> 0.50499779E-02</totfact>
</mgrwt>
</event>
<event>
 6    1  0.9364335E-007  0.3077885E+04  0.7818608E-02  0.8221834E-01
         -2   -1    0    0    0  501 -0.00000000000E+00  0.00000000000E+00  0.99783754083E+03  0.99783754083E+03  0.00000000000E+00 0.  1.
          2   -1    0    0  501    0  0.00000000000E+00 -0.00000000000E+00 -0.23734763159E+04  0.23734763159E+04  0.00000000000E+00 0. -1.
         23    2    1    2    0    0  0.22954004997E+03 -0.40007970588E+03 -0.22950722001E+04  0.23426690061E+04  0.89382676907E+02 0.  0.
         13    1    3    3    0    0  0.20565991397E+03 -0.30509445061E+03 -0.19255156332E+04  0.19603543245E+04  0.00000000000E+00 0. -1.
        -13    1    3    3    0    0  0.23880135995E+02 -0.94985255271E+02 -0.36955656689E+03  0.38231468157E+03  0.00000000000E+00 0.  1.
         22    1    1    2    0    0 -0.22954004997E+03  0.40007970588E+03  0.91943342504E+03  0.10286448506E+04  0.00000000000E+00 0.  1.
<mgrwt>
<rscale>  0 0.30778848E+04</rscale>
<asrwt>0</asrwt>
<pdfrwt beam="1">  1        2 0.36515020E+00 0.30778848E+04</pdfrwt>
<pdfrwt beam="2">  1       -2 0.15351347E+00 0.30778848E+04</pdfrwt>
<totfact> 0.98633151E-01</totfact>
</mgrwt>
</event>
<event>
 6    1  0.9364335E-007  0.2242251E+04  0.7818608E-02  0.8501045E-01
          2   -1    0    0  501    0  0.00000000000E+00  0.00000000000E+00  0.31087858124E+04  0.31087858124E+04  0.00000000000E+00 0. -1.
         -2   -1    0    0    0  501 -0.00000000000E+00 -0.00000000000E+00 -0.40431294866E+03  0.40431294866E+03  0.00000000000E+00 0.  1.
         23    2    1    2    0    0  0.19407675603E+03 -0.62620561725E+03 -0.67028816970E+02  0.66511336283E+03  0.89909180909E+02 0.  0.
         13    1    3    3    0    0  0.13233314666E+03 -0.32663583566E+03 -0.20973736095E+01  0.35243074471E+03  0.00000000000E+00 0. -1.
        -13    1    3    3    0    0  0.61743609368E+02 -0.29956978158E+03 -0.64931443361E+02  0.31268261812E+03  0.00000000000E+00 0.  1.
         22    1    1    2    0    0 -0.19407675603E+03  0.62620561725E+03  0.27715016807E+04  0.28479853982E+04  0.00000000000E+00 0. -1.
<mgrwt>
<rscale>  0 0.22422510E+04</rscale>
<asrwt>0</asrwt>
<pdfrwt beam="1">  1        2 0.47827472E+00 0.22422510E+04</pdfrwt>
<pdfrwt beam="2">  1       -2 0.62201994E-01 0.22422510E+04</pdfrwt>
<totfact> 0.32506208E+00</totfact>
</mgrwt>
</event>
<event>
 6    1  0.9364335E-007  0.3268770E+04  0.7818608E-02  0.8170888E-01
          1   -1    0    0  501    0  0.00000000000E+00  0.00000000000E+00  0.12108960753E+04  0.12108960753E+04  0.00000000000E+00 0. -1.
         -1   -1    0    0    0  501 -0.00000000000E+00 -0.00000000000E+00 -0.22059812554E+04  0.22059812554E+04  0.00000000000E+00 0.  1.
         23    2    1    2    0    0  0.14304200100E+04  0.78782937906E+03 -0.48497084767E+03  0.17060315845E+04  0.92577041456E+02 0.  0.
         11    1    3    3    0    0  0.95211600339E+03  0.57368062990E+03 -0.33088555403E+03  0.11597929121E+04  0.00000000000E+00 0. -1.
        -11    1    3    3    0    0  0.47830400659E+03  0.21414874916E+03 -0.15408529364E+03  0.54623867238E+03  0.00000000000E+00 0.  1.
         22    1    1    2    0    0 -0.14304200100E+04 -0.78782937906E+03 -0.51011433245E+03  0.17108457463E+04  0.00000000000E+00 0. -1.
<mgrwt>
<rscale>  0 0.32687698E+04</rscale>
<asrwt>0</asrwt>
<pdfrwt beam="1">  1        1 0.18629171E+00 0.32687698E+04</pdfrwt>
<pdfrwt beam="2">  1       -1 0.33938173E+00 0.32687698E+04</pdfrwt>
<totfact> 0.15933271E-01</totfact>
</mgrwt>
</event>
<event>
 6    1  0.9364335E-007  0.9215065E+03  0.7818608E-02  0.9399090E-01
         -2   -1    0    0    0  501 -0.00000000000E+00  0.00000000000E+00  0.19555530640E+03  0.19555530640E+03  0.00000000000E+00 0.  1.
          2   -1    0    0  501    0  0.00000000000E+00 -0.00000000000E+00 -0.10855933876E+04  0.10855933876E+04  0.00000000000E+00 0. -1.
         23    2    1    2    0    0 -0.23827725931E+03 -0.36412024906E+03 -0.63979936923E+03  0.77917357403E+03  0.91698514279E+02 0.  0.
         13    1    3    3    0    0 -0.15422155573E+03 -0.22112873737E+03 -0.46982155702E+03  0.54167748908E+03  0.00000000000E+00 0. -1.
        -13    1    3    3    0    0 -0.84055703588E+02 -0.14299151169E+03 -0.16997781221E+03  0.23749608495E+03  0.00000000000E+00 0.  1.
         22    1    1    2    0    0  0.23827725931E+03  0.36412024906E+03 -0.25023871195E+03  0.50197511994E+03  0.00000000000E+00 0.  1.
<mgrwt>
<rscale>  0 0.92150648E+03</rscale>
<asrwt>0</asrwt>
<pdfrwt beam="1">  1        2 0.16701436E+00 0.92150648E+03</pdfrwt>
<pdfrwt beam="2">  1       -2 0.30085432E-01 0.92150648E+03</pdfrwt>
<totfact> 0.22690327E+02</totfact>
</mgrwt>
</event>
<event>
 6    1  0.9364335E-007  0.1174179E+04  0.7818608E-02  0.9135763E-01
          2   -1    0    0  501    0  0.00000000000E+00  0.00000000000E+00  0.20244883617E+04  0.20244883617E+04  0.00000000000E+00 0. -1.
         -2   -1    0    0    0  501 -0.00000000000E+00 -0.00000000000E+00 -0.17025248537E+03  0.17025248537E+03  0.00000000000E+00 0.  1.
         23    2    1    2    0    0 -0.28899994993E+03 -0.25497648583E+03  0.11378100730E+03  0.41212559681E+03  0.91473551013E+02 0.  0.
         13    1    3    3    0    0 -0.14843356044E+03 -0.16480068576E+03  0.25585382832E+02  0.22326307287E+03  0.00000000000E+00 0. -1.
        -13    1    3    3    0    0 -0.14056638949E+03 -0.90175800070E+02  0.88195624472E+02  0.18886252394E+03  0.00000000000E+00 0.  1.
         22    1    1    2    0    0  0.28899994993E+03  0.25497648583E+03  0.17404548691E+04  0.17826152503E+04  0.00000000000E+00 0. -1.
<mgrwt>
<rscale>  0 0.11741792E+04</rscale>
<asrwt>0</asrwt>
<pdfrwt beam="1">  1        2 0.31145973E+00 0.11741792E+04</pdfrwt>
<pdfrwt beam="2">  1       -2 0.26192691E-01 0.11741792E+04</pdfrwt>
<totfact> 0.84477623E+01</totfact>
</mgrwt>
</event>
<event>
 6    1  0.9364335E-007  0.1072359E+04  0.7818608E-02  0.9232560E-01
          1   -1    0    0  501    0  0.00000000000E+00  0.00000000000E+00  0.10208076585E+04  0.10208076585E+04  0.00000000000E+00 0. -1.
         -1   -1    0    0    0  501 -0.00000000000E+00 -0.00000000000E+00 -0.28162831365E+03  0.28162831365E+03  0.00000000000E+00 0.  1.
         23    2    1    2    0    0  0.45474610380E+02 -0.50846333498E+03  0.55649072062E+03  0.76023855737E+03  0.87623277520E+02 0.  0.
         11    1    3    3    0    0  0.63700978114E+02 -0.38891232741E+03  0.45846683998E+03  0.60456799153E+03  0.00000000000E+00 0. -1.
        -11    1    3    3    0    0 -0.18226367734E+02 -0.11955100757E+03  0.98023880643E+02  0.15567056584E+03  0.00000000000E+00 0.  1.
         22    1    1    2    0    0 -0.45474610380E+02  0.50846333498E+03  0.18268862426E+03  0.54219741482E+03  0.00000000000E+00 0. -1.
<mgrwt>
<rscale>  0 0.10723588E+04</rscale>
<asrwt>0</asrwt>
<pdfrwt beam="1">  1        1 0.15704733E+00 0.10723588E+04</pdfrwt>
<pdfrwt beam="2">  1       -1 0.43327434E-01 0.10723588E+04</pdfrwt>
<totfact> 0.76423071E+01</totfact>
</mgrwt>
</event>
<event>
 6    1  0.9364335E-007  0.2213201E+04  0.7818608E-02  0.8512953E-01
         -1   -1    0    0    0  501 -0.00000000000E+00  0.00000000000E+00  0.11456252346E+04  0.11456252346E+04  0.00000000000E+00 0.  1.
          1   -1    0    0  501    0  0.00000000000E+00 -0.00000000000E+00 -0.10689055407E+04  0.10689055407E+04  0.00000000000E+00 0. -1.
         23    2    1    2    0    0  0.10495699188E+04  0.31814828464E+03 -0.94673099511E+02  0.11044898593E+04  0.90108312970E+02 0.  0.
         13    1    3    3    0    0  0.91365004534E+03  0.29890300102E+03 -0.61518823181E+02  0.96326734346E+03  0.00000000000E+00 0. -1.
        -13    1    3    3    0    0  0.13591987346E+03  0.19245283622E+02 -0.33154276329E+02  0.14122251584E+03  0.00000000000E+00 0.  1.
         22    1    1    2    0    0 -0.10495699188E+04 -0.31814828464E+03  0.17139279340E+03  0.11100409160E+04  0.00000000000E+00 0.  1.
<mgrwt>
<rscale>  0 0.22132014E+04</rscale>
<asrwt>0</asrwt>
<pdfrwt beam="1">  1        1 0.16444701E+00 0.22132014E+04</pdfrwt>
<pdfrwt beam="2">  1       -1 0.17625004E+00 0.22132014E+04</pdfrwt>
<totfact> 0.27003001E+00</totfact>
</mgrwt>
</event>
<event>
 6    1  0.9364335E-007  0.1303441E+04  0.7818608E-02  0.9026841E-01
          1   -1    0    0  501    0  0.00000000000E+00  0.00000000000E+00  0.12880075854E+04  0.12880075854E+04  0.00000000000E+00 0. -1.
         -1   -1    0    0    0  501 -0.00000000000E+00 -0.00000000000E+00 -0.32976484626E+03  0.32976484626E+03  0.00000000000E+00 0.  1.
         23    2    1    2    0    0  0.21657854161E+03 -0.18209510587E+03  0.12056447569E+04  0.12419098895E+04  0.93252354777E+02 0.  0.
         11    1    3    3    0    0  0.18556615519E+03 -0.10454060323E+03  0.80908229648E+03  0.83664669853E+03  0.00000000000E+00 0.  1.
        -11    1    3    3    0    0  0.31012386419E+02 -0.77554502639E+02  0.39656246037E+03  0.40526319098E+03  0.00000000000E+00 0. -1.
         22    1    1    2    0    0 -0.21657854161E+03  0.18209510587E+03 -0.24740201767E+03  0.37586254218E+03  0.00000000000E+00 0.  1.
<mgrwt>
<rscale>  0 0.13034410E+04</rscale>
<asrwt>0</asrwt>
<pdfrwt beam="1">  1        1 0.19815501E+00 0.13034410E+04</pdfrwt>
<pdfrwt beam="2">  1       -1 0.50733054E-01 0.13034410E+04</pdfrwt>
<totfact> 0.35373117E+01</totfact>
</mgrwt>
</event>
<event>
 6    1  0.9364335E-007  0.4343629E+04  0.7818608E-02  0.7938600E-01
         -1   -1    0    0    0  501 -0.00000000000E+00  0.00000000000E+00  0.13290380882E+04  0.13290380882E+04  0.00000000000E+00 0.  1.
          1   -1    0    0  501    0  0.00000000000E+00 -0.00000000000E+00 -0.35490158969E+04  0.35490158969E+04  0.00000000000E+00 0. -1.
         23    2    1    2    0    0 -0.50710753636E+03 -0.16543364896E+04 -0.25824644875E+04  0.31101784616E+04  0.10049855730E+03 0.  0.
         13    1    3    3    0    0 -0.67557754780E+02 -0.34578452638E+03 -0.55577238461E+03  0.65803794147E+03  0.00000000000E+00 0. -1.
        -13    1    3    3    0    0 -0.43954978158E+03 -0.13085519632E+04 -0.20266921028E+04  0.24521405202E+04  0.00000000000E+00 0.  1.
         22    1    1    2    0    0  0.50710753636E+03  0.16543364896E+04  0.36248667879E+03  0.17678755235E+04  0.00000000000E+00 0.  1.
<mgrwt>
<rscale>  0 0.43436286E+04</rscale>
<asrwt>0</asrwt>
<pdfrwt beam="1">  1        1 0.54600244E+00 0.43436286E+04</pdfrwt>
<pdfrwt beam="2">  1       -1 0.20446740E+00 0.43436286E+04</pdfrwt>
<totfact> 0.24347227E-02</totfact>
</mgrwt>
</event>
<event>
 6    1  0.9364335E-007  0.2352707E+04  0.7818608E-02  0.8457425E-01
         -2   -1    0    0    0  501 -0.00000000000E+00  0.00000000000E+00  0.60135247209E+03  0.60135247209E+03  0.00000000000E+00 0.  1.
          2   -1    0    0  501    0  0.00000000000E+00 -0.00000000000E+00 -0.23011582938E+04  0.23011582938E+04  0.00000000000E+00 0. -1.
         23    2    1    2    0    0  0.25659042000E+03 -0.10633605645E+04 -0.32329876957E+03  0.11442883686E+04  0.91101275119E+02 0.  0.
         11    1    3    3    0    0  0.12108304278E+03 -0.65932222363E+03 -0.17190468220E+03  0.69203910119E+03  0.00000000000E+00 0.  1.
        -11    1    3    3    0    0  0.13550737722E+03 -0.40403834087E+03 -0.15139408736E+03  0.45224926740E+03  0.00000000000E+00 0. -1.
         22    1    1    2    0    0 -0.25659042000E+03  0.10633605645E+04 -0.13765070521E+04  0.17582223973E+04  0.00000000000E+00 0. -1.
<mgrwt>
<rscale>  0 0.23527067E+04</rscale>
<asrwt>0</asrwt>
<pdfrwt beam="1">  1        2 0.35402436E+00 0.23527067E+04</pdfrwt>
<pdfrwt beam="2">  1       -2 0.92515763E-01 0.23527067E+04</pdfrwt>
<totfact> 0.40507223E+00</totfact>
</mgrwt>
</event>
<event>
 6    1  0.9364335E-007  0.1618520E+04  0.7818608E-02  0.8809251E-01
          1   -1    0    0  501    0  0.00000000000E+00  0.00000000000E+00  0.11890786057E+04  0.11890786057E+04  0.00000000000E+00 0. -1.
         -1   -1    0    0    0  501 -0.00000000000E+00 -0.00000000000E+00 -0.55076403796E+03  0.55076403796E+03  0.00000000000E+00 0.  1.
         23    2    1    2    0    0 -0.15455540292E+03  0.54705310724E+03 -0.29503782140E+03  0.64700177828E+03  0.91703382296E+02 0.  0.
         11    1    3    3    0    0 -0.12691812786E+03  0.29347420271E+03 -0.18292476208E+03  0.36837044863E+03  0.00000000000E+00 0. -1.
        -11    1    3    3    0    0 -0.27637275062E+02  0.25357890453E+03 -0.11211305931E+03  0.27863132965E+03  0.00000000000E+00 0.  1.
         22    1    1    2    0    0  0.15455540292E+03 -0.54705310724E+03  0.93335238910E+03  0.10928408653E+04  0.00000000000E+00 0. -1.
<mgrwt>
<rscale>  0 0.16185200E+04</rscale>
<asrwt>0</asrwt>
<pdfrwt beam="1">  1        1 0.18293517E+00 0.16185200E+04</pdfrwt>
<pdfrwt beam="2">  1       -1 0.84732929E-01 0.16185200E+04</pdfrwt>
<totfact> 0.14376564E+01</totfact>
</mgrwt>
</event>
<event>
 6    1  0.9364335E-007  0.3113387E+04  0.7818608E-02  0.8212074E-01
          1   -1    0    0  501    0  0.00000000000E+00  0.00000000000E+00  0.34257772897E+04  0.34257772897E+04  0.00000000000E+00 0. -1.
         -1   -1    0    0    0  501 -0.00000000000E+00 -0.00000000000E+00 -0.70737068922E+03  0.70737068922E+03  0.00000000000E+00 0.  1.
         23    2    1    2    0    0 -0.15389852244E+04 -0.21230194534E+03  0.14581041986E+04  0.21326705906E+04  0.93104012542E+02 0.  0.
         11    1    3    3    0    0 -0.50703870293E+03 -0.33483537079E+02  0.44300853242E+03  0.67414090020E+03  0.00000000000E+00 0. -1.
        -11    1    3    3    0    0 -0.10319465215E+04 -0.17881840826E+03  0.10150956662E+04  0.14585296904E+04  0.00000000000E+00 0.  1.
         22    1    1    2    0    0  0.15389852244E+04  0.21230194534E+03  0.12603024019E+04  0.20004773883E+04  0.00000000000E+00 0.  1.
<mgrwt>
<rscale>  0 0.31133869E+04</rscale>
<asrwt>0</asrwt>
<pdfrwt beam="1">  1        1 0.52704265E+00 0.31133869E+04</pdfrwt>
<pdfrwt beam="2">  1       -1 0.10882626E+00 0.31133869E+04</pdfrwt>
<totfact> 0.18830091E-01</totfact>
</mgrwt>
</event>
<event>
 6    1  0.9364335E-007  0.2456862E+04  0.7818608E-02  0.8418517E-01
          1   -1    0    0  501    0  0.00000000000E+00  0.00000000000E+00  0.36587740971E+04  0.36587740971E+04  0.00000000000E+00 0. -1.
         -1   -1    0    0    0  501 -0.00000000000E+00 -0.00000000000E+00 -0.41244505760E+03  0.41244505760E+03  0.00000000000E+00 0.  1.
         23    2    1    2    0    0  0.99384407502E+03 -0.44072689337E+03  0.68327787416E+03  0.12871219013E+04  0.88588349129E+02 0.  0.
         13    1    3    3    0    0  0.25963915256E+03 -0.15623012483E+03  0.17497284377E+03  0.34990832729E+03  0.00000000000E+00 0.  1.
        -13    1    3    3    0    0  0.73420492246E+03 -0.28449676854E+03  0.50830503038E+03  0.93721357405E+03  0.00000000000E+00 0. -1.
         22    1    1    2    0    0 -0.99384407502E+03  0.44072689337E+03  0.25630511653E+04  0.27840972533E+04  0.00000000000E+00 0. -1.
<mgrwt>
<rscale>  0 0.24568625E+04</rscale>
<asrwt>0</asrwt>
<pdfrwt beam="1">  1        1 0.56288830E+00 0.24568625E+04</pdfrwt>
<pdfrwt beam="2">  1       -1 0.63453088E-01 0.24568625E+04</pdfrwt>
<totfact> 0.41949819E-01</totfact>
</mgrwt>
</event>
<event>
 6    1  0.9364335E-007  0.3373139E+04  0.7818608E-02  0.8144531E-01
         -2   -1    0    0    0  501 -0.00000000000E+00  0.00000000000E+00  0.91421226648E+03  0.91421226648E+03  0.00000000000E+00 0.  1.
          2   -1    0    0  501    0  0.00000000000E+00 -0.00000000000E+00 -0.31114396582E+04  0.31114396582E+04  0.00000000000E+00 0. -1.
         23    2    1    2    0    0 -0.44600315422E+03  0.14983507656E+04 -0.18508162543E+04  0.24244103731E+04  0.90945145764E+02 0.  0.
         13    1    3    3    0    0 -0.30725105800E+03  0.93677904111E+03 -0.11125988502E+04  0.14865511716E+04  0.00000000000E+00 0.  1.
        -13    1    3    3    0    0 -0.13875209622E+03  0.56157172451E+03 -0.73821740417E+03  0.93785920148E+03  0.00000000000E+00 0. -1.
         22    1    1    2    0    0  0.44600315422E+03 -0.14983507656E+04 -0.34641113741E+03  0.16012415516E+04  0.00000000000E+00 0.  1.
<mgrwt>
<rscale>  0 0.33731388E+04</rscale>
<asrwt>0</asrwt>
<pdfrwt beam="1">  1        2 0.47868302E+00 0.33731388E+04</pdfrwt>
<pdfrwt beam="2">  1       -2 0.14064804E+00 0.33731388E+04</pdfrwt>
<totfact> 0.43557246E-01</totfact>
</mgrwt>
</event>
<event>
 6    1  0.9364335E-007  0.2029440E+04  0.7818608E-02  0.8592979E-01
         -1   -1    0    0    0  501 -0.00000000000E+00  0.00000000000E+00  0.87027149910E+03  0.87027149910E+03  0.00000000000E+00 0.  1.
          1   -1    0    0  501    0  0.00000000000E+00 -0.00000000000E+00 -0.11831444236E+04  0.11831444236E+04  0.00000000000E+00 0. -1.
         23    2    1    2    0    0  0.39148573790E+03 -0.38265243197E+03  0.70527237812E+03  0.89742983979E+03  0.91034187726E+02 0.  0.
         13    1    3    3    0    0  0.73338890438E+02 -0.11517644027E+03  0.13751717975E+03  0.19379158901E+03  0.00000000000E+00 0.  1.
        -13    1    3    3    0    0  0.31814684746E+03 -0.26747599170E+03  0.56775519837E+03  0.70363825078E+03  0.00000000000E+00 0. -1.
         22    1    1    2    0    0 -0.39148573790E+03  0.38265243197E+03 -0.10181453026E+04  0.11559860829E+04  0.00000000000E+00 0. -1.
<mgrwt>
<rscale>  0 0.20294402E+04</rscale>
<asrwt>0</asrwt>
<pdfrwt beam="1">  1        1 0.18202222E+00 0.20294402E+04</pdfrwt>
<pdfrwt beam="2">  1       -1 0.13388792E+00 0.20294402E+04</pdfrwt>
<totfact> 0.47870491E+00</totfact>
</mgrwt>
</event>
<event>
 6    1  0.9364335E-007  0.2032967E+04  0.7818608E-02  0.8591361E-01
         -1   -1    0    0    0  501 -0.00000000000E+00  0.00000000000E+00  0.39260994296E+03  0.39260994296E+03  0.00000000000E+00 0.  1.
          1   -1    0    0  501    0  0.00000000000E+00 -0.00000000000E+00 -0.26317179563E+04  0.26317179563E+04  0.00000000000E+00 0. -1.
         23    2    1    2    0    0  0.90010333318E+02 -0.96557261010E+03 -0.67618433326E+03  0.11849903133E+04  0.80897864804E+02 0.  0.
         11    1    3    3    0    0  0.74718174778E+02 -0.67025862665E+03 -0.51213193412E+03  0.84682262026E+03  0.00000000000E+00 0.  1.
        -11    1    3    3    0    0  0.15292158540E+02 -0.29531398345E+03 -0.16405239914E+03  0.33816769301E+03  0.00000000000E+00 0. -1.
         22    1    1    2    0    0 -0.90010333318E+02  0.96557261010E+03 -0.15629236801E+04  0.18393375860E+04  0.00000000000E+00 0.  1.
<mgrwt>
<rscale>  0 0.20329669E+04</rscale>
<asrwt>0</asrwt>
<pdfrwt beam="1">  1        1 0.40487971E+00 0.20329669E+04</pdfrwt>
<pdfrwt beam="2">  1       -1 0.60401527E-01 0.20329669E+04</pdfrwt>
<totfact> 0.28204617E+00</totfact>
</mgrwt>
</event>
<event>
 6    1  0.9364335E-007  0.2635476E+04  0.7818608E-02  0.8356250E-01
          2   -1    0    0  501    0  0.00000000000E+00  0.00000000000E+00  0.16799774570E+04  0.16799774570E+04  0.00000000000E+00 0. -1.
         -2   -1    0    0    0  501 -0.00000000000E+00 -0.00000000000E+00 -0.10336054026E+04  0.10336054026E+04  0.00000000000E+00 0.  1.
         23    2    1    2    0    0 -0.58251258147E+03 -0.41530597977E+03 -0.81345910795E+03  0.10878808613E+04  0.99845298886E+02 0.  0.
         11    1    3    3    0    0 -0.40674263866E+03 -0.31160133577E+03 -0.64150631768E+03  0.82101481240E+03  0.00000000000E+00 0.  1.
        -11    1    3    3    0    0 -0.17576994281E+03 -0.10370464400E+03 -0.17195279027E+03  0.26686604892E+03  0.00000000000E+00 0. -1.
         22    1    1    2    0    0  0.58251258147E+03  0.41530597977E+03  0.14598311624E+04  0.16257019982E+04  0.00000000000E+00 0. -1.
<mgrwt>
<rscale>  0 0.26354763E+04</rscale>
<asrwt>0</asrwt>
<pdfrwt beam="1">  1        2 0.25845807E+00 0.26354763E+04</pdfrwt>
<pdfrwt beam="2">  1       -2 0.15901622E+00 0.26354763E+04</pdfrwt>
<totfact> 0.22736244E+00</totfact>
</mgrwt>
</event>
<event>
 6    1  0.9364335E-007  0.1940366E+04  0.7818608E-02  0.8635021E-01
         -1   -1    0    0    0  501 -0.00000000000E+00  0.00000000000E+00  0.58472074913E+03  0.58472074913E+03  0.00000000000E+00 0.  1.
          1   -1    0    0  501    0  0.00000000000E+00 -0.00000000000E+00 -0.16097506024E+04  0.16097506024E+04  0.00000000000E+00 0. -1.
         23    2    1    2    0    0 -0.88449997856E+03 -0.39134548148E+03 -0.46786861995E+03  0.10782634238E+04  0.90881613468E+02 0.  0.
         11    1    3    3    0    0 -0.50419090667E+03 -0.17380469457E+03 -0.26107202720E+03  0.59378038500E+03  0.00000000000E+00 0. -1.
        -11    1    3    3    0    0 -0.38030907189E+03 -0.21754078692E+03 -0.20679659275E+03  0.48448303882E+03  0.00000000000E+00 0.  1.
         22    1    1    2    0    0  0.88449997856E+03  0.39134548148E+03 -0.55716123332E+03  0.11162079277E+04  0.00000000000E+00 0. -1.
<mgrwt>
<rscale>  0 0.19403655E+04</rscale>
<asrwt>0</asrwt>
<pdfrwt beam="1">  1        1 0.24765394E+00 0.19403655E+04</pdfrwt>
<pdfrwt beam="2">  1       -1 0.89957039E-01 0.19403655E+04</pdfrwt>
<totfact> 0.61946697E+00</totfact>
</mgrwt>
</event>
<event>
 6    1  0.9364335E-007  0.2737588E+04  0.7818608E-02  0.8322911E-01
         -2   -1    0    0    0  501 -0.00000000000E+00  0.00000000000E+00  0.89972752666E+03  0.89972752666E+03  0.00000000000E+00 0.  1.
          2   -1    0    0  501    0  0.00000000000E+00 -0.00000000000E+00 -0.20824050174E+04  0.20824050174E+04  0.00000000000E+00 0. -1.
         23    2    1    2    0    0  0.97001284697E+02 -0.93639257609E+03 -0.16721749560E+04  0.19210726616E+04  0.90059879404E+02 0.  0.
         13    1    3    3    0    0  0.89921729827E+02 -0.48836761403E+03 -0.92396335214E+03  0.10489504850E+04  0.00000000000E+00 0. -1.
        -13    1    3    3    0    0  0.70795548702E+01 -0.44802496207E+03 -0.74821160383E+03  0.87212217655E+03  0.00000000000E+00 0.  1.
         22    1    1    2    0    0 -0.97001284697E+02  0.93639257609E+03  0.48949746522E+03  0.10610598825E+04  0.00000000000E+00 0.  1.
<mgrwt>
<rscale>  0 0.27375881E+04</rscale>
<asrwt>0</asrwt>
<pdfrwt beam="1">  1        2 0.32037000E+00 0.27375881E+04</pdfrwt>
<pdfrwt beam="2">  1       -2 0.13841962E+00 0.27375881E+04</pdfrwt>
<totfact> 0.19445449E+00</totfact>
</mgrwt>
</event>
<event>
 6    1  0.1282234E-006  0.4571106E+04  0.7818608E-02  0.7898305E-01
         -1   -1    0    0    0  501 -0.00000000000E+00  0.00000000000E+00  0.18129392949E+04  0.18129392949E+04  0.00000000000E+00 0.  1.
          1   -1    0    0  501    0  0.00000000000E+00 -0.00000000000E+00 -0.28813717280E+04  0.28813717280E+04  0.00000000000E+00 0. -1.
         23    2    1    2    0    0 -0.20353557488E+04  0.37175851888E+03  0.46073285206E+03  0.21215257831E+04  0.87860495277E+02 0.  0.
         13    1    3    3    0    0 -0.14077789935E+04  0.29726512390E+03  0.32914589847E+03  0.14759895904E+04  0.00000000000E+00 0. -1.
        -13    1    3    3    0    0 -0.62757675530E+03  0.74493394976E+02  0.13158695359E+03  0.64553619266E+03  0.00000000000E+00 0.  1.
         22    1    1    2    0    0  0.20353557488E+04 -0.37175851888E+03 -0.15291652852E+04  0.25727852398E+04  0.00000000000E+00 0. -1.
<mgrwt>
<rscale>  0 0.45711058E+04</rscale>
<asrwt>0</asrwt>
<pdfrwt beam="1">  1        1 0.44328796E+00 0.45711058E+04</pdfrwt>
<pdfrwt beam="2">  1       -1 0.27891374E+00 0.45711058E+04</pdfrwt>
<totfact> 0.24622601E-02</totfact>
</mgrwt>
</event>
<event>
 6    1  0.9364335E-007  0.2874296E+04  0.7818608E-02  0.8280566E-01
         -1   -1    0    0    0  501 -0.00000000000E+00  0.00000000000E+00  0.13404984196E+04  0.13404984196E+04  0.00000000000E+00 0.  1.
          1   -1    0    0  501    0  0.00000000000E+00 -0.00000000000E+00 -0.15407659155E+04  0.15407659155E+04  0.00000000000E+00 0. -1.
         23    2    1    2    0    0 -0.11054458930E+04  0.68604679889E+03 -0.70878904469E+03  0.14843874621E+04  0.91396909785E+02 0.  0.
         13    1    3    3    0    0 -0.99859151688E+03  0.64879785245E+03 -0.63945944153E+03  0.13516774942E+04  0.00000000000E+00 0.  1.
        -13    1    3    3    0    0 -0.10685437612E+03  0.37248946446E+02 -0.69329603157E+02  0.13270996790E+03  0.00000000000E+00 0. -1.
         22    1    1    2    0    0  0.11054458930E+04 -0.68604679889E+03  0.50852154876E+03  0.13968768729E+04  0.00000000000E+00 0.  1.
<mgrwt>
<rscale>  0 0.28742959E+04</rscale>
<asrwt>0</asrwt>
<pdfrwt beam="1">  1        1 0.23704091E+00 0.28742959E+04</pdfrwt>
<pdfrwt beam="2">  1       -1 0.20623053E+00 0.28742959E+04</pdfrwt>
<totfact> 0.71924007E-01</totfact>
</mgrwt>
</event>
<event>
 6    1  0.9364335E-007  0.2614110E+04  0.7818608E-02  0.8363424E-01
          2   -1    0    0  501    0  0.00000000000E+00  0.00000000000E+00  0.14412034812E+04  0.14412034812E+04  0.00000000000E+00 0. -1.
         -2   -1    0    0    0  501 -0.00000000000E+00 -0.00000000000E+00 -0.11853933099E+04  0.11853933099E+04  0.00000000000E+00 0.  1.
         23    2    1    2    0    0 -0.66897596243E+03 -0.10458239923E+04 -0.27754215110E+03  0.12753968203E+04  0.91272900707E+02 0.  0.
         11    1    3    3    0    0 -0.38323781696E+03 -0.51859626584E+03 -0.12942230814E+03  0.65769555657E+03  0.00000000000E+00 0. -1.
        -11    1    3    3    0    0 -0.28573814548E+03 -0.52722772651E+03 -0.14811984296E+03  0.61770126377E+03  0.00000000000E+00 0.  1.
         22    1    1    2    0    0  0.66897596243E+03  0.10458239923E+04  0.53335232234E+03  0.13511999708E+04  0.00000000000E+00 0.  1.
<mgrwt>
<rscale>  0 0.26141101E+04</rscale>
<asrwt>0</asrwt>
<pdfrwt beam="1">  1        2 0.22172361E+00 0.26141101E+04</pdfrwt>
<pdfrwt beam="2">  1       -2 0.18236820E+00 0.26141101E+04</pdfrwt>
<totfact> 0.21152979E+00</totfact>
</mgrwt>
</event>
<event>
 6    1  0.9364335E-007  0.3201906E+04  0.7818608E-02  0.8188314E-01
         -2   -1    0    0    0  501 -0.00000000000E+00  0.00000000000E+00  0.24127167868E+04  0.24127167868E+04  0.00000000000E+00 0.  1.
          2   -1    0    0  501    0  0.00000000000E+00 -0.00000000000E+00 -0.10623087763E+04  0.10623087763E+04  0.00000000000E+00 0. -1.
         23    2    1    2    0    0  0.15148178115E+04  0.38830937441E+03  0.31039452075E+03  0.15969719879E+04  0.92290842023E+02 0.  0.
         13    1    3    3    0    0  0.47247376975E+03  0.10759949845E+03  0.54931322537E+02  0.48767465114E+03  0.00000000000E+00 0.  1.
        -13    1    3    3    0    0  0.10423440417E+04  0.28070987596E+03  0.25546319821E+03  0.11092973368E+04  0.00000000000E+00 0. -1.
         22    1    1    2    0    0 -0.15148178115E+04 -0.38830937441E+03  0.10400134898E+04  0.18780535752E+04  0.00000000000E+00 0.  1.
<mgrwt>
<rscale>  0 0.32019058E+04</rscale>
<asrwt>0</asrwt>
<pdfrwt beam="1">  1        2 0.16343212E+00 0.32019058E+04</pdfrwt>
<pdfrwt beam="2">  1       -2 0.37118720E+00 0.32019058E+04</pdfrwt>
<totfact> 0.22073936E-01</totfact>
</mgrwt>
</event>
<event>
 6    1  0.9364335E-007  0.3549564E+04  0.7818608E-02  0.8102143E-01
          1   -1    0    0  501    0  0.00000000000E+00  0.00000000000E+00  0.21876590709E+04  0.21876590709E+04  0.00000000000E+00 0. -1.
         -1   -1    0    0    0  501 -0.00000000000E+00 -0.00000000000E+00 -0.14398274575E+04  0.14398274575E+04  0.00000000000E+00 0.  1.
         23    2    1    2    0    0  0.81502329791E+03  0.15324493015E+04  0.74741676031E+03  0.18917837861E+04  0.86892128529E+02 0.  0.
         13    1    3    3    0    0  0.24234782626E+03  0.46587319908E+03  0.18334550419E+03  0.55622466722E+03  0.00000000000E+00 0.  1.
        -13    1    3    3    0    0  0.57267547164E+03  0.10665761024E+04  0.56407125612E+03  0.13355591189E+04  0.00000000000E+00 0. -1.
         22    1    1    2    0    0 -0.81502329791E+03 -0.15324493015E+04  0.41485312108E+00  0.17357027424E+04  0.00000000000E+00 0. -1.
<mgrwt>
<rscale>  0 0.35495643E+04</rscale>
<asrwt>0</asrwt>
<pdfrwt beam="1">  1        1 0.33656293E+00 0.35495643E+04</pdfrwt>
<pdfrwt beam="2">  1       -1 0.22151192E+00 0.35495643E+04</pdfrwt>
<totfact> 0.19403411E-01</totfact>
</mgrwt>
</event>
<event>
 6    1  0.9364335E-007  0.2513177E+04  0.7818608E-02  0.8398306E-01
          1   -1    0    0  501    0  0.00000000000E+00  0.00000000000E+00  0.20416317254E+04  0.20416317254E+04  0.00000000000E+00 0. -1.
         -1   -1    0    0    0  501 -0.00000000000E+00 -0.00000000000E+00 -0.77340841340E+03  0.77340841340E+03  0.00000000000E+00 0.  1.
         23    2    1    2    0    0  0.33949247190E+03 -0.72064668848E+03  0.17209863480E+04  0.18987535271E+04  0.94255814052E+02 0.  0.
         13    1    3    3    0    0  0.30657543094E+03 -0.59053611554E+03  0.14854934927E+04  0.16277015438E+04  0.00000000000E+00 0.  1.
        -13    1    3    3    0    0  0.32917040964E+02 -0.13011057295E+03  0.23549285529E+03  0.27105198334E+03  0.00000000000E+00 0. -1.
         22    1    1    2    0    0 -0.33949247190E+03  0.72064668848E+03 -0.45276303599E+03  0.91628661174E+03  0.00000000000E+00 0.  1.
<mgrwt>
<rscale>  0 0.25131774E+04</rscale>
<asrwt>0</asrwt>
<pdfrwt beam="1">  1        1 0.31409718E+00 0.25131774E+04</pdfrwt>
<pdfrwt beam="2">  1       -1 0.11898591E+00 0.25131774E+04</pdfrwt>
<totfact> 0.15658775E+00</totfact>
</mgrwt>
</event>
<event>
 6    1  0.9364335E-007  0.1255560E+04  0.7818608E-02  0.9065568E-01
          2   -1    0    0  501    0  0.00000000000E+00  0.00000000000E+00  0.35706103908E+03  0.35706103908E+03  0.00000000000E+00 0. -1.
         -2   -1    0    0    0  501 -0.00000000000E+00 -0.00000000000E+00 -0.11037553135E+04  0.11037553135E+04  0.00000000000E+00 0.  1.
         23    2    1    2    0    0  0.15798033102E+03 -0.59263224484E+03 -0.51398247545E+03  0.80482432212E+03  0.85985125438E+02 0.  0.
         11    1    3    3    0    0  0.12170467412E+03 -0.29622193706E+03 -0.28136713635E+03  0.42629441600E+03  0.00000000000E+00 0.  1.
        -11    1    3    3    0    0  0.36275656904E+02 -0.29641030778E+03 -0.23261533910E+03  0.37852990612E+03  0.00000000000E+00 0. -1.
         22    1    1    2    0    0 -0.15798033102E+03  0.59263224484E+03 -0.23271179894E+03  0.65599203042E+03  0.00000000000E+00 0. -1.
<mgrwt>
<rscale>  0 0.12555605E+04</rscale>
<asrwt>0</asrwt>
<pdfrwt beam="1">  1        2 0.54932468E-01 0.12555605E+04</pdfrwt>
<pdfrwt beam="2">  1       -2 0.16980851E+00 0.12555605E+04</pdfrwt>
<totfact> 0.18970963E+01</totfact>
</mgrwt>
</event>
<event>
 6    1  0.9364335E-007  0.1781766E+04  0.7818608E-02  0.8716057E-01
         -2   -1    0    0    0  501 -0.00000000000E+00  0.00000000000E+00  0.69682130773E+03  0.69682130773E+03  0.00000000000E+00 0.  1.
          2   -1    0    0  501    0  0.00000000000E+00 -0.00000000000E+00 -0.11389897031E+04  0.11389897031E+04  0.00000000000E+00 0. -1.
         23    2    1    2    0    0  0.48626712730E+03 -0.27806522309E+03 -0.93201409462E+03  0.10916841424E+04  0.96685090604E+02 0.  0.
         13    1    3    3    0    0  0.23521590596E+03 -0.79441494951E+02 -0.39999752003E+03  0.47078178551E+03  0.00000000000E+00 0. -1.
        -13    1    3    3    0    0  0.25105122133E+03 -0.19862372813E+03 -0.53201657459E+03  0.62090235686E+03  0.00000000000E+00 0.  1.
         22    1    1    2    0    0 -0.48626712730E+03  0.27806522309E+03  0.48984569922E+03  0.74412686850E+03  0.00000000000E+00 0.  1.
<mgrwt>
<rscale>  0 0.17817657E+04</rscale>
<asrwt>0</asrwt>
<pdfrwt beam="1">  1        2 0.17522918E+00 0.17817657E+04</pdfrwt>
<pdfrwt beam="2">  1       -2 0.10720328E+00 0.17817657E+04</pdfrwt>
<totfact> 0.13632663E+01</totfact>
</mgrwt>
</event>
<event>
 6    1  0.9364335E-007  0.3596348E+04  0.7818608E-02  0.8091329E-01
         -1   -1    0    0    0  501 -0.00000000000E+00  0.00000000000E+00  0.12708772094E+04  0.12708772094E+04  0.00000000000E+00 0.  1.
          1   -1    0    0  501    0  0.00000000000E+00 -0.00000000000E+00 -0.25442496926E+04  0.25442496926E+04  0.00000000000E+00 0. -1.
         23    2    1    2    0    0  0.58490737802E+03 -0.12927991686E+04  0.53261758450E+03  0.15183799730E+04  0.91377895917E+02 0.  0.
         11    1    3    3    0    0  0.38100153890E+03 -0.73295141267E+03  0.30645958973E+03  0.88107742346E+03  0.00000000000E+00 0. -1.
        -11    1    3    3    0    0  0.20390583912E+03 -0.55984775597E+03  0.22615799477E+03  0.63730254957E+03  0.00000000000E+00 0.  1.
         22    1    1    2    0    0 -0.58490737802E+03  0.12927991686E+04 -0.18059900677E+04  0.22967469290E+04  0.00000000000E+00 0. -1.
<mgrwt>
<rscale>  0 0.35963476E+04</rscale>
<asrwt>0</asrwt>
<pdfrwt beam="1">  1        1 0.39142303E+00 0.35963476E+04</pdfrwt>
<pdfrwt beam="2">  1       -1 0.19551957E+00 0.35963476E+04</pdfrwt>
<totfact> 0.16509578E-01</totfact>
</mgrwt>
</event>
<event>
 6    1  0.9364335E-007  0.7011398E+03  0.7818608E-02  0.9715285E-01
         -2   -1    0    0    0  501 -0.00000000000E+00  0.00000000000E+00  0.15415394394E+03  0.15415394394E+03  0.00000000000E+00 0.  1.
          2   -1    0    0  501    0  0.00000000000E+00 -0.00000000000E+00 -0.79725021245E+03  0.79725021245E+03  0.00000000000E+00 0. -1.
         23    2    1    2    0    0 -0.32019721253E+03  0.52534815519E+02 -0.48480185854E+03  0.59037329623E+03  0.90673177431E+02 0.  0.
         13    1    3    3    0    0 -0.22919628213E+03  0.33553230796E+02 -0.26647639118E+03  0.35308132504E+03  0.00000000000E+00 0. -1.
        -13    1    3    3    0    0 -0.91000930407E+02  0.18981584723E+02 -0.21832546736E+03  0.23729197119E+03  0.00000000000E+00 0.  1.
         22    1    1    2    0    0  0.32019721253E+03 -0.52534815519E+02 -0.15829440998E+03  0.36103086016E+03  0.00000000000E+00 0. -1.
<mgrwt>
<rscale>  0 0.70113983E+03</rscale>
<asrwt>0</asrwt>
<pdfrwt beam="1">  1        2 0.12265388E+00 0.70113983E+03</pdfrwt>
<pdfrwt beam="2">  1       -2 0.23715991E-01 0.70113983E+03</pdfrwt>
<totfact> 0.54875345E+02</totfact>
</mgrwt>
</event>
<event>
 6    1  0.9364335E-007  0.2250997E+04  0.7818608E-02  0.8497497E-01
          2   -1    0    0  501    0  0.00000000000E+00  0.00000000000E+00  0.59415729594E+03  0.59415729594E+03  0.00000000000E+00 0. -1.
         -2   -1    0    0    0  501 -0.00000000000E+00 -0.00000000000E+00 -0.21320051801E+04  0.21320051801E+04  0.00000000000E+00 0.  1.
         23    2    1    2    0    0  0.83043278179E+03 -0.13900242914E+03  0.13090461784E+03  0.85702492270E+03  0.91735591624E+02 0.  0.
         13    1    3    3    0    0  0.78292125332E+03 -0.12223748768E+03  0.10201174934E+03  0.79894561098E+03  0.00000000000E+00 0. -1.
        -13    1    3    3    0    0  0.47511528470E+02 -0.16764941461E+02  0.28892868498E+02  0.58079311720E+02  0.00000000000E+00 0.  1.
         22    1    1    2    0    0 -0.83043278179E+03  0.13900242914E+03 -0.16687525020E+04  0.18691375533E+04  0.00000000000E+00 0. -1.
<mgrwt>
<rscale>  0 0.22509966E+04</rscale>
<asrwt>0</asrwt>
<pdfrwt beam="1">  1        2 0.91408813E-01 0.22509966E+04</pdfrwt>
<pdfrwt beam="2">  1       -2 0.32800080E+00 0.22509966E+04</pdfrwt>
<totfact> 0.97672773E-01</totfact>
</mgrwt>
</event>
<event>
 6    1  0.9364335E-007  0.5063258E+04  0.7818608E-02  0.7818822E-01
         -1   -1    0    0    0  501 -0.00000000000E+00  0.00000000000E+00  0.17363221440E+04  0.17363221440E+04  0.00000000000E+00 0.  1.
          1   -1    0    0  501    0  0.00000000000E+00 -0.00000000000E+00 -0.36912197349E+04  0.36912197349E+04  0.00000000000E+00 0. -1.
         23    2    1    2    0    0  0.18715972014E+04  0.55210871544E+03  0.74975744715E+03  0.20924468289E+04  0.92181256911E+02 0.  0.
         13    1    3    3    0    0  0.15343920860E+04  0.41804668591E+03  0.59588029644E+03  0.16982919163E+04  0.00000000000E+00 0. -1.
        -13    1    3    3    0    0  0.33720511538E+03  0.13406202953E+03  0.15387715071E+03  0.39415491258E+03  0.00000000000E+00 0.  1.
         22    1    1    2    0    0 -0.18715972014E+04 -0.55210871544E+03 -0.27046550380E+04  0.33350950500E+04  0.00000000000E+00 0.  1.
<mgrwt>
<rscale>  0 0.50632585E+04</rscale>
<asrwt>0</asrwt>
<pdfrwt beam="1">  1        1 0.56787995E+00 0.50632585E+04</pdfrwt>
<pdfrwt beam="2">  1       -1 0.26712649E+00 0.50632585E+04</pdfrwt>
<totfact> 0.67839857E-03</totfact>
</mgrwt>
</event>
<event>
 6    1  0.9364335E-007  0.1665640E+04  0.7818608E-02  0.8781208E-01
         -2   -1    0    0    0  501 -0.00000000000E+00  0.00000000000E+00  0.56202838808E+03  0.56202838808E+03  0.00000000000E+00 0.  1.
          2   -1    0    0  501    0  0.00000000000E+00 -0.00000000000E+00 -0.12340813319E+04  0.12340813319E+04  0.00000000000E+00 0. -1.
         23    2    1    2    0    0 -0.54204328445E+03 -0.45754535500E+03 -0.80193133678E+03  0.10749806947E+04  0.96596847338E+02 0.  0.
         13    1    3    3    0    0 -0.36869510123E+03 -0.36656967630E+03 -0.57113281362E+03  0.77233548154E+03  0.00000000000E+00 0.  1.
        -13    1    3    3    0    0 -0.17334818322E+03 -0.90975678702E+02 -0.23079852316E+03  0.30264521314E+03  0.00000000000E+00 0. -1.
         22    1    1    2    0    0  0.54204328445E+03  0.45754535500E+03  0.12987839301E+03  0.72112902526E+03  0.00000000000E+00 0. -1.
<mgrwt>
<rscale>  0 0.16656395E+04</rscale>
<asrwt>0</asrwt>
<pdfrwt beam="1">  1        2 0.18985866E+00 0.16656395E+04</pdfrwt>
<pdfrwt beam="2">  1       -2 0.86465907E-01 0.16656395E+04</pdfrwt>
<totfact> 0.19986648E+01</totfact>
</mgrwt>
</event>
<event>
 6    1  0.9364335E-007  0.1177015E+04  0.7818608E-02  0.9133217E-01
          2   -1    0    0  501    0  0.00000000000E+00  0.00000000000E+00  0.83804791223E+03  0.83804791223E+03  0.00000000000E+00 0. -1.
         -2   -1    0    0    0  501 -0.00000000000E+00 -0.00000000000E+00 -0.41327123029E+03  0.41327123029E+03  0.00000000000E+00 0.  1.
         23    2    1    2    0    0  0.37047946484E+03 -0.45541988990E+03  0.19790616791E+03  0.62192853238E+03  0.54460426992E+02 0.  0.
         13    1    3    3    0    0  0.23517129941E+03 -0.29775855948E+03  0.10078049197E+03  0.39258426786E+03  0.00000000000E+00 0.  1.
        -13    1    3    3    0    0  0.13530816543E+03 -0.15766133042E+03  0.97125675940E+02  0.22934426452E+03  0.00000000000E+00 0. -1.
         22    1    1    2    0    0 -0.37047946484E+03  0.45541988990E+03  0.22687051402E+03  0.62939061013E+03  0.00000000000E+00 0.  1.
<mgrwt>
<rscale>  0 0.11770150E+04</rscale>
<asrwt>0</asrwt>
<pdfrwt beam="1">  1        2 0.12893045E+00 0.11770150E+04</pdfrwt>
<pdfrwt beam="2">  1       -2 0.63580190E-01 0.11770150E+04</pdfrwt>
<totfact> 0.73223683E+01</totfact>
</mgrwt>
</event>
<event>
 6    1  0.9364335E-007  0.4167112E+04  0.7818608E-02  0.7971658E-01
         -1   -1    0    0    0  501 -0.00000000000E+00  0.00000000000E+00  0.19885575133E+04  0.19885575133E+04  0.00000000000E+00 0.  1.
          1   -1    0    0  501    0  0.00000000000E+00 -0.00000000000E+00 -0.21830927236E+04  0.21830927236E+04  0.00000000000E+00 0. -1.
         23    2    1    2    0    0  0.37675998348E+03  0.19948944934E+04  0.36716874497E+03  0.20652164121E+04  0.93561832049E+02 0.  0.
         13    1    3    3    0    0  0.24236585083E+02  0.24202499490E+03  0.21912779970E+02  0.24422055634E+03  0.00000000000E+00 0. -1.
        -13    1    3    3    0    0  0.35252339840E+03  0.17528694985E+04  0.34525596500E+03  0.18209958558E+04  0.00000000000E+00 0.  1.
         22    1    1    2    0    0 -0.37675998348E+03 -0.19948944934E+04 -0.56170395528E+03  0.21064338248E+04  0.00000000000E+00 0. -1.
<mgrwt>
<rscale>  0 0.41671119E+04</rscale>
<asrwt>0</asrwt>
<pdfrwt beam="1">  1        1 0.33586042E+00 0.41671119E+04</pdfrwt>
<pdfrwt beam="2">  1       -1 0.30593192E+00 0.41671119E+04</pdfrwt>
<totfact> 0.52200591E-02</totfact>
</mgrwt>
</event>
<event>
 6    1  0.9364335E-007  0.3121063E+04  0.7818608E-02  0.8209981E-01
          2   -1    0    0  501    0  0.00000000000E+00  0.00000000000E+00  0.35558298478E+04  0.35558298478E+04  0.00000000000E+00 0. -1.
         -2   -1    0    0    0  501 -0.00000000000E+00 -0.00000000000E+00 -0.68486370818E+03  0.68486370818E+03  0.00000000000E+00 0.  1.
         23    2    1    2    0    0  0.14725786470E+04  0.37067726974E+03  0.95586212052E+03  0.17966164472E+04  0.90932695354E+02 0.  0.
         13    1    3    3    0    0  0.12731179080E+04  0.35136618272E+03  0.82200341158E+03  0.15556275295E+04  0.00000000000E+00 0. -1.
        -13    1    3    3    0    0  0.19946073895E+03  0.19311087016E+02  0.13385870894E+03  0.24098891764E+03  0.00000000000E+00 0.  1.
         22    1    1    2    0    0 -0.14725786470E+04 -0.37067726974E+03  0.19151040191E+04  0.24440771088E+04  0.00000000000E+00 0. -1.
<mgrwt>
<rscale>  0 0.31210632E+04</rscale>
<asrwt>0</asrwt>
<pdfrwt beam="1">  1        2 0.54705073E+00 0.31210632E+04</pdfrwt>
<pdfrwt beam="2">  1       -2 0.10536365E+00 0.31210632E+04</pdfrwt>
<totfact> 0.45822124E-01</totfact>
</mgrwt>
</event>
<event>
 6    1  0.9364335E-007  0.4646836E+04  0.7818608E-02  0.7885423E-01
          2   -1    0    0  501    0  0.00000000000E+00  0.00000000000E+00  0.41087843860E+04  0.41087843860E+04  0.00000000000E+00 0. -1.
         -2   -1    0    0    0  501 -0.00000000000E+00 -0.00000000000E+00 -0.13138364500E+04  0.13138364500E+04  0.00000000000E+00 0.  1.
         23    2    1    2    0    0  0.64030281477E+01 -0.21640476696E+04  0.23819827884E+04  0.32195131383E+04  0.90991912823E+02 0.  0.
         11    1    3    3    0    0  0.51602778280E+01 -0.13768308480E+04  0.14498668512E+04  0.19994508493E+04  0.00000000000E+00 0.  1.
        -11    1    3    3    0    0  0.12427503197E+01 -0.78721682157E+03  0.93211593721E+03  0.12200622890E+04  0.00000000000E+00 0. -1.
         22    1    1    2    0    0 -0.64030281477E+01  0.21640476696E+04  0.41296514763E+03  0.22031076978E+04  0.00000000000E+00 0. -1.
<mgrwt>
<rscale>  0 0.46468358E+04</rscale>
<asrwt>0</asrwt>
<pdfrwt beam="1">  1        2 0.63212067E+00 0.46468358E+04</pdfrwt>
<pdfrwt beam="2">  1       -2 0.20212869E+00 0.46468358E+04</pdfrwt>
<totfact> 0.26694617E-02</totfact>
</mgrwt>
</event>
<event>
 6    1  0.9364335E-007  0.1503423E+04  0.7818608E-02  0.8882180E-01
          1   -1    0    0  501    0  0.00000000000E+00  0.00000000000E+00  0.24841359661E+04  0.24841359661E+04  0.00000000000E+00 0. -1.
         -1   -1    0    0    0  501 -0.00000000000E+00 -0.00000000000E+00 -0.22747139963E+03  0.22747139963E+03  0.00000000000E+00 0.  1.
         23    2    1    2    0    0 -0.45001226496E+03 -0.34301799047E+03  0.24814833695E+03  0.62490905868E+03  0.93602105169E+02 0.  0.
         13    1    3    3    0    0 -0.12218204565E+03 -0.58541408321E+02  0.28501813043E+02  0.13844819289E+03  0.00000000000E+00 0.  1.
        -13    1    3    3    0    0 -0.32783021931E+03 -0.28447658215E+03  0.21964652391E+03  0.48646086579E+03  0.00000000000E+00 0. -1.
         22    1    1    2    0    0  0.45001226496E+03  0.34301799047E+03  0.20085162295E+04  0.20866983071E+04  0.00000000000E+00 0. -1.
<mgrwt>
<rscale>  0 0.15034226E+04</rscale>
<asrwt>0</asrwt>
<pdfrwt beam="1">  1        1 0.38217475E+00 0.15034226E+04</pdfrwt>
<pdfrwt beam="2">  1       -1 0.34995602E-01 0.15034226E+04</pdfrwt>
<totfact> 0.10456268E+01</totfact>
</mgrwt>
</event>
<event>
 6    1  0.1212881E-006  0.3047164E+04  0.7818608E-02  0.8230390E-01
          1   -1    0    0  501    0  0.00000000000E+00  0.00000000000E+00  0.11586270802E+04  0.11586270802E+04  0.00000000000E+00 0. -1.
         -1   -1    0    0    0  501 -0.00000000000E+00 -0.00000000000E+00 -0.20034931370E+04  0.20034931370E+04  0.00000000000E+00 0.  1.
         23    2    1    2    0    0 -0.80307137787E+03 -0.12822903031E+04 -0.24950240735E+03  0.15361897345E+04  0.91844377843E+02 0.  0.
         11    1    3    3    0    0 -0.42786346506E+03 -0.73486904283E+03 -0.17697727960E+03  0.86857389573E+03  0.00000000000E+00 0. -1.
        -11    1    3    3    0    0 -0.37520791281E+03 -0.54742126028E+03 -0.72525127754E+02  0.66761583879E+03  0.00000000000E+00 0.  1.
         22    1    1    2    0    0  0.80307137787E+03  0.12822903031E+04 -0.59536364940E+03  0.16259304827E+04  0.00000000000E+00 0.  1.
<mgrwt>
<rscale>  0 0.30471635E+04</rscale>
<asrwt>0</asrwt>
<pdfrwt beam="1">  1        1 0.17825032E+00 0.30471635E+04</pdfrwt>
<pdfrwt beam="2">  1       -1 0.30822971E+00 0.30471635E+04</pdfrwt>
<totfact> 0.28366504E-01</totfact>
</mgrwt>
</event>
<event>
 6    1  0.9364335E-007  0.2737259E+04  0.7818608E-02  0.8323016E-01
          1   -1    0    0  501    0  0.00000000000E+00  0.00000000000E+00  0.24543682697E+04  0.24543682697E+04  0.00000000000E+00 0. -1.
         -1   -1    0    0    0  501 -0.00000000000E+00 -0.00000000000E+00 -0.76318901231E+03  0.76318901231E+03  0.00000000000E+00 0.  1.
         23    2    1    2    0    0 -0.83952496422E+02  0.13471415879E+04  0.59125024167E+03  0.14763845970E+04  0.91083206787E+02 0.  0.
         11    1    3    3    0    0 -0.15508706316E+02  0.88200712206E+03  0.40544980804E+03  0.97085870762E+03  0.00000000000E+00 0.  1.
        -11    1    3    3    0    0 -0.68443790107E+02  0.46513446580E+03  0.18580043363E+03  0.50552588937E+03  0.00000000000E+00 0. -1.
         22    1    1    2    0    0  0.83952496422E+02 -0.13471415879E+04  0.10999290157E+04  0.17411726850E+04  0.00000000000E+00 0. -1.
<mgrwt>
<rscale>  0 0.27372591E+04</rscale>
<asrwt>0</asrwt>
<pdfrwt beam="1">  1        1 0.37759511E+00 0.27372591E+04</pdfrwt>
<pdfrwt beam="2">  1       -1 0.11741370E+00 0.27372591E+04</pdfrwt>
<totfact> 0.82764506E-01</totfact>
</mgrwt>
</event>
<event>
 6    1  0.9364335E-007  0.3848312E+04  0.7818608E-02  0.8035866E-01
          2   -1    0    0  501    0  0.00000000000E+00  0.00000000000E+00  0.15527599591E+04  0.15527599591E+04  0.00000000000E+00 0. -1.
         -2   -1    0    0    0  501 -0.00000000000E+00 -0.00000000000E+00 -0.23843841772E+04  0.23843841772E+04  0.00000000000E+00 0.  1.
         23    2    1    2    0    0 -0.10234103473E+04 -0.53260520415E+03  0.11580345857E+04  0.16371921372E+04  0.91197313942E+02 0.  0.
         13    1    3    3    0    0 -0.34146997597E+02 -0.19491742938E+02  0.19011089378E+02  0.43673413045E+02  0.00000000000E+00 0. -1.
        -13    1    3    3    0    0 -0.98926334969E+03 -0.51311346122E+03  0.11390234963E+04  0.15935187242E+04  0.00000000000E+00 0.  1.
         22    1    1    2    0    0  0.10234103473E+04  0.53260520415E+03 -0.19896588038E+04  0.22999519991E+04  0.00000000000E+00 0.  1.
<mgrwt>
<rscale>  0 0.38483120E+04</rscale>
<asrwt>0</asrwt>
<pdfrwt beam="1">  1        2 0.23888615E+00 0.38483120E+04</pdfrwt>
<pdfrwt beam="2">  1       -2 0.36682833E+00 0.38483120E+04</pdfrwt>
<totfact> 0.11511499E-01</totfact>
</mgrwt>
</event>
<event>
 6    1  0.9364335E-007  0.3176613E+04  0.7818608E-02  0.8195021E-01
          2   -1    0    0  501    0  0.00000000000E+00  0.00000000000E+00  0.23528300623E+04  0.23528300623E+04  0.00000000000E+00 0. -1.
         -2   -1    0    0    0  501 -0.00000000000E+00 -0.00000000000E+00 -0.10722058636E+04  0.10722058636E+04  0.00000000000E+00 0.  1.
         23    2    1    2    0    0  0.10263141033E+03 -0.14276153016E+04  0.13805211329E+04  0.19902543909E+04  0.81579939690E+02 0.  0.
         13    1    3    3    0    0  0.20473606723E+02 -0.62281104131E+03  0.64582542062E+03  0.89744260857E+03  0.00000000000E+00 0. -1.
        -13    1    3    3    0    0  0.82157803605E+02 -0.80480426028E+03  0.73469571228E+03  0.10928117824E+04  0.00000000000E+00 0.  1.
         22    1    1    2    0    0 -0.10263141033E+03  0.14276153016E+04 -0.99896934162E+02  0.14347815350E+04  0.00000000000E+00 0.  1.
<mgrwt>
<rscale>  0 0.31766134E+04</rscale>
<asrwt>0</asrwt>
<pdfrwt beam="1">  1        2 0.36197386E+00 0.31766134E+04</pdfrwt>
<pdfrwt beam="2">  1       -2 0.16495475E+00 0.31766134E+04</pdfrwt>
<totfact> 0.82685384E-01</totfact>
</mgrwt>
</event>
<event>
 6    1  0.9364335E-007  0.2955220E+04  0.7818608E-02  0.8256635E-01
         -1   -1    0    0    0  501 -0.00000000000E+00  0.00000000000E+00  0.81939227793E+03  0.81939227793E+03  0.00000000000E+00 0.  1.
          1   -1    0    0  501    0  0.00000000000E+00 -0.00000000000E+00 -0.26645747900E+04  0.26645747900E+04  0.00000000000E+00 0. -1.
         23    2    1    2    0    0 -0.79210486519E+03 -0.56855566802E+03 -0.22301606363E+04  0.24356857024E+04  0.90899459826E+02 0.  0.
         11    1    3    3    0    0 -0.38540778457E+03 -0.24821334741E+03 -0.11449123347E+04  0.12332774548E+04  0.00000000000E+00 0. -1.
        -11    1    3    3    0    0 -0.40669708063E+03 -0.32034232061E+03 -0.10852483016E+04  0.12024082476E+04  0.00000000000E+00 0.  1.
         22    1    1    2    0    0  0.79210486519E+03  0.56855566802E+03  0.38497812430E+03  0.10482813655E+04  0.00000000000E+00 0.  1.
<mgrwt>
<rscale>  0 0.29552205E+04</rscale>
<asrwt>0</asrwt>
<pdfrwt beam="1">  1        1 0.40993458E+00 0.29552205E+04</pdfrwt>
<pdfrwt beam="2">  1       -1 0.12606035E+00 0.29552205E+04</pdfrwt>
<totfact> 0.48635159E-01</totfact>
</mgrwt>
</event>
<event>
 6    1  0.9364335E-007  0.1756706E+04  0.7818608E-02  0.8729668E-01
          1   -1    0    0  501    0  0.00000000000E+00  0.00000000000E+00  0.16120987082E+04  0.16120987082E+04  0.00000000000E+00 0. -1.
         -1   -1    0    0    0  501 -0.00000000000E+00 -0.00000000000E+00 -0.47857093548E+03  0.47857093548E+03  0.00000000000E+00 0.  1.
         23    2    1    2    0    0 -0.38341580481E+03 -0.43684058437E+03  0.13482174365E+04  0.14710495768E+04  0.91974049560E+02 0.  0.
         11    1    3    3    0    0 -0.73264275063E+02 -0.92369666557E+02  0.37478762734E+03  0.39289384687E+03  0.00000000000E+00 0. -1.
        -11    1    3    3    0    0 -0.31015152975E+03 -0.34447091782E+03  0.97342980916E+03  0.10781557299E+04  0.00000000000E+00 0.  1.
         22    1    1    2    0    0  0.38341580481E+03  0.43684058437E+03 -0.21468966379E+03  0.61962006687E+03  0.00000000000E+00 0.  1.
<mgrwt>
<rscale>  0 0.17567055E+04</rscale>
<asrwt>0</asrwt>
<pdfrwt beam="1">  1        1 0.24801518E+00 0.17567055E+04</pdfrwt>
<pdfrwt beam="2">  1       -1 0.73626299E-01 0.17567055E+04</pdfrwt>
<totfact> 0.96342034E+00</totfact>
</mgrwt>
</event>
<event>
 6    1  0.9364335E-007  0.2319836E+04  0.7818608E-02  0.8470141E-01
         -1   -1    0    0    0  501 -0.00000000000E+00  0.00000000000E+00  0.11735864846E+04  0.11735864846E+04  0.00000000000E+00 0.  1.
          1   -1    0    0  501    0  0.00000000000E+00 -0.00000000000E+00 -0.11464082971E+04  0.11464082971E+04  0.00000000000E+00 0. -1.
         23    2    1    2    0    0 -0.81954425471E+03  0.72327614648E+03 -0.36876546577E+03  0.11574318604E+04  0.94230426602E+02 0.  0.
         13    1    3    3    0    0 -0.77163047407E+02  0.10598911882E+03 -0.32640129369E+02  0.13510443086E+03  0.00000000000E+00 0. -1.
        -13    1    3    3    0    0 -0.74238120730E+03  0.61728702766E+03 -0.33612533640E+03  0.10223274296E+04  0.00000000000E+00 0.  1.
         22    1    1    2    0    0  0.81954425471E+03 -0.72327614648E+03  0.39594365327E+03  0.11625629213E+04  0.00000000000E+00 0. -1.
<mgrwt>
<rscale>  0 0.23198356E+04</rscale>
<asrwt>0</asrwt>
<pdfrwt beam="1">  1        1 0.17637051E+00 0.23198356E+04</pdfrwt>
<pdfrwt beam="2">  1       -1 0.18055177E+00 0.23198356E+04</pdfrwt>
<totfact> 0.21779794E+00</totfact>
</mgrwt>
</event>
<event>
 6    1  0.9364335E-007  0.3079084E+04  0.7818608E-02  0.8221502E-01
         -1   -1    0    0    0  501 -0.00000000000E+00  0.00000000000E+00  0.21116226001E+04  0.21116226001E+04  0.00000000000E+00 0.  1.
          1   -1    0    0  501    0  0.00000000000E+00 -0.00000000000E+00 -0.11224491205E+04  0.11224491205E+04  0.00000000000E+00 0. -1.
         23    2    1    2    0    0  0.11528697918E+04 -0.10182502584E+04  0.49192546176E+03  0.16175328449E+04  0.92084193891E+02 0.  0.
         11    1    3    3    0    0  0.27877917556E+03 -0.19826643031E+03  0.12301051895E+03  0.36353678477E+03  0.00000000000E+00 0.  1.
        -11    1    3    3    0    0  0.87409061625E+03 -0.81998382809E+03  0.36891494281E+03  0.12539960601E+04  0.00000000000E+00 0. -1.
         22    1    1    2    0    0 -0.11528697918E+04  0.10182502584E+04  0.49724801786E+03  0.16165388758E+04  0.00000000000E+00 0.  1.
<mgrwt>
<rscale>  0 0.30790836E+04</rscale>
<asrwt>0</asrwt>
<pdfrwt beam="1">  1        1 0.17268448E+00 0.30790836E+04</pdfrwt>
<pdfrwt beam="2">  1       -1 0.32486501E+00 0.30790836E+04</pdfrwt>
<totfact> 0.23445766E-01</totfact>
</mgrwt>
</event>
<event>
 6    1  0.9364335E-007  0.2301277E+04  0.7818608E-02  0.8477418E-01
         -1   -1    0    0    0  501 -0.00000000000E+00  0.00000000000E+00  0.77382739592E+03  0.77382739592E+03  0.00000000000E+00 0.  1.
          1   -1    0    0  501    0  0.00000000000E+00 -0.00000000000E+00 -0.17109356729E+04  0.17109356729E+04  0.00000000000E+00 0. -1.
         23    2    1    2    0    0 -0.43934245505E+03 -0.27359528892E+02 -0.16151233815E+04  0.16763851754E+04  0.88732080868E+02 0.  0.
         13    1    3    3    0    0 -0.18639107282E+03 -0.21332741899E+02 -0.85192449246E+03  0.87233712449E+03  0.00000000000E+00 0. -1.
        -13    1    3    3    0    0 -0.25295138223E+03 -0.60267869928E+01 -0.76319888906E+03  0.80404805093E+03  0.00000000000E+00 0.  1.
         22    1    1    2    0    0  0.43934245505E+03  0.27359528892E+02  0.67801510452E+03  0.80837789343E+03  0.00000000000E+00 0.  1.
<mgrwt>
<rscale>  0 0.23012769E+04</rscale>
<asrwt>0</asrwt>
<pdfrwt beam="1">  1        1 0.26322087E+00 0.23012769E+04</pdfrwt>
<pdfrwt beam="2">  1       -1 0.11905037E+00 0.23012769E+04</pdfrwt>
<totfact> 0.26725539E+00</totfact>
</mgrwt>
</event>
<event>
 6    1  0.9364335E-007  0.3943748E+04  0.7818608E-02  0.8015991E-01
         -2   -1    0    0    0  501 -0.00000000000E+00  0.00000000000E+00  0.86677745261E+03  0.86677745261E+03  0.00000000000E+00 0.  1.
          2   -1    0    0  501    0  0.00000000000E+00 -0.00000000000E+00 -0.44859124480E+04  0.44859124480E+04  0.00000000000E+00 0. -1.
         23    2    1    2    0    0 -0.14533219597E+04 -0.29540180384E+03 -0.49256992272E+02  0.14870158454E+04  0.96865519597E+02 0.  0.
         11    1    3    3    0    0 -0.13163465503E+03 -0.55049151442E+02  0.15755859431E+01  0.14269048304E+03  0.00000000000E+00 0. -1.
        -11    1    3    3    0    0 -0.13216873046E+04 -0.24035265240E+03 -0.50832578216E+02  0.13443253623E+04  0.00000000000E+00 0.  1.
         22    1    1    2    0    0  0.14533219597E+04  0.29540180384E+03 -0.35698780031E+04  0.38656740552E+04  0.00000000000E+00 0. -1.
<mgrwt>
<rscale>  0 0.39437484E+04</rscale>
<asrwt>0</asrwt>
<pdfrwt beam="1">  1        2 0.69014038E+00 0.39437484E+04</pdfrwt>
<pdfrwt beam="2">  1       -2 0.13335038E+00 0.39437484E+04</pdfrwt>
<totfact> 0.40704010E-02</totfact>
</mgrwt>
</event>
<event>
 6    1  0.9364336E-007  0.3119574E+04  0.7818608E-02  0.8210386E-01
          1   -1    0    0  501    0  0.00000000000E+00  0.00000000000E+00  0.11430292741E+04  0.11430292741E+04  0.00000000000E+00 0. -1.
         -1   -1    0    0    0  501 -0.00000000000E+00 -0.00000000000E+00 -0.21284982538E+04  0.21284982538E+04  0.00000000000E+00 0.  1.
         23    2    1    2    0    0 -0.72016311578E+03  0.13736490285E+04 -0.65302767565E+03  0.16853170162E+04  0.91113846792E+02 0.  0.
         13    1    3    3    0    0 -0.30021920200E+03  0.48109389938E+03 -0.22667452536E+03  0.61070799054E+03  0.00000000000E+00 0. -1.
        -13    1    3    3    0    0 -0.41994391378E+03  0.89255512915E+03 -0.42635315029E+03  0.10746090257E+04  0.00000000000E+00 0.  1.
         22    1    1    2    0    0  0.72016311578E+03 -0.13736490285E+04 -0.33244130404E+03  0.15862105117E+04  0.00000000000E+00 0. -1.
<mgrwt>
<rscale>  0 0.31195742E+04</rscale>
<asrwt>0</asrwt>
<pdfrwt beam="1">  1        1 0.17585066E+00 0.31195742E+04</pdfrwt>
<pdfrwt beam="2">  1       -1 0.32746126E+00 0.31195742E+04</pdfrwt>
<totfact> 0.21686565E-01</totfact>
</mgrwt>
</event>
<event>
 6    1  0.9364335E-007  0.3312237E+04  0.7818608E-02  0.8159789E-01
         -1   -1    0    0    0  501 -0.00000000000E+00  0.00000000000E+00  0.11703335228E+04  0.11703335228E+04  0.00000000000E+00 0.  1.
          1   -1    0    0  501    0  0.00000000000E+00 -0.00000000000E+00 -0.23435442776E+04  0.23435442776E+04  0.00000000000E+00 0. -1.
         23    2    1    2    0    0  0.58248695838E+03  0.34614251279E+03 -0.21887729139E+04  0.22930288356E+04  0.90270017990E+02 0.  0.
         11    1    3    3    0    0  0.33606430974E+03  0.18912694526E+03 -0.13895658101E+04  0.14420823008E+04  0.00000000000E+00 0. -1.
        -11    1    3    3    0    0  0.24642264864E+03  0.15701556752E+03 -0.79920710386E+03  0.85094653479E+03  0.00000000000E+00 0.  1.
         22    1    1    2    0    0 -0.58248695838E+03 -0.34614251279E+03  0.10155621591E+04  0.12208489648E+04  0.00000000000E+00 0.  1.
<mgrwt>
<rscale>  0 0.33122370E+04</rscale>
<asrwt>0</asrwt>
<pdfrwt beam="1">  1        1 0.36054527E+00 0.33122370E+04</pdfrwt>
<pdfrwt beam="2">  1       -1 0.18005131E+00 0.33122370E+04</pdfrwt>
<totfact> 0.29936635E-01</totfact>
</mgrwt>
</event>
<event>
 6    1  0.9364335E-007  0.2609032E+04  0.7818608E-02  0.8365140E-01
          2   -1    0    0  501    0  0.00000000000E+00  0.00000000000E+00  0.14866674365E+04  0.14866674365E+04  0.00000000000E+00 0. -1.
         -2   -1    0    0    0  501 -0.00000000000E+00 -0.00000000000E+00 -0.11446827167E+04  0.11446827167E+04  0.00000000000E+00 0.  1.
         23    2    1    2    0    0  0.93363531136E+03 -0.59927081032E+03 -0.51790962198E+03  0.12277053699E+04  0.90717694032E+02 0.  0.
         13    1    3    3    0    0  0.36648694322E+03 -0.20554065708E+03 -0.15628930294E+03  0.44831460770E+03  0.00000000000E+00 0. -1.
        -13    1    3    3    0    0  0.56714836815E+03 -0.39373015324E+03 -0.36162031904E+03  0.77939076220E+03  0.00000000000E+00 0.  1.
         22    1    1    2    0    0 -0.93363531136E+03  0.59927081032E+03  0.85989434172E+03  0.14036447833E+04  0.00000000000E+00 0. -1.
<mgrwt>
<rscale>  0 0.26090324E+04</rscale>
<asrwt>0</asrwt>
<pdfrwt beam="1">  1        2 0.22871807E+00 0.26090324E+04</pdfrwt>
<pdfrwt beam="2">  1       -2 0.17610503E+00 0.26090324E+04</pdfrwt>
<totfact> 0.22037679E+00</totfact>
</mgrwt>
</event>
<event>
 6    1  0.9364335E-007  0.1267164E+04  0.7818608E-02  0.9056018E-01
         -2   -1    0    0    0  501 -0.00000000000E+00  0.00000000000E+00  0.16725837876E+03  0.16725837876E+03  0.00000000000E+00 0.  1.
          2   -1    0    0  501    0  0.00000000000E+00 -0.00000000000E+00 -0.24000344469E+04  0.24000344469E+04  0.00000000000E+00 0. -1.
         23    2    1    2    0    0  0.37528026316E+03 -0.73042486376E+02 -0.10312503728E+03  0.40359599062E+03  0.78003010177E+02 0.  0.
         11    1    3    3    0    0  0.20079146683E+03 -0.74429576855E+02 -0.74725000952E+02  0.22680564550E+03  0.00000000000E+00 0.  1.
        -11    1    3    3    0    0  0.17448879633E+03  0.13870904785E+01 -0.28400036325E+02  0.17679034512E+03  0.00000000000E+00 0. -1.
         22    1    1    2    0    0 -0.37528026316E+03  0.73042486376E+02 -0.21296510309E+04  0.21636968351E+04  0.00000000000E+00 0. -1.
<mgrwt>
<rscale>  0 0.12671636E+04</rscale>
<asrwt>0</asrwt>
<pdfrwt beam="1">  1        2 0.36923607E+00 0.12671636E+04</pdfrwt>
<pdfrwt beam="2">  1       -2 0.25732058E-01 0.12671636E+04</pdfrwt>
<totfact> 0.53378946E+01</totfact>
</mgrwt>
</event>
<event>
 6    1  0.9364335E-007  0.1658350E+04  0.7818608E-02  0.8785482E-01
         -2   -1    0    0    0  501 -0.00000000000E+00  0.00000000000E+00  0.29977366980E+03  0.29977366980E+03  0.00000000000E+00 0.  1.
          2   -1    0    0  501    0  0.00000000000E+00 -0.00000000000E+00 -0.22935015478E+04  0.22935015478E+04  0.00000000000E+00 0. -1.
         23    2    1    2    0    0  0.73254879201E+03 -0.32084732480E+03 -0.66971693854E+03  0.10464799156E+04  0.83837327348E+02 0.  0.
         11    1    3    3    0    0  0.18998494097E+03 -0.78677654639E+02 -0.22139009759E+03  0.30215563283E+03  0.00000000000E+00 0. -1.
        -11    1    3    3    0    0  0.54256385103E+03 -0.24216967016E+03 -0.44832684095E+03  0.74432428276E+03  0.00000000000E+00 0.  1.
         22    1    1    2    0    0 -0.73254879201E+03  0.32084732480E+03 -0.13240109394E+04  0.15467953020E+04  0.00000000000E+00 0. -1.
<mgrwt>
<rscale>  0 0.16583502E+04</rscale>
<asrwt>0</asrwt>
<pdfrwt beam="1">  1        2 0.35284639E+00 0.16583502E+04</pdfrwt>
<pdfrwt beam="2">  1       -2 0.46119027E-01 0.16583502E+04</pdfrwt>
<totfact> 0.19476064E+01</totfact>
</mgrwt>
</event>
<event>
 6    1  0.9364335E-007  0.1615165E+04  0.7818608E-02  0.8811285E-01
         -4   -1    0    0    0  501 -0.00000000000E+00  0.00000000000E+00  0.48894678490E+03  0.48894678490E+03  0.00000000000E+00 0.  1.
          4   -1    0    0  501    0  0.00000000000E+00 -0.00000000000E+00 -0.13338664020E+04  0.13338664020E+04  0.00000000000E+00 0. -1.
         23    2    1    2    0    0  0.67270018859E+03 -0.37236568220E+03 -0.69294354191E+03  0.10390539940E+04  0.90998380341E+02 0.  0.
         11    1    3    3    0    0  0.37335789251E+03 -0.17342628116E+03 -0.41653372065E+03  0.58563907941E+03  0.00000000000E+00 0. -1.
        -11    1    3    3    0    0  0.29934229607E+03 -0.19893940104E+03 -0.27640982126E+03  0.45341491461E+03  0.00000000000E+00 0.  1.
         22    1    1    2    0    0 -0.67270018859E+03  0.37236568220E+03 -0.15197607521E+03  0.78375919290E+03  0.00000000000E+00 0.  1.
<mgrwt>
<rscale>  0 0.16151652E+04</rscale>
<asrwt>0</asrwt>
<pdfrwt beam="1">  1        4 0.20521021E+00 0.16151652E+04</pdfrwt>
<pdfrwt beam="2">  1       -4 0.75222583E-01 0.16151652E+04</pdfrwt>
<totfact> 0.37157997E-01</totfact>
</mgrwt>
</event>
<event>
 6    1  0.9364335E-007  0.1243640E+04  0.7818608E-02  0.9075493E-01
          2   -1    0    0  501    0  0.00000000000E+00  0.00000000000E+00  0.98065392322E+03  0.98065392322E+03  0.00000000000E+00 0. -1.
         -2   -1    0    0    0  501 -0.00000000000E+00 -0.00000000000E+00 -0.39428809519E+03  0.39428809519E+03  0.00000000000E+00 0.  1.
         23    2    1    2    0    0 -0.13272201027E+03  0.50667643610E+03 -0.68619981300E+02  0.53628681313E+03  0.92513248744E+02 0.  0.
         11    1    3    3    0    0 -0.11060510062E+03  0.28828328340E+03 -0.93450784688E+01  0.30891434130E+03  0.00000000000E+00 0.  1.
        -11    1    3    3    0    0 -0.22116909652E+02  0.21839315270E+03 -0.59274902831E+02  0.22737247182E+03  0.00000000000E+00 0. -1.
         22    1    1    2    0    0  0.13272201027E+03 -0.50667643610E+03  0.65498580933E+03  0.83865520527E+03  0.00000000000E+00 0. -1.
<mgrwt>
<rscale>  0 0.12436401E+04</rscale>
<asrwt>0</asrwt>
<pdfrwt beam="1">  1        2 0.15086983E+00 0.12436401E+04</pdfrwt>
<pdfrwt beam="2">  1       -2 0.60659707E-01 0.12436401E+04</pdfrwt>
<totfact> 0.64559146E+01</totfact>
</mgrwt>
</event>
<event>
 6    1  0.9364335E-007  0.1756400E+04  0.7818608E-02  0.8729836E-01
         -1   -1    0    0    0  501 -0.00000000000E+00  0.00000000000E+00  0.15527382586E+04  0.15527382586E+04  0.00000000000E+00 0.  1.
          1   -1    0    0  501    0  0.00000000000E+00 -0.00000000000E+00 -0.49669337744E+03  0.49669337744E+03  0.00000000000E+00 0. -1.
         23    2    1    2    0    0 -0.37894103265E+03  0.50120885343E+03 -0.18236819049E+03  0.66073672461E+03  0.92240128772E+02 0.  0.
         13    1    3    3    0    0 -0.19447595900E+03  0.27251705968E+03 -0.14392057251E+03  0.36441676366E+03  0.00000000000E+00 0. -1.
        -13    1    3    3    0    0 -0.18446507366E+03  0.22869179375E+03 -0.38447617983E+02  0.29631996095E+03  0.00000000000E+00 0.  1.
         22    1    1    2    0    0  0.37894103265E+03 -0.50120885343E+03  0.12384130717E+04  0.13886949114E+04  0.00000000000E+00 0.  1.
<mgrwt>
<rscale>  0 0.17563995E+04</rscale>
<asrwt>0</asrwt>
<pdfrwt beam="1">  1        1 0.76414367E-01 0.17563995E+04</pdfrwt>
<pdfrwt beam="2">  1       -1 0.23888281E+00 0.17563995E+04</pdfrwt>
<totfact> 0.34933530E+00</totfact>
</mgrwt>
</event>
<event>
 6    1  0.9364335E-007  0.3242978E+04  0.7818608E-02  0.8177558E-01
         -1   -1    0    0    0  501 -0.00000000000E+00  0.00000000000E+00  0.15652933497E+04  0.15652933497E+04  0.00000000000E+00 0.  1.
          1   -1    0    0  501    0  0.00000000000E+00 -0.00000000000E+00 -0.16797024496E+04  0.16797024496E+04  0.00000000000E+00 0. -1.
         23    2    1    2    0    0 -0.11803691155E+04  0.25240717387E+03  0.10241223516E+04  0.15857084535E+04  0.93081030190E+02 0.  0.
         13    1    3    3    0    0 -0.69554969439E+03  0.15749337015E+03  0.54559023140E+03  0.89792106535E+03  0.00000000000E+00 0. -1.
        -13    1    3    3    0    0 -0.48481942113E+03  0.94913803726E+02  0.47853212016E+03  0.68778738813E+03  0.00000000000E+00 0.  1.
         22    1    1    2    0    0  0.11803691155E+04 -0.25240717387E+03 -0.11385314514E+04  0.16592873459E+04  0.00000000000E+00 0. -1.
<mgrwt>
<rscale>  0 0.32429783E+04</rscale>
<asrwt>0</asrwt>
<pdfrwt beam="1">  1        1 0.25841576E+00 0.32429783E+04</pdfrwt>
<pdfrwt beam="2">  1       -1 0.24081436E+00 0.32429783E+04</pdfrwt>
<totfact> 0.32849002E-01</totfact>
</mgrwt>
</event>
<event>
 6    1  0.9364335E-007  0.1258422E+04  0.7818608E-02  0.9063203E-01
          1   -1    0    0  501    0  0.00000000000E+00  0.00000000000E+00  0.45889771815E+03  0.45889771815E+03  0.00000000000E+00 0. -1.
         -1   -1    0    0    0  501 -0.00000000000E+00 -0.00000000000E+00 -0.86273308095E+03  0.86273308095E+03  0.00000000000E+00 0.  1.
         23    2    1    2    0    0  0.42081343993E+03 -0.45691336286E+03 -0.12166249206E+03  0.63937329540E+03  0.90236780218E+02 0.  0.
         13    1    3    3    0    0  0.24948435412E+03 -0.21180721344E+03 -0.84672835689E+02  0.33804471260E+03  0.00000000000E+00 0.  1.
        -13    1    3    3    0    0  0.17132908581E+03 -0.24510614942E+03 -0.36989656376E+02  0.30132858279E+03  0.00000000000E+00 0. -1.
         22    1    1    2    0    0 -0.42081343993E+03  0.45691336286E+03 -0.28217287074E+03  0.68225750371E+03  0.00000000000E+00 0.  1.
<mgrwt>
<rscale>  0 0.12584216E+04</rscale>
<asrwt>0</asrwt>
<pdfrwt beam="1">  1        1 0.70599649E-01 0.12584216E+04</pdfrwt>
<pdfrwt beam="2">  1       -1 0.13272817E+00 0.12584216E+04</pdfrwt>
<totfact> 0.23645832E+01</totfact>
</mgrwt>
</event>
<event>
 6    1  0.9364335E-007  0.6024721E+04  0.7818608E-02  0.7687344E-01
          2   -1    0    0  501    0  0.00000000000E+00  0.00000000000E+00  0.31173901050E+04  0.31173901050E+04  0.00000000000E+00 0. -1.
         -2   -1    0    0    0  501 -0.00000000000E+00 -0.00000000000E+00 -0.29108696986E+04  0.29108696986E+04  0.00000000000E+00 0.  1.
         23    2    1    2    0    0 -0.23937744109E+04 -0.12073491683E+04  0.14765801645E+04  0.30616287626E+04  0.73713995445E+02 0.  0.
         11    1    3    3    0    0 -0.11984785782E+03 -0.61573443779E+02  0.56330636680E+02  0.14604088000E+03  0.00000000000E+00 0.  1.
        -11    1    3    3    0    0 -0.22739265531E+04 -0.11457757245E+04  0.14202495278E+04  0.29155878826E+04  0.00000000000E+00 0. -1.
         22    1    1    2    0    0  0.23937744109E+04  0.12073491683E+04 -0.12700597581E+04  0.29666310410E+04  0.00000000000E+00 0.  1.
<mgrwt>
<rscale>  0 0.60247212E+04</rscale>
<asrwt>0</asrwt>
<pdfrwt beam="1">  1        2 0.47959848E+00 0.60247212E+04</pdfrwt>
<pdfrwt beam="2">  1       -2 0.44782611E+00 0.60247212E+04</pdfrwt>
<totfact> 0.35490875E-03</totfact>
</mgrwt>
</event>
<event>
 6    1  0.9364335E-007  0.1448052E+04  0.7818608E-02  0.8919752E-01
          1   -1    0    0  501    0  0.00000000000E+00  0.00000000000E+00  0.13281884777E+04  0.13281884777E+04  0.00000000000E+00 0. -1.
         -1   -1    0    0    0  501 -0.00000000000E+00 -0.00000000000E+00 -0.39468315158E+03  0.39468315158E+03  0.00000000000E+00 0.  1.
         23    2    1    2    0    0 -0.50862401872E+03  0.80453132469E+01 -0.13950704755E+03  0.53538745105E+03  0.91729967574E+02 0.  0.
         13    1    3    3    0    0 -0.11667368883E+03 -0.24985272764E+02 -0.62069142009E+02  0.13449755355E+03  0.00000000000E+00 0.  1.
        -13    1    3    3    0    0 -0.39195032989E+03  0.33030586011E+02 -0.77437905542E+02  0.40088989751E+03  0.00000000000E+00 0. -1.
         22    1    1    2    0    0  0.50862401872E+03 -0.80453132469E+01  0.10730123737E+04  0.11874841782E+04  0.00000000000E+00 0. -1.
<mgrwt>
<rscale>  0 0.14480520E+04</rscale>
<asrwt>0</asrwt>
<pdfrwt beam="1">  1        1 0.20433669E+00 0.14480520E+04</pdfrwt>
<pdfrwt beam="2">  1       -1 0.60720486E-01 0.14480520E+04</pdfrwt>
<totfact> 0.23073271E+01</totfact>
</mgrwt>
</event>
<event>
 6    1  0.9364335E-007  0.2024808E+04  0.7818608E-02  0.8595109E-01
          1   -1    0    0  501    0  0.00000000000E+00  0.00000000000E+00  0.85745831266E+03  0.85745831266E+03  0.00000000000E+00 0. -1.
         -1   -1    0    0    0  501 -0.00000000000E+00 -0.00000000000E+00 -0.11953488927E+04  0.11953488927E+04  0.00000000000E+00 0.  1.
         23    2    1    2    0    0  0.71053866715E+03 -0.64061029336E+03 -0.49900062611E+03  0.10826509332E+04  0.88795680627E+02 0.  0.
         13    1    3    3    0    0  0.43654742764E+03 -0.39665390609E+03 -0.25856132610E+03  0.64402013722E+03  0.00000000000E+00 0. -1.
        -13    1    3    3    0    0  0.27399123951E+03 -0.24395638727E+03 -0.24043930001E+03  0.43863079600E+03  0.00000000000E+00 0.  1.
         22    1    1    2    0    0 -0.71053866715E+03  0.64061029336E+03  0.16111004603E+03  0.97015627216E+03  0.00000000000E+00 0.  1.
<mgrwt>
<rscale>  0 0.20248080E+04</rscale>
<asrwt>0</asrwt>
<pdfrwt beam="1">  1        1 0.13191666E+00 0.20248080E+04</pdfrwt>
<pdfrwt beam="2">  1       -1 0.18389983E+00 0.20248080E+04</pdfrwt>
<totfact> 0.35658649E+00</totfact>
</mgrwt>
</event>
<event>
 6    1  0.9364335E-007  0.8562510E+03  0.7818608E-02  0.9481985E-01
          1   -1    0    0  501    0  0.00000000000E+00  0.00000000000E+00  0.10884286375E+04  0.10884286375E+04  0.00000000000E+00 0. -1.
         -1   -1    0    0    0  501 -0.00000000000E+00 -0.00000000000E+00 -0.16840006988E+03  0.16840006988E+03  0.00000000000E+00 0.  1.
         23    2    1    2    0    0  0.98901077255E+02  0.17407192021E+03 -0.82429137684E+02  0.23457438119E+03  0.90266943463E+02 0.  0.
         11    1    3    3    0    0  0.27039880888E+02  0.94660469709E+02 -0.80966979502E+02  0.12746533432E+03  0.00000000000E+00 0.  1.
        -11    1    3    3    0    0  0.71861196367E+02  0.79411450505E+02 -0.14621581820E+01  0.10710904687E+03  0.00000000000E+00 0. -1.
         22    1    1    2    0    0 -0.98901077255E+02 -0.17407192021E+03  0.10024577053E+04  0.10222543262E+04  0.00000000000E+00 0. -1.
<mgrwt>
<rscale>  0 0.85625103E+03</rscale>
<asrwt>0</asrwt>
<pdfrwt beam="1">  1        1 0.16745056E+00 0.85625103E+03</pdfrwt>
<pdfrwt beam="2">  1       -1 0.25907704E-01 0.85625103E+03</pdfrwt>
<totfact> 0.17179422E+02</totfact>
</mgrwt>
</event>
<event>
 6    1  0.9364335E-007  0.1407872E+04  0.7818608E-02  0.8948140E-01
         -2   -1    0    0    0  501 -0.00000000000E+00  0.00000000000E+00  0.49881576093E+03  0.49881576093E+03  0.00000000000E+00 0.  1.
          2   -1    0    0  501    0  0.00000000000E+00 -0.00000000000E+00 -0.99340436553E+03  0.99340436553E+03  0.00000000000E+00 0. -1.
         23    2    1    2    0    0 -0.58305330521E+02 -0.33244609074E+03 -0.89960270505E+03  0.96500448141E+03  0.89603054577E+02 0.  0.
         11    1    3    3    0    0 -0.63625129824E+02 -0.14018998857E+03 -0.33879856858E+03  0.37213688357E+03  0.00000000000E+00 0. -1.
        -11    1    3    3    0    0  0.53197993030E+01 -0.19225610217E+03 -0.56080413647E+03  0.59286759784E+03  0.00000000000E+00 0.  1.
         22    1    1    2    0    0  0.58305330521E+02  0.33244609074E+03  0.40501410045E+03  0.52721564505E+03  0.00000000000E+00 0.  1.
<mgrwt>
<rscale>  0 0.14078718E+04</rscale>
<asrwt>0</asrwt>
<pdfrwt beam="1">  1        2 0.15283144E+00 0.14078718E+04</pdfrwt>
<pdfrwt beam="2">  1       -2 0.76740886E-01 0.14078718E+04</pdfrwt>
<totfact> 0.37553381E+01</totfact>
</mgrwt>
</event>
<event>
 6    1  0.9364335E-007  0.1186100E+04  0.7818608E-02  0.9125111E-01
          2   -1    0    0  501    0  0.00000000000E+00  0.00000000000E+00  0.69598370042E+03  0.69598370042E+03  0.00000000000E+00 0. -1.
         -2   -1    0    0    0  501 -0.00000000000E+00 -0.00000000000E+00 -0.50533943826E+03  0.50533943826E+03  0.00000000000E+00 0.  1.
         23    2    1    2    0    0  0.50718008789E+03 -0.15823689002E+03  0.35468728304E+03  0.64528297141E+03  0.91194788863E+02 0.  0.
         11    1    3    3    0    0  0.29115292353E+03 -0.12688860259E+03  0.24416368115E+03  0.40060784508E+03  0.00000000000E+00 0.  1.
        -11    1    3    3    0    0  0.21602716436E+03 -0.31348287433E+02  0.11052360190E+03  0.24467512633E+03  0.00000000000E+00 0. -1.
         22    1    1    2    0    0 -0.50718008789E+03  0.15823689002E+03 -0.16404302088E+03  0.55604016727E+03  0.00000000000E+00 0.  1.
<mgrwt>
<rscale>  0 0.11860995E+04</rscale>
<asrwt>0</asrwt>
<pdfrwt beam="1">  1        2 0.10707442E+00 0.11860995E+04</pdfrwt>
<pdfrwt beam="2">  1       -2 0.77744528E-01 0.11860995E+04</pdfrwt>
<totfact> 0.60112087E+01</totfact>
</mgrwt>
</event>
<event>
 6    1  0.9364335E-007  0.1935504E+04  0.7818608E-02  0.8637383E-01
         -1   -1    0    0    0  501 -0.00000000000E+00  0.00000000000E+00  0.88005349713E+03  0.88005349713E+03  0.00000000000E+00 0.  1.
          1   -1    0    0  501    0  0.00000000000E+00 -0.00000000000E+00 -0.10641896747E+04  0.10641896747E+04  0.00000000000E+00 0. -1.
         23    2    1    2    0    0  0.73353972908E+03 -0.61044340613E+03 -0.23957872166E+03  0.98831662553E+03  0.93005925613E+02 0.  0.
         13    1    3    3    0    0  0.25130822199E+03 -0.17571396444E+03 -0.11320089144E+03  0.32687254636E+03  0.00000000000E+00 0.  1.
        -13    1    3    3    0    0  0.48223150708E+03 -0.43472944169E+03 -0.12637783023E+03  0.66144407917E+03  0.00000000000E+00 0. -1.
         22    1    1    2    0    0 -0.73353972908E+03  0.61044340613E+03  0.55442544105E+02  0.95592654630E+03  0.00000000000E+00 0.  1.
<mgrwt>
<rscale>  0 0.19355039E+04</rscale>
<asrwt>0</asrwt>
<pdfrwt beam="1">  1        1 0.16372149E+00 0.19355039E+04</pdfrwt>
<pdfrwt beam="2">  1       -1 0.13539285E+00 0.19355039E+04</pdfrwt>
<totfact> 0.57570854E+00</totfact>
</mgrwt>
</event>
<event>
 6    1  0.9364335E-007  0.1493982E+04  0.7818608E-02  0.8888465E-01
         -1   -1    0    0    0  501 -0.00000000000E+00  0.00000000000E+00  0.42036595782E+03  0.42036595782E+03  0.00000000000E+00 0.  1.
          1   -1    0    0  501    0  0.00000000000E+00 -0.00000000000E+00 -0.13274038767E+04  0.13274038767E+04  0.00000000000E+00 0. -1.
         23    2    1    2    0    0  0.54687200939E+02  0.95608079759E+02 -0.13162424213E+04  0.13240011243E+04  0.91396229444E+02 0.  0.
         11    1    3    3    0    0  0.42965774899E+02  0.11360229275E+03 -0.11419017064E+04  0.11483427389E+04  0.00000000000E+00 0. -1.
        -11    1    3    3    0    0  0.11721426039E+02 -0.17994212990E+02 -0.17434071488E+03  0.17565838549E+03  0.00000000000E+00 0.  1.
         22    1    1    2    0    0 -0.54687200939E+02 -0.95608079759E+02  0.40920450246E+03  0.42376871014E+03  0.00000000000E+00 0.  1.
<mgrwt>
<rscale>  0 0.14939818E+04</rscale>
<asrwt>0</asrwt>
<pdfrwt beam="1">  1        1 0.20421598E+00 0.14939818E+04</pdfrwt>
<pdfrwt beam="2">  1       -1 0.64671686E-01 0.14939818E+04</pdfrwt>
<totfact> 0.20288703E+01</totfact>
</mgrwt>
</event>
<event>
 6    1  0.9364335E-007  0.1941882E+04  0.7818608E-02  0.8634285E-01
          1   -1    0    0  501    0  0.00000000000E+00  0.00000000000E+00  0.87075693084E+03  0.87075693084E+03  0.00000000000E+00 0. -1.
         -1   -1    0    0    0  501 -0.00000000000E+00 -0.00000000000E+00 -0.10826518754E+04  0.10826518754E+04  0.00000000000E+00 0.  1.
         23    2    1    2    0    0 -0.57845104826E+02 -0.17035621685E+03  0.85176379826E+03  0.87464228008E+03  0.84440827161E+02 0.  0.
         13    1    3    3    0    0 -0.61601495520E+02 -0.74877564506E+02  0.53741244794E+03  0.54608930874E+03  0.00000000000E+00 0.  1.
        -13    1    3    3    0    0  0.37563906944E+01 -0.95478652347E+02  0.31435135032E+03  0.32855297133E+03  0.00000000000E+00 0. -1.
         22    1    1    2    0    0  0.57845104826E+02  0.17035621685E+03 -0.10636587429E+04  0.10787665262E+04  0.00000000000E+00 0.  1.
<mgrwt>
<rscale>  0 0.19418822E+04</rscale>
<asrwt>0</asrwt>
<pdfrwt beam="1">  1        1 0.13396261E+00 0.19418822E+04</pdfrwt>
<pdfrwt beam="2">  1       -1 0.16656183E+00 0.19418822E+04</pdfrwt>
<totfact> 0.46798126E+00</totfact>
</mgrwt>
</event>
<event>
 6    1  0.9364335E-007  0.1641648E+04  0.7818608E-02  0.8795363E-01
         -2   -1    0    0    0  501 -0.00000000000E+00  0.00000000000E+00  0.59491967386E+03  0.59491967386E+03  0.00000000000E+00 0.  1.
          2   -1    0    0  501    0  0.00000000000E+00 -0.00000000000E+00 -0.11325093543E+04  0.11325093543E+04  0.00000000000E+00 0. -1.
         23    2    1    2    0    0 -0.71091035106E+02 -0.45112550259E+03  0.44471442031E+03  0.64415182417E+03  0.92695752843E+02 0.  0.
         11    1    3    3    0    0 -0.12231641659E+02 -0.34029021837E+03  0.32455930308E+03  0.47041023266E+03  0.00000000000E+00 0.  1.
        -11    1    3    3    0    0 -0.58859393447E+02 -0.11083528422E+03  0.12015511723E+03  0.17374159152E+03  0.00000000000E+00 0. -1.
         22    1    1    2    0    0  0.71091035106E+02  0.45112550259E+03 -0.98230410079E+03  0.10832772040E+04  0.00000000000E+00 0. -1.
<mgrwt>
<rscale>  0 0.16416481E+04</rscale>
<asrwt>0</asrwt>
<pdfrwt beam="1">  1        2 0.17423221E+00 0.16416481E+04</pdfrwt>
<pdfrwt beam="2">  1       -2 0.91526104E-01 0.16416481E+04</pdfrwt>
<totfact> 0.20220029E+01</totfact>
</mgrwt>
</event>
<event>
 6    1  0.9364335E-007  0.1211228E+04  0.7818608E-02  0.9103085E-01
         -3   -1    0    0    0  501 -0.00000000000E+00  0.00000000000E+00  0.31516009855E+03  0.31516009855E+03  0.00000000000E+00 0.  1.
          3   -1    0    0  501    0  0.00000000000E+00 -0.00000000000E+00 -0.11637528836E+04  0.11637528836E+04  0.00000000000E+00 0. -1.
         23    2    1    2    0    0 -0.42643406969E+03 -0.18934831414E+03  0.37513798124E+02  0.47747218179E+03  0.94199784884E+02 0.  0.
         13    1    3    3    0    0 -0.17575122412E+03 -0.11690089990E+03  0.47430409068E+02  0.21634222168E+03  0.00000000000E+00 0.  1.
        -13    1    3    3    0    0 -0.25068284558E+03 -0.72447414237E+02 -0.99166109433E+01  0.26112996011E+03  0.00000000000E+00 0. -1.
         22    1    1    2    0    0  0.42643406969E+03  0.18934831414E+03 -0.88610658315E+03  0.10014408003E+04  0.00000000000E+00 0. -1.
<mgrwt>
<rscale>  0 0.12112283E+04</rscale>
<asrwt>0</asrwt>
<pdfrwt beam="1">  1        3 0.17903891E+00 0.12112283E+04</pdfrwt>
<pdfrwt beam="2">  1       -3 0.48486169E-01 0.12112283E+04</pdfrwt>
<totfact> 0.22023145E+00</totfact>
</mgrwt>
</event>
<event>
 6    1  0.9364335E-007  0.2856948E+04  0.7818608E-02  0.8285803E-01
         -1   -1    0    0    0  501 -0.00000000000E+00  0.00000000000E+00  0.99334566600E+03  0.99334566600E+03  0.00000000000E+00 0.  1.
          1   -1    0    0  501    0  0.00000000000E+00 -0.00000000000E+00 -0.20542078836E+04  0.20542078836E+04  0.00000000000E+00 0. -1.
         23    2    1    2    0    0 -0.31584722900E+02 -0.14262587264E+04 -0.49331579633E+03  0.15121967541E+04  0.90371448869E+02 0.  0.
         11    1    3    3    0    0  0.19663974443E+02 -0.61122914701E+03 -0.24300021431E+03  0.65805535192E+03  0.00000000000E+00 0. -1.
        -11    1    3    3    0    0 -0.51248697343E+02 -0.81502957938E+03 -0.25031558202E+03  0.85414140214E+03  0.00000000000E+00 0.  1.
         22    1    1    2    0    0  0.31584722900E+02  0.14262587264E+04 -0.56754642128E+03  0.15353567955E+04  0.00000000000E+00 0.  1.
<mgrwt>
<rscale>  0 0.28569484E+04</rscale>
<asrwt>0</asrwt>
<pdfrwt beam="1">  1        1 0.31603198E+00 0.28569484E+04</pdfrwt>
<pdfrwt beam="2">  1       -1 0.15282241E+00 0.28569484E+04</pdfrwt>
<totfact> 0.78230135E-01</totfact>
</mgrwt>
</event>
<event>
 6    1  0.9364335E-007  0.1993282E+04  0.7818608E-02  0.8609768E-01
          2   -1    0    0  501    0  0.00000000000E+00  0.00000000000E+00  0.18338449921E+04  0.18338449921E+04  0.00000000000E+00 0. -1.
         -2   -1    0    0    0  501 -0.00000000000E+00 -0.00000000000E+00 -0.54164533365E+03  0.54164533365E+03  0.00000000000E+00 0.  1.
         23    2    1    2    0    0 -0.57827060951E+03 -0.54291568405E+03  0.13628326522E+04  0.15791591399E+04  0.85301894922E+02 0.  0.
         13    1    3    3    0    0 -0.39561661734E+03 -0.41915051991E+03  0.10158649485E+04  0.11679817035E+04  0.00000000000E+00 0. -1.
        -13    1    3    3    0    0 -0.18265399216E+03 -0.12376516414E+03  0.34696770374E+03  0.41117743633E+03  0.00000000000E+00 0.  1.
         22    1    1    2    0    0  0.57827060951E+03  0.54291568405E+03 -0.70632993770E+02  0.79633118589E+03  0.00000000000E+00 0.  1.
<mgrwt>
<rscale>  0 0.19932823E+04</rscale>
<asrwt>0</asrwt>
<pdfrwt beam="1">  1        2 0.28213000E+00 0.19932823E+04</pdfrwt>
<pdfrwt beam="2">  1       -2 0.83330052E-01 0.19932823E+04</pdfrwt>
<totfact> 0.96820025E+00</totfact>
</mgrwt>
</event>
<event>
 6    1  0.9364335E-007  0.1284698E+04  0.7818608E-02  0.9041789E-01
         -3   -1    0    0    0  501 -0.00000000000E+00  0.00000000000E+00  0.33361103419E+03  0.33361103419E+03  0.00000000000E+00 0.  1.
          3   -1    0    0  501    0  0.00000000000E+00 -0.00000000000E+00 -0.12368063973E+04  0.12368063973E+04  0.00000000000E+00 0. -1.
         23    2    1    2    0    0  0.61771346314E+03 -0.82415029630E+02 -0.29786555352E+03  0.70163302900E+03  0.12329987737E+03 0.  0.
         13    1    3    3    0    0  0.16541237976E+03 -0.35072440994E+02 -0.24049526447E+02  0.17079142607E+03  0.00000000000E+00 0.  1.
        -13    1    3    3    0    0  0.45230108337E+03 -0.47342588636E+02 -0.27381602707E+03  0.53084160293E+03  0.00000000000E+00 0. -1.
         22    1    1    2    0    0 -0.61771346314E+03  0.82415029630E+02 -0.60532980962E+03  0.86878440252E+03  0.00000000000E+00 0. -1.
<mgrwt>
<rscale>  0 0.12846980E+04</rscale>
<asrwt>0</asrwt>
<pdfrwt beam="1">  1        3 0.19027791E+00 0.12846980E+04</pdfrwt>
<pdfrwt beam="2">  1       -3 0.51324773E-01 0.12846980E+04</pdfrwt>
<totfact> 0.16448487E+00</totfact>
</mgrwt>
</event>
<event>
 6    1  0.9364335E-007  0.2055933E+04  0.7818608E-02  0.8580907E-01
          2   -1    0    0  501    0  0.00000000000E+00  0.00000000000E+00  0.30669593088E+04  0.30669593088E+04  0.00000000000E+00 0. -1.
         -2   -1    0    0    0  501 -0.00000000000E+00 -0.00000000000E+00 -0.34454829108E+03  0.34454829108E+03  0.00000000000E+00 0.  1.
         23    2    1    2    0    0 -0.78105142510E+03 -0.25366376945E+03  0.34326868927E+03  0.89462364236E+03  0.90174452331E+02 0.  0.
         13    1    3    3    0    0 -0.14989844508E+03 -0.29153459749E+02  0.32370452052E+02  0.15610033382E+03  0.00000000000E+00 0.  1.
        -13    1    3    3    0    0 -0.63115298001E+03 -0.22451030970E+03  0.31089823721E+03  0.73852330853E+03  0.00000000000E+00 0. -1.
         22    1    1    2    0    0  0.78105142510E+03  0.25366376945E+03  0.23791423285E+04  0.25168839576E+04  0.00000000000E+00 0. -1.
<mgrwt>
<rscale>  0 0.20559335E+04</rscale>
<asrwt>0</asrwt>
<pdfrwt beam="1">  1        2 0.47183987E+00 0.20559335E+04</pdfrwt>
<pdfrwt beam="2">  1       -2 0.53007432E-01 0.20559335E+04</pdfrwt>
<totfact> 0.49149491E+00</totfact>
</mgrwt>
</event>
<event>
 6    1  0.9364335E-007  0.3201106E+04  0.7818608E-02  0.8188525E-01
          2   -1    0    0  501    0  0.00000000000E+00  0.00000000000E+00  0.36663775059E+04  0.36663775059E+04  0.00000000000E+00 0. -1.
         -2   -1    0    0    0  501 -0.00000000000E+00 -0.00000000000E+00 -0.69871973805E+03  0.69871973805E+03  0.00000000000E+00 0.  1.
         23    2    1    2    0    0  0.11824886433E+04  0.80635174039E+03  0.51225072871E+03  0.15230018464E+04  0.93012334495E+02 0.  0.
         11    1    3    3    0    0  0.23278658745E+03  0.18970661097E+03  0.13735044266E+03  0.33021710683E+03  0.00000000000E+00 0. -1.
        -11    1    3    3    0    0  0.94970205587E+03  0.61664512942E+03  0.37490028605E+03  0.11927847396E+04  0.00000000000E+00 0.  1.
         22    1    1    2    0    0 -0.11824886433E+04 -0.80635174039E+03  0.24554070392E+04  0.28420953975E+04  0.00000000000E+00 0. -1.
<mgrwt>
<rscale>  0 0.32011063E+04</rscale>
<asrwt>0</asrwt>
<pdfrwt beam="1">  1        2 0.56405807E+00 0.32011063E+04</pdfrwt>
<pdfrwt beam="2">  1       -2 0.10749535E+00 0.32011063E+04</pdfrwt>
<totfact> 0.36089430E-01</totfact>
</mgrwt>
</event>
<event>
 6    1  0.9364335E-007  0.8319484E+03  0.7818608E-02  0.9514891E-01
         -3   -1    0    0    0  501 -0.00000000000E+00  0.00000000000E+00  0.57632480378E+03  0.57632480378E+03  0.00000000000E+00 0.  1.
          3   -1    0    0  501    0  0.00000000000E+00 -0.00000000000E+00 -0.30023787783E+03  0.30023787783E+03  0.00000000000E+00 0. -1.
         23    2    1    2    0    0  0.10807567776E+03  0.37397338853E+03  0.53203244656E+00  0.39962773135E+03  0.90363671630E+02 0.  0.
         13    1    3    3    0    0  0.47055731478E+02  0.91109677404E+02  0.34679905098E+02  0.10824930022E+03  0.00000000000E+00 0. -1.
        -13    1    3    3    0    0  0.61019946287E+02  0.28286371112E+03 -0.34147872651E+02  0.29137843112E+03  0.00000000000E+00 0.  1.
         22    1    1    2    0    0 -0.10807567776E+03 -0.37397338853E+03  0.27555489350E+03  0.47693495026E+03  0.00000000000E+00 0.  1.
<mgrwt>
<rscale>  0 0.83194840E+03</rscale>
<asrwt>0</asrwt>
<pdfrwt beam="1">  1        3 0.46190443E-01 0.83194840E+03</pdfrwt>
<pdfrwt beam="2">  1       -3 0.88665354E-01 0.83194840E+03</pdfrwt>
<totfact> 0.14151610E+01</totfact>
</mgrwt>
</event>
<event>
 6    1  0.9364335E-007  0.2261483E+04  0.7818608E-02  0.8493265E-01
          2   -1    0    0  501    0  0.00000000000E+00  0.00000000000E+00  0.12587973849E+04  0.12587973849E+04  0.00000000000E+00 0. -1.
         -2   -1    0    0    0  501 -0.00000000000E+00 -0.00000000000E+00 -0.10157124912E+04  0.10157124912E+04  0.00000000000E+00 0.  1.
         23    2    1    2    0    0  0.12109719059E+03 -0.31610018741E+03 -0.96150925173E+03  0.10232581376E+04  0.89293431920E+02 0.  0.
         13    1    3    3    0    0  0.21281851496E+02 -0.49180758610E+02 -0.27115155985E+03  0.27639615162E+03  0.00000000000E+00 0. -1.
        -13    1    3    3    0    0  0.99815339090E+02 -0.26691942880E+03 -0.69035769189E+03  0.74686198600E+03  0.00000000000E+00 0.  1.
         22    1    1    2    0    0 -0.12109719059E+03  0.31610018741E+03  0.12045941453E+04  0.12512517385E+04  0.00000000000E+00 0. -1.
<mgrwt>
<rscale>  0 0.22614829E+04</rscale>
<asrwt>0</asrwt>
<pdfrwt beam="1">  1        2 0.19366114E+00 0.22614829E+04</pdfrwt>
<pdfrwt beam="2">  1       -2 0.15626346E+00 0.22614829E+04</pdfrwt>
<totfact> 0.42695156E+00</totfact>
</mgrwt>
</event>
<event>
 6    1  0.9364335E-007  0.1671584E+04  0.7818608E-02  0.8777739E-01
         -2   -1    0    0    0  501 -0.00000000000E+00  0.00000000000E+00  0.15167307831E+04  0.15167307831E+04  0.00000000000E+00 0.  1.
          2   -1    0    0  501    0  0.00000000000E+00 -0.00000000000E+00 -0.46056168459E+03  0.46056168459E+03  0.00000000000E+00 0. -1.
         23    2    1    2    0    0 -0.31692486340E+03  0.74494175189E+03  0.29592154659E+03  0.86672688074E+03  0.90919422054E+02 0.  0.
         13    1    3    3    0    0 -0.16409674417E+03  0.28017975773E+03  0.10047498572E+03  0.33988771799E+03  0.00000000000E+00 0.  1.
        -13    1    3    3    0    0 -0.15282811923E+03  0.46476199416E+03  0.19544656087E+03  0.52683916275E+03  0.00000000000E+00 0. -1.
         22    1    1    2    0    0  0.31692486340E+03 -0.74494175189E+03  0.76024755197E+03  0.11105655870E+04  0.00000000000E+00 0. -1.
<mgrwt>
<rscale>  0 0.16715838E+04</rscale>
<asrwt>0</asrwt>
<pdfrwt beam="1">  1        2 0.70855644E-01 0.16715838E+04</pdfrwt>
<pdfrwt beam="2">  1       -2 0.23334320E+00 0.16715838E+04</pdfrwt>
<totfact> 0.52602145E+00</totfact>
</mgrwt>
</event>
<event>
 6    1  0.9364335E-007  0.2267448E+04  0.7818608E-02  0.8490867E-01
          1   -1    0    0  501    0  0.00000000000E+00  0.00000000000E+00  0.79965814255E+03  0.79965814255E+03  0.00000000000E+00 0. -1.
         -1   -1    0    0    0  501 -0.00000000000E+00 -0.00000000000E+00 -0.16073500618E+04  0.16073500618E+04  0.00000000000E+00 0.  1.
         23    2    1    2    0    0 -0.53104823809E+03 -0.15738953262E+03 -0.14522487506E+04  0.15571628037E+04  0.94582596073E+02 0.  0.
         11    1    3    3    0    0 -0.41476888518E+03 -0.16203162017E+03 -0.11328929213E+04  0.12172649034E+04  0.00000000000E+00 0.  1.
        -11    1    3    3    0    0 -0.11627935290E+03  0.46420875541E+01 -0.31935582928E+03  0.33989790024E+03  0.00000000000E+00 0. -1.
         22    1    1    2    0    0  0.53104823809E+03  0.15738953262E+03  0.64455683135E+03  0.84984540064E+03  0.00000000000E+00 0. -1.
<mgrwt>
<rscale>  0 0.22674484E+04</rscale>
<asrwt>0</asrwt>
<pdfrwt beam="1">  1        1 0.12302433E+00 0.22674484E+04</pdfrwt>
<pdfrwt beam="2">  1       -1 0.24728462E+00 0.22674484E+04</pdfrwt>
<totfact> 0.14564699E+00</totfact>
</mgrwt>
</event>
<event>
 6    1  0.9364335E-007  0.1060465E+04  0.7818608E-02  0.9244605E-01
          1   -1    0    0  501    0  0.00000000000E+00  0.00000000000E+00  0.61089464813E+03  0.61089464813E+03  0.00000000000E+00 0. -1.
         -1   -1    0    0    0  501 -0.00000000000E+00 -0.00000000000E+00 -0.46022133841E+03  0.46022133841E+03  0.00000000000E+00 0.  1.
         23    2    1    2    0    0  0.45748324545E+03  0.26068193199E+03  0.12384658382E+03  0.54389149664E+03  0.56868218332E+02 0.  0.
         13    1    3    3    0    0  0.21282363418E+03  0.12717586472E+03  0.87015153889E+02  0.26275318617E+03  0.00000000000E+00 0. -1.
        -13    1    3    3    0    0  0.24465961127E+03  0.13350606727E+03  0.36831429929E+02  0.28113831047E+03  0.00000000000E+00 0.  1.
         22    1    1    2    0    0 -0.45748324545E+03 -0.26068193199E+03  0.26826725904E+02  0.52722448991E+03  0.00000000000E+00 0.  1.
<mgrwt>
<rscale>  0 0.10604655E+04</rscale>
<asrwt>0</asrwt>
<pdfrwt beam="1">  1        1 0.93983792E-01 0.10604655E+04</pdfrwt>
<pdfrwt beam="2">  1       -1 0.70803283E-01 0.10604655E+04</pdfrwt>
<totfact> 0.67201777E+01</totfact>
</mgrwt>
</event>
<event>
 6    1  0.9364335E-007  0.2147032E+04  0.7818608E-02  0.8540804E-01
          1   -1    0    0  501    0  0.00000000000E+00  0.00000000000E+00  0.11301271904E+04  0.11301271904E+04  0.00000000000E+00 0. -1.
         -1   -1    0    0    0  501 -0.00000000000E+00 -0.00000000000E+00 -0.10197402422E+04  0.10197402422E+04  0.00000000000E+00 0.  1.
         23    2    1    2    0    0  0.23574152445E+03 -0.50477991902E+03 -0.86132245766E+03  0.10297799350E+04  0.90517983852E+02 0.  0.
         13    1    3    3    0    0  0.49076266772E+02 -0.11017888937E+03 -0.26104070939E+03  0.28755889759E+03  0.00000000000E+00 0. -1.
        -13    1    3    3    0    0  0.18666525768E+03 -0.39460102965E+03 -0.60028174826E+03  0.74222103737E+03  0.00000000000E+00 0.  1.
         22    1    1    2    0    0 -0.23574152445E+03  0.50477991902E+03  0.97170940581E+03  0.11200874976E+04  0.00000000000E+00 0. -1.
<mgrwt>
<rscale>  0 0.21470316E+04</rscale>
<asrwt>0</asrwt>
<pdfrwt beam="1">  1        1 0.17386572E+00 0.21470316E+04</pdfrwt>
<pdfrwt beam="2">  1       -1 0.15688311E+00 0.21470316E+04</pdfrwt>
<totfact> 0.34029814E+00</totfact>
</mgrwt>
</event>
<event>
 6    1  0.9364335E-007  0.2459208E+04  0.7818608E-02  0.8417664E-01
         -2   -1    0    0    0  501 -0.00000000000E+00  0.00000000000E+00  0.12255813034E+04  0.12255813034E+04  0.00000000000E+00 0.  1.
          2   -1    0    0  501    0  0.00000000000E+00 -0.00000000000E+00 -0.12336397088E+04  0.12336397088E+04  0.00000000000E+00 0. -1.
         23    2    1    2    0    0  0.20640981553E+03 -0.96861650253E+03 -0.73006699490E+03  0.12336112275E+04  0.89307909943E+02 0.  0.
         11    1    3    3    0    0  0.18033987008E+03 -0.82243069697E+03 -0.57938581118E+03  0.10220580406E+04  0.00000000000E+00 0.  1.
        -11    1    3    3    0    0  0.26069945448E+02 -0.14618580556E+03 -0.15068118371E+03  0.21155318699E+03  0.00000000000E+00 0. -1.
         22    1    1    2    0    0 -0.20640981553E+03  0.96861650253E+03  0.72200858954E+03  0.12256097847E+04  0.00000000000E+00 0.  1.
<mgrwt>
<rscale>  0 0.24592078E+04</rscale>
<asrwt>0</asrwt>
<pdfrwt beam="1">  1        2 0.18979072E+00 0.24592078E+04</pdfrwt>
<pdfrwt beam="2">  1       -2 0.18855097E+00 0.24592078E+04</pdfrwt>
<totfact> 0.25657065E+00</totfact>
</mgrwt>
</event>
<event>
 6    1  0.9364335E-007  0.2683527E+04  0.7818608E-02  0.8340370E-01
          2   -1    0    0  501    0  0.00000000000E+00  0.00000000000E+00  0.80317814028E+03  0.80317814028E+03  0.00000000000E+00 0. -1.
         -2   -1    0    0    0  501 -0.00000000000E+00 -0.00000000000E+00 -0.22415069794E+04  0.22415069794E+04  0.00000000000E+00 0.  1.
         23    2    1    2    0    0  0.13480479559E+03  0.10062877071E+04  0.27249769556E+03  0.10552845280E+04  0.92645336947E+02 0.  0.
         13    1    3    3    0    0  0.11021297775E+03  0.92174810458E+03  0.27162451662E+03  0.96723644823E+03  0.00000000000E+00 0.  1.
        -13    1    3    3    0    0  0.24591817839E+02  0.84539602566E+02  0.87317893106E+00  0.88048079752E+02  0.00000000000E+00 0. -1.
         22    1    1    2    0    0 -0.13480479559E+03 -0.10062877071E+04 -0.17108265346E+04  0.19894005917E+04  0.00000000000E+00 0.  1.
<mgrwt>
<rscale>  0 0.26835271E+04</rscale>
<asrwt>0</asrwt>
<pdfrwt beam="1">  1        2 0.12356587E+00 0.26835271E+04</pdfrwt>
<pdfrwt beam="2">  1       -2 0.34484722E+00 0.26835271E+04</pdfrwt>
<totfact> 0.50469027E-01</totfact>
</mgrwt>
</event>
<event>
 6    1  0.9364335E-007  0.4914606E+04  0.7818608E-02  0.7841817E-01
          2   -1    0    0  501    0  0.00000000000E+00  0.00000000000E+00  0.18155580802E+04  0.18155580802E+04  0.00000000000E+00 0. -1.
         -2   -1    0    0    0  501 -0.00000000000E+00 -0.00000000000E+00 -0.33258859810E+04  0.33258859810E+04  0.00000000000E+00 0.  1.
         23    2    1    2    0    0 -0.94700385275E+03  0.20848107459E+04 -0.16858539963E+04  0.28449115548E+04  0.90365449782E+02 0.  0.
         13    1    3    3    0    0 -0.36684263848E+03  0.87730811150E+03 -0.74213120644E+03  0.12062345425E+04  0.00000000000E+00 0. -1.
        -13    1    3    3    0    0 -0.58016121427E+03  0.12075026344E+04 -0.94372278985E+03  0.16386770123E+04  0.00000000000E+00 0.  1.
         22    1    1    2    0    0  0.94700385275E+03 -0.20848107459E+04  0.17552609547E+03  0.22965325065E+04  0.00000000000E+00 0. -1.
<mgrwt>
<rscale>  0 0.49146065E+04</rscale>
<asrwt>0</asrwt>
<pdfrwt beam="1">  1        2 0.27931663E+00 0.49146065E+04</pdfrwt>
<pdfrwt beam="2">  1       -2 0.51167476E+00 0.49146065E+04</pdfrwt>
<totfact> 0.87408937E-03</totfact>
</mgrwt>
</event>
<event>
 6    1  0.9364335E-007  0.1728880E+04  0.7818608E-02  0.8745062E-01
          2   -1    0    0  501    0  0.00000000000E+00  0.00000000000E+00  0.21026079077E+04  0.21026079077E+04  0.00000000000E+00 0. -1.
         -2   -1    0    0    0  501 -0.00000000000E+00 -0.00000000000E+00 -0.35539498254E+03  0.35539498254E+03  0.00000000000E+00 0.  1.
         23    2    1    2    0    0 -0.51085618249E+03 -0.49679036823E+03  0.18610571246E+03  0.74195206387E+03  0.89904503288E+02 0.  0.
         13    1    3    3    0    0 -0.27245988990E+03 -0.32094866919E+03  0.12845782471E+03  0.44016343849E+03  0.00000000000E+00 0.  1.
        -13    1    3    3    0    0 -0.23839629259E+03 -0.17584169904E+03  0.57647887747E+02  0.30178862537E+03  0.00000000000E+00 0. -1.
         22    1    1    2    0    0  0.51085618249E+03  0.49679036823E+03  0.15611072127E+04  0.17160508263E+04  0.00000000000E+00 0. -1.
<mgrwt>
<rscale>  0 0.17288798E+04</rscale>
<asrwt>0</asrwt>
<pdfrwt beam="1">  1        2 0.32347813E+00 0.17288798E+04</pdfrwt>
<pdfrwt beam="2">  1       -2 0.54676152E-01 0.17288798E+04</pdfrwt>
<totfact> 0.17503196E+01</totfact>
</mgrwt>
</event>
<event>
 6    1  0.1310231E-006  0.4314044E+04  0.7818608E-02  0.7944026E-01
         -2   -1    0    0    0  501 -0.00000000000E+00  0.00000000000E+00  0.18788425107E+04  0.18788425107E+04  0.00000000000E+00 0.  1.
          2   -1    0    0  501    0  0.00000000000E+00 -0.00000000000E+00 -0.24763883323E+04  0.24763883323E+04  0.00000000000E+00 0. -1.
         23    2    1    2    0    0 -0.10510247891E+04  0.11705729277E+04  0.11894770682E+04  0.19744022279E+04  0.92273374225E+02 0.  0.
         13    1    3    3    0    0 -0.67806353400E+03  0.81125508429E+03  0.82554903963E+03  0.13414306485E+04  0.00000000000E+00 0.  1.
        -13    1    3    3    0    0 -0.37296125507E+03  0.35931784336E+03  0.36392802852E+03  0.63297157936E+03  0.00000000000E+00 0. -1.
         22    1    1    2    0    0  0.10510247891E+04 -0.11705729277E+04 -0.17870228897E+04  0.23808286151E+04  0.00000000000E+00 0. -1.
<mgrwt>
<rscale>  0 0.43140439E+04</rscale>
<asrwt>0</asrwt>
<pdfrwt beam="1">  1        2 0.38098282E+00 0.43140439E+04</pdfrwt>
<pdfrwt beam="2">  1       -2 0.28905269E+00 0.43140439E+04</pdfrwt>
<totfact> 0.10246352E-01</totfact>
</mgrwt>
</event>
<event>
 6    1  0.9364335E-007  0.2492889E+04  0.7818608E-02  0.8405523E-01
         -2   -1    0    0    0  501 -0.00000000000E+00  0.00000000000E+00  0.74594371315E+03  0.74594371315E+03  0.00000000000E+00 0.  1.
          2   -1    0    0  501    0  0.00000000000E+00 -0.00000000000E+00 -0.20827634036E+04  0.20827634036E+04  0.00000000000E+00 0. -1.
         23    2    1    2    0    0  0.97789658320E+03 -0.62147337384E+03 -0.15410862801E+03  0.11730150140E+04  0.98508233319E+02 0.  0.
         13    1    3    3    0    0  0.64263004658E+03 -0.46277477719E+03 -0.10514902110E+03  0.79886806658E+03  0.00000000000E+00 0. -1.
        -13    1    3    3    0    0  0.33526653663E+03 -0.15869859665E+03 -0.48959606908E+02  0.37414694743E+03  0.00000000000E+00 0.  1.
         22    1    1    2    0    0 -0.97789658320E+03  0.62147337384E+03 -0.11827110624E+04  0.16556921027E+04  0.00000000000E+00 0. -1.
<mgrwt>
<rscale>  0 0.24928893E+04</rscale>
<asrwt>0</asrwt>
<pdfrwt beam="1">  1        2 0.32042514E+00 0.24928893E+04</pdfrwt>
<pdfrwt beam="2">  1       -2 0.11476057E+00 0.24928893E+04</pdfrwt>
<totfact> 0.31772265E+00</totfact>
</mgrwt>
</event>
<event>
 6    1  0.9364335E-007  0.2600946E+04  0.7818608E-02  0.8367880E-01
          2   -1    0    0  501    0  0.00000000000E+00  0.00000000000E+00  0.28767055909E+04  0.28767055909E+04  0.00000000000E+00 0. -1.
         -2   -1    0    0    0  501 -0.00000000000E+00 -0.00000000000E+00 -0.58790513866E+03  0.58790513866E+03  0.00000000000E+00 0.  1.
         23    2    1    2    0    0 -0.11544927093E+04 -0.46298211193E+03  0.64742493563E+03  0.14051643383E+04  0.90121688052E+02 0.  0.
         11    1    3    3    0    0 -0.61125134911E+03 -0.27411266566E+03  0.38881491897E+03  0.77455987921E+03  0.00000000000E+00 0. -1.
        -11    1    3    3    0    0 -0.54324136018E+03 -0.18886944628E+03  0.25861001666E+03  0.63060445912E+03  0.00000000000E+00 0.  1.
         22    1    1    2    0    0  0.11544927093E+04  0.46298211193E+03  0.16413755166E+04  0.20594463912E+04  0.00000000000E+00 0. -1.
<mgrwt>
<rscale>  0 0.26009460E+04</rscale>
<asrwt>0</asrwt>
<pdfrwt beam="1">  1        2 0.44257008E+00 0.26009460E+04</pdfrwt>
<pdfrwt beam="2">  1       -2 0.90446946E-01 0.26009460E+04</pdfrwt>
<totfact> 0.19184894E+00</totfact>
</mgrwt>
</event>
<event>
 6    1  0.9364335E-007  0.2570149E+04  0.7818608E-02  0.8378412E-01
         -2   -1    0    0    0  501 -0.00000000000E+00  0.00000000000E+00  0.82654363798E+03  0.82654363798E+03  0.00000000000E+00 0.  1.
          2   -1    0    0  501    0  0.00000000000E+00 -0.00000000000E+00 -0.19979778357E+04  0.19979778357E+04  0.00000000000E+00 0. -1.
         23    2    1    2    0    0 -0.29801564871E+03  0.62006081840E+03  0.60443676528E+03  0.92005135771E+03  0.88667650315E+02 0.  0.
         13    1    3    3    0    0 -0.18737799490E+03  0.45821979209E+03  0.39641957722E+03  0.63421161455E+03  0.00000000000E+00 0. -1.
        -13    1    3    3    0    0 -0.11063765381E+03  0.16184102631E+03  0.20801718806E+03  0.28583974316E+03  0.00000000000E+00 0.  1.
         22    1    1    2    0    0  0.29801564871E+03 -0.62006081840E+03 -0.17758709630E+04  0.19044701159E+04  0.00000000000E+00 0. -1.
<mgrwt>
<rscale>  0 0.25701485E+04</rscale>
<asrwt>0</asrwt>
<pdfrwt beam="1">  1        2 0.30738120E+00 0.25701485E+04</pdfrwt>
<pdfrwt beam="2">  1       -2 0.12716056E+00 0.25701485E+04</pdfrwt>
<totfact> 0.27278936E+00</totfact>
</mgrwt>
</event>
<event>
 6    1  0.9364335E-007  0.3192354E+04  0.7818608E-02  0.8190839E-01
          2   -1    0    0  501    0  0.00000000000E+00  0.00000000000E+00  0.97092190399E+03  0.97092190399E+03  0.00000000000E+00 0. -1.
         -2   -1    0    0    0  501 -0.00000000000E+00 -0.00000000000E+00 -0.26240850680E+04  0.26240850680E+04  0.00000000000E+00 0.  1.
         23    2    1    2    0    0  0.57830920357E+03  0.61321597785E+03 -0.23519716920E+04  0.25001057302E+04  0.91007976309E+02 0.  0.
         11    1    3    3    0    0  0.33607803521E+03  0.37958470152E+03 -0.15339806173E+04  0.16155895288E+04  0.00000000000E+00 0.  1.
        -11    1    3    3    0    0  0.24223116836E+03  0.23363127633E+03 -0.81799107473E+03  0.88451620140E+03  0.00000000000E+00 0. -1.
         22    1    1    2    0    0 -0.57830920357E+03 -0.61321597785E+03  0.69880852801E+03  0.10949012418E+04  0.00000000000E+00 0. -1.
<mgrwt>
<rscale>  0 0.31923544E+04</rscale>
<asrwt>0</asrwt>
<pdfrwt beam="1">  1        2 0.14937260E+00 0.31923544E+04</pdfrwt>
<pdfrwt beam="2">  1       -2 0.40370540E+00 0.31923544E+04</pdfrwt>
<totfact> 0.15543033E-01</totfact>
</mgrwt>
</event>
<event>
 6    1  0.9364335E-007  0.1702464E+04  0.7818608E-02  0.8759960E-01
          1   -1    0    0  501    0  0.00000000000E+00  0.00000000000E+00  0.14317077546E+04  0.14317077546E+04  0.00000000000E+00 0. -1.
         -1   -1    0    0    0  501 -0.00000000000E+00 -0.00000000000E+00 -0.50610618534E+03  0.50610618534E+03  0.00000000000E+00 0.  1.
         23    2    1    2    0    0 -0.44149502474E+03 -0.53398310537E+03  0.10221825918E+04  0.12382542873E+04  0.91436401263E+02 0.  0.
         13    1    3    3    0    0 -0.36350584800E+03 -0.41035355986E+03  0.74588571539E+03  0.92567383350E+03  0.00000000000E+00 0. -1.
        -13    1    3    3    0    0 -0.77989176738E+02 -0.12362954551E+03  0.27629687639E+03  0.31258045383E+03  0.00000000000E+00 0.  1.
         22    1    1    2    0    0  0.44149502473E+03  0.53398310537E+03 -0.96581022499E+02  0.69955965263E+03  0.00000000000E+00 0.  1.
<mgrwt>
<rscale>  0 0.17024643E+04</rscale>
<asrwt>0</asrwt>
<pdfrwt beam="1">  1        1 0.22026273E+00 0.17024643E+04</pdfrwt>
<pdfrwt beam="2">  1       -1 0.77862491E-01 0.17024643E+04</pdfrwt>
<totfact> 0.11474346E+01</totfact>
</mgrwt>
</event>
<event>
 6    1  0.9364335E-007  0.1162534E+04  0.7818608E-02  0.9146298E-01
         -1   -1    0    0    0  501 -0.00000000000E+00  0.00000000000E+00  0.22451577170E+03  0.22451577170E+03  0.00000000000E+00 0.  1.
          1   -1    0    0  501    0  0.00000000000E+00 -0.00000000000E+00 -0.15048880628E+04  0.15048880628E+04  0.00000000000E+00 0. -1.
         23    2    1    2    0    0  0.52818187412E+03 -0.69843976345E+02 -0.97612590431E+03  0.11158729575E+04  0.92175935067E+02 0.  0.
         13    1    3    3    0    0  0.25203614033E+03 -0.11044896806E+02 -0.37792730085E+03  0.45439327735E+03  0.00000000000E+00 0. -1.
        -13    1    3    3    0    0  0.27614573379E+03 -0.58799079539E+02 -0.59819860347E+03  0.66147968014E+03  0.00000000000E+00 0.  1.
         22    1    1    2    0    0 -0.52818187412E+03  0.69843976345E+02 -0.30424638682E+03  0.61353087704E+03  0.00000000000E+00 0.  1.
<mgrwt>
<rscale>  0 0.11625336E+04</rscale>
<asrwt>0</asrwt>
<pdfrwt beam="1">  1        1 0.23152125E+00 0.11625336E+04</pdfrwt>
<pdfrwt beam="2">  1       -1 0.34540887E-01 0.11625336E+04</pdfrwt>
<totfact> 0.51166166E+01</totfact>
</mgrwt>
</event>
<event>
 6    1  0.9364335E-007  0.8227111E+03  0.7818608E-02  0.9527713E-01
         -2   -1    0    0    0  501 -0.00000000000E+00  0.00000000000E+00  0.66137060650E+03  0.66137060650E+03  0.00000000000E+00 0.  1.
          2   -1    0    0  501    0  0.00000000000E+00 -0.00000000000E+00 -0.25585262002E+03  0.25585262002E+03  0.00000000000E+00 0. -1.
         23    2    1    2    0    0  0.82501872416E+02  0.92833741472E+02  0.63760383400E+03  0.65399613230E+03  0.75813121687E+02 0.  0.
         13    1    3    3    0    0  0.79790808748E+02  0.34241920910E+02  0.37461732180E+03  0.38454807255E+03  0.00000000000E+00 0.  1.
        -13    1    3    3    0    0  0.27110636680E+01  0.58591820562E+02  0.26298651221E+03  0.26944805975E+03  0.00000000000E+00 0. -1.
         22    1    1    2    0    0 -0.82501872416E+02 -0.92833741472E+02 -0.23208584752E+03  0.26322709421E+03  0.00000000000E+00 0. -1.
<mgrwt>
<rscale>  0 0.82271113E+03</rscale>
<asrwt>0</asrwt>
<pdfrwt beam="1">  1        2 0.39361942E-01 0.82271113E+03</pdfrwt>
<pdfrwt beam="2">  1       -2 0.10174932E+00 0.82271113E+03</pdfrwt>
<totfact> 0.10460047E+02</totfact>
</mgrwt>
</event>
<event>
 6    1  0.9364335E-007  0.1808043E+04  0.7818608E-02  0.8702034E-01
          2   -1    0    0  501    0  0.00000000000E+00  0.00000000000E+00  0.20584827712E+04  0.20584827712E+04  0.00000000000E+00 0. -1.
         -2   -1    0    0    0  501 -0.00000000000E+00 -0.00000000000E+00 -0.39701828474E+03  0.39701828474E+03  0.00000000000E+00 0.  1.
         23    2    1    2    0    0  0.27579813665E+03  0.83062187282E+03  0.11276226419E+04  0.14303257427E+04  0.91113116985E+02 0.  0.
         11    1    3    3    0    0  0.21081255174E+03  0.60718764011E+03  0.76124194649E+03  0.99629717623E+03  0.00000000000E+00 0.  1.
        -11    1    3    3    0    0  0.64985584906E+02  0.22343423271E+03  0.36638069537E+03  0.43402856649E+03  0.00000000000E+00 0. -1.
         22    1    1    2    0    0 -0.27579813665E+03 -0.83062187282E+03  0.53384184461E+03  0.10251753132E+04  0.00000000000E+00 0.  1.
<mgrwt>
<rscale>  0 0.18080435E+04</rscale>
<asrwt>0</asrwt>
<pdfrwt beam="1">  1        2 0.31668965E+00 0.18080435E+04</pdfrwt>
<pdfrwt beam="2">  1       -2 0.61079737E-01 0.18080435E+04</pdfrwt>
<totfact> 0.14583854E+01</totfact>
</mgrwt>
</event>
<event>
 6    1  0.9364335E-007  0.4443568E+04  0.7818608E-02  0.7920592E-01
          1   -1    0    0  501    0  0.00000000000E+00  0.00000000000E+00  0.21709785822E+04  0.21709785822E+04  0.00000000000E+00 0. -1.
         -1   -1    0    0    0  501 -0.00000000000E+00 -0.00000000000E+00 -0.22737779795E+04  0.22737779795E+04  0.00000000000E+00 0.  1.
         23    2    1    2    0    0 -0.15177826837E+04 -0.14982766284E+04  0.56947188191E+03  0.22085889018E+04  0.71201003830E+02 0.  0.
         11    1    3    3    0    0 -0.10282450952E+04 -0.10117394979E+04  0.41946336150E+03  0.15022830290E+04  0.00000000000E+00 0.  1.
        -11    1    3    3    0    0 -0.48953758846E+03 -0.48653713043E+03  0.15000852042E+03  0.70630587284E+03  0.00000000000E+00 0. -1.
         22    1    1    2    0    0  0.15177826837E+04  0.14982766284E+04 -0.67227127922E+03  0.22361676598E+04  0.00000000000E+00 0.  1.
<mgrwt>
<rscale>  0 0.44435676E+04</rscale>
<asrwt>0</asrwt>
<pdfrwt beam="1">  1        1 0.33399671E+00 0.44435676E+04</pdfrwt>
<pdfrwt beam="2">  1       -1 0.34981199E+00 0.44435676E+04</pdfrwt>
<totfact> 0.26817881E-02</totfact>
</mgrwt>
</event>
<event>
 6    1  0.9364335E-007  0.2117139E+04  0.7818608E-02  0.8553731E-01
         -1   -1    0    0    0  501 -0.00000000000E+00  0.00000000000E+00  0.20682808319E+04  0.20682808319E+04  0.00000000000E+00 0.  1.
          1   -1    0    0  501    0  0.00000000000E+00 -0.00000000000E+00 -0.54178783985E+03  0.54178783985E+03  0.00000000000E+00 0. -1.
         23    2    1    2    0    0  0.94564164696E+03 -0.36430901494E+03  0.11331425095E+04  0.15230158741E+04  0.92769731432E+02 0.  0.
         13    1    3    3    0    0  0.17716664521E+03 -0.33560738327E+02  0.22269525272E+03  0.28654409594E+03  0.00000000000E+00 0.  1.
        -13    1    3    3    0    0  0.76847500175E+03 -0.33074827662E+03  0.91044725676E+03  0.12364717781E+04  0.00000000000E+00 0. -1.
         22    1    1    2    0    0 -0.94564164696E+03  0.36430901494E+03  0.39335048260E+03  0.10870527977E+04  0.00000000000E+00 0. -1.
<mgrwt>
<rscale>  0 0.21171390E+04</rscale>
<asrwt>0</asrwt>
<pdfrwt beam="1">  1        1 0.83351977E-01 0.21171390E+04</pdfrwt>
<pdfrwt beam="2">  1       -1 0.31819705E+00 0.21171390E+04</pdfrwt>
<totfact> 0.91572928E-01</totfact>
</mgrwt>
</event>
<event>
 6    1  0.9364335E-007  0.2179140E+04  0.7818608E-02  0.8527161E-01
          2   -1    0    0  501    0  0.00000000000E+00  0.00000000000E+00  0.25740853268E+04  0.25740853268E+04  0.00000000000E+00 0. -1.
         -2   -1    0    0    0  501 -0.00000000000E+00 -0.00000000000E+00 -0.46119810165E+03  0.46119810165E+03  0.00000000000E+00 0.  1.
         23    2    1    2    0    0 -0.17000254955E+03  0.81332085179E+03  0.80301585351E+02  0.83942458555E+03  0.88281455675E+02 0.  0.
         11    1    3    3    0    0 -0.86020489208E+02  0.45157534702E+03  0.87692993686E+02  0.46798491401E+03  0.00000000000E+00 0. -1.
        -11    1    3    3    0    0 -0.83982060341E+02  0.36174550476E+03 -0.73914083359E+01  0.37143967154E+03  0.00000000000E+00 0.  1.
         22    1    1    2    0    0  0.17000254955E+03 -0.81332085179E+03  0.20325856398E+04  0.21958588429E+04  0.00000000000E+00 0.  1.
<mgrwt>
<rscale>  0 0.21791404E+04</rscale>
<asrwt>0</asrwt>
<pdfrwt beam="1">  1        2 0.39601312E+00 0.21791404E+04</pdfrwt>
<pdfrwt beam="2">  1       -2 0.70953556E-01 0.21791404E+04</pdfrwt>
<totfact> 0.52089478E+00</totfact>
</mgrwt>
</event>
<event>
 6    1  0.9951345E-007  0.3894839E+04  0.7818608E-02  0.8026104E-01
         -2   -1    0    0    0  501 -0.00000000000E+00  0.00000000000E+00  0.14928187038E+04  0.14928187038E+04  0.00000000000E+00 0.  1.
          2   -1    0    0  501    0  0.00000000000E+00 -0.00000000000E+00 -0.25404572295E+04  0.25404572295E+04  0.00000000000E+00 0. -1.
         23    2    1    2    0    0  0.67056309346E+03 -0.93783701693E+03 -0.21482920055E+04  0.24393401706E+04  0.77645310585E+02 0.  0.
         11    1    3    3    0    0  0.12960950759E+03 -0.18999316814E+03 -0.49606907701E+03  0.54679114620E+03  0.00000000000E+00 0. -1.
        -11    1    3    3    0    0  0.54095358586E+03 -0.74784384879E+03 -0.16522229285E+04  0.18925490244E+04  0.00000000000E+00 0.  1.
         22    1    1    2    0    0 -0.67056309346E+03  0.93783701693E+03  0.11006534799E+04  0.15939357626E+04  0.00000000000E+00 0.  1.
<mgrwt>
<rscale>  0 0.38948387E+04</rscale>
<asrwt>0</asrwt>
<pdfrwt beam="1">  1        2 0.39083958E+00 0.38948387E+04</pdfrwt>
<pdfrwt beam="2">  1       -2 0.22966441E+00 0.38948387E+04</pdfrwt>
<totfact> 0.22539056E-01</totfact>
</mgrwt>
</event>
<event>
 6    1  0.9364335E-007  0.1175965E+04  0.7818608E-02  0.9134159E-01
         -1   -1    0    0    0  501 -0.00000000000E+00  0.00000000000E+00  0.27121962107E+03  0.27121962107E+03  0.00000000000E+00 0.  1.
          1   -1    0    0  501    0  0.00000000000E+00 -0.00000000000E+00 -0.12746983503E+04  0.12746983503E+04  0.00000000000E+00 0. -1.
         23    2    1    2    0    0 -0.64872121326E+02 -0.39938622523E+03  0.49458421266E+02  0.41791336503E+03  0.92128693719E+02 0.  0.
         11    1    3    3    0    0 -0.56267282457E+02 -0.96012643512E+02  0.18963931382E+02  0.11288961636E+03  0.00000000000E+00 0.  1.
        -11    1    3    3    0    0 -0.86048388697E+01 -0.30337358172E+03  0.30494489884E+02  0.30502374866E+03  0.00000000000E+00 0. -1.
         22    1    1    2    0    0  0.64872121326E+02  0.39938622523E+03 -0.10529371505E+04  0.11280046064E+04  0.00000000000E+00 0. -1.
<mgrwt>
<rscale>  0 0.11759646E+04</rscale>
<asrwt>0</asrwt>
<pdfrwt beam="1">  1        1 0.19610744E+00 0.11759646E+04</pdfrwt>
<pdfrwt beam="2">  1       -1 0.41726095E-01 0.11759646E+04</pdfrwt>
<totfact> 0.52669378E+01</totfact>
</mgrwt>
</event>
<event>
 6    1  0.9364335E-007  0.1590898E+04  0.7818608E-02  0.8826159E-01
         -1   -1    0    0    0  501 -0.00000000000E+00  0.00000000000E+00  0.67042079791E+03  0.67042079791E+03  0.00000000000E+00 0.  1.
          1   -1    0    0  501    0  0.00000000000E+00 -0.00000000000E+00 -0.94379372835E+03  0.94379372835E+03  0.00000000000E+00 0. -1.
         23    2    1    2    0    0 -0.72051386063E+02 -0.58249061863E+03 -0.67802819957E+03  0.90131017794E+03  0.90283300848E+02 0.  0.
         11    1    3    3    0    0 -0.77764279148E+02 -0.26962520583E+03 -0.30627792334E+03  0.41539282740E+03  0.00000000000E+00 0.  1.
        -11    1    3    3    0    0  0.57128930848E+01 -0.31286541281E+03 -0.37175027622E+03  0.48591735053E+03  0.00000000000E+00 0. -1.
         22    1    1    2    0    0  0.72051386063E+02  0.58249061863E+03  0.40465526913E+03  0.71290434833E+03  0.00000000000E+00 0.  1.
<mgrwt>
<rscale>  0 0.15908978E+04</rscale>
<asrwt>0</asrwt>
<pdfrwt beam="1">  1        1 0.14519903E+00 0.15908978E+04</pdfrwt>
<pdfrwt beam="2">  1       -1 0.10314166E+00 0.15908978E+04</pdfrwt>
<totfact> 0.14291436E+01</totfact>
</mgrwt>
</event>
<event>
 6    1  0.9364335E-007  0.2544767E+04  0.7818608E-02  0.8387208E-01
         -1   -1    0    0    0  501 -0.00000000000E+00  0.00000000000E+00  0.91579537328E+03  0.91579537328E+03  0.00000000000E+00 0.  1.
          1   -1    0    0  501    0  0.00000000000E+00 -0.00000000000E+00 -0.17678185461E+04  0.17678185461E+04  0.00000000000E+00 0. -1.
         23    2    1    2    0    0 -0.94290651944E+03  0.13614101724E+03  0.46044437230E+03  0.10618315240E+04  0.88713495944E+02 0.  0.
         11    1    3    3    0    0 -0.37555052595E+03  0.17406597030E+02  0.15524608496E+03  0.40674627725E+03  0.00000000000E+00 0.  1.
        -11    1    3    3    0    0 -0.56735599350E+03  0.11873442021E+03  0.30519828734E+03  0.65508524674E+03  0.00000000000E+00 0. -1.
         22    1    1    2    0    0  0.94290651944E+03 -0.13614101724E+03 -0.13124675451E+04  0.16217823954E+04  0.00000000000E+00 0. -1.
<mgrwt>
<rscale>  0 0.25447672E+04</rscale>
<asrwt>0</asrwt>
<pdfrwt beam="1">  1        1 0.27197208E+00 0.25447672E+04</pdfrwt>
<pdfrwt beam="2">  1       -1 0.14089160E+00 0.25447672E+04</pdfrwt>
<totfact> 0.15630614E+00</totfact>
</mgrwt>
</event>
<event>
 6    1  0.9364335E-007  0.6582387E+03  0.7818608E-02  0.9791441E-01
         -2   -1    0    0    0  501 -0.00000000000E+00  0.00000000000E+00  0.16397137880E+03  0.16397137880E+03  0.00000000000E+00 0.  1.
          2   -1    0    0  501    0  0.00000000000E+00 -0.00000000000E+00 -0.66060035980E+03  0.66060035980E+03  0.00000000000E+00 0. -1.
         23    2    1    2    0    0  0.21539527236E+03 -0.10165846219E+02 -0.55532606792E+03  0.60109060786E+03  0.80152413310E+02 0.  0.
         13    1    3    3    0    0  0.17150061210E+03  0.12252025310E+02 -0.35027220011E+03  0.39019634320E+03  0.00000000000E+00 0. -1.
        -13    1    3    3    0    0  0.43894660265E+02 -0.22417871530E+02 -0.20505386781E+03  0.21089426466E+03  0.00000000000E+00 0.  1.
         22    1    1    2    0    0 -0.21539527236E+03  0.10165846219E+02  0.58697086922E+02  0.22348113074E+03  0.00000000000E+00 0.  1.
<mgrwt>
<rscale>  0 0.65823872E+03</rscale>
<asrwt>0</asrwt>
<pdfrwt beam="1">  1        2 0.10163082E+00 0.65823872E+03</pdfrwt>
<pdfrwt beam="2">  1       -2 0.25226366E-01 0.65823872E+03</pdfrwt>
<totfact> 0.62500368E+02</totfact>
</mgrwt>
</event>
<event>
 6    1  0.1016147E-006  0.2041903E+04  0.7818608E-02  0.8587276E-01
          2   -1    0    0  501    0  0.00000000000E+00  0.00000000000E+00  0.14359533801E+04  0.14359533801E+04  0.00000000000E+00 0. -1.
         -2   -1    0    0    0  501 -0.00000000000E+00 -0.00000000000E+00 -0.72588876000E+03  0.72588876000E+03  0.00000000000E+00 0.  1.
         23    2    1    2    0    0 -0.41293198866E+03  0.14270628430E+03  0.13303183357E+04  0.14031639590E+04  0.90798186067E+02 0.  0.
         13    1    3    3    0    0 -0.91402510577E+02  0.21557887821E+02  0.41467306723E+03  0.42517398103E+03  0.00000000000E+00 0.  1.
        -13    1    3    3    0    0 -0.32152947809E+03  0.12114839648E+03  0.91564526850E+03  0.97798997795E+03  0.00000000000E+00 0. -1.
         22    1    1    2    0    0  0.41293198866E+03 -0.14270628430E+03 -0.62025371560E+03  0.75867818115E+03  0.00000000000E+00 0.  1.
<mgrwt>
<rscale>  0 0.20419034E+04</rscale>
<asrwt>0</asrwt>
<pdfrwt beam="1">  1        2 0.22091590E+00 0.20419034E+04</pdfrwt>
<pdfrwt beam="2">  1       -2 0.11167519E+00 0.20419034E+04</pdfrwt>
<totfact> 0.80951868E+00</totfact>
</mgrwt>
</event>
<event>
 6    1  0.9364335E-007  0.2223348E+04  0.7818608E-02  0.8508773E-01
          2   -1    0    0  501    0  0.00000000000E+00  0.00000000000E+00  0.24510310938E+04  0.24510310938E+04  0.00000000000E+00 0. -1.
         -2   -1    0    0    0  501 -0.00000000000E+00 -0.00000000000E+00 -0.50420357347E+03  0.50420357347E+03  0.00000000000E+00 0.  1.
         23    2    1    2    0    0 -0.22971627797E+03 -0.37162596422E+03  0.23310818084E+04  0.23734041219E+04  0.90715503866E+02 0.  0.
         13    1    3    3    0    0 -0.15271803279E+03 -0.31076134538E+03  0.18995923146E+04  0.19308926363E+04  0.00000000000E+00 0.  1.
        -13    1    3    3    0    0 -0.76998245176E+02 -0.60864618841E+02  0.43148949385E+03  0.44251148560E+03  0.00000000000E+00 0. -1.
         22    1    1    2    0    0  0.22971627797E+03  0.37162596422E+03 -0.38425428807E+03  0.58183054539E+03  0.00000000000E+00 0.  1.
<mgrwt>
<rscale>  0 0.22233476E+04</rscale>
<asrwt>0</asrwt>
<pdfrwt beam="1">  1        2 0.37708170E+00 0.22233476E+04</pdfrwt>
<pdfrwt beam="2">  1       -2 0.77569782E-01 0.22233476E+04</pdfrwt>
<totfact> 0.50215475E+00</totfact>
</mgrwt>
</event>
<event>
 6    1  0.9364335E-007  0.1395115E+04  0.7818608E-02  0.8957362E-01
         -2   -1    0    0    0  501 -0.00000000000E+00  0.00000000000E+00  0.65617250783E+03  0.65617250783E+03  0.00000000000E+00 0.  1.
          2   -1    0    0  501    0  0.00000000000E+00 -0.00000000000E+00 -0.74155300393E+03  0.74155300393E+03  0.00000000000E+00 0. -1.
         23    2    1    2    0    0 -0.65194669318E+03  0.21613337838E+03  0.60652355798E+02  0.69553342847E+03  0.91323128788E+02 0.  0.
         13    1    3    3    0    0 -0.15504099158E+03  0.12304386009E+02  0.21724178097E+02  0.15703836124E+03  0.00000000000E+00 0.  1.
        -13    1    3    3    0    0 -0.49690570160E+03  0.20382899237E+03  0.38928177701E+02  0.53849506723E+03  0.00000000000E+00 0. -1.
         22    1    1    2    0    0  0.65194669318E+03 -0.21613337838E+03 -0.14603285190E+03  0.70219208329E+03  0.00000000000E+00 0. -1.
<mgrwt>
<rscale>  0 0.13951153E+04</rscale>
<asrwt>0</asrwt>
<pdfrwt beam="1">  1        2 0.11408508E+00 0.13951153E+04</pdfrwt>
<pdfrwt beam="2">  1       -2 0.10094962E+00 0.13951153E+04</pdfrwt>
<totfact> 0.29931336E+01</totfact>
</mgrwt>
</event>
<event>
 6    1  0.9364335E-007  0.1774324E+04  0.7818608E-02  0.8720074E-01
         -2   -1    0    0    0  501 -0.00000000000E+00  0.00000000000E+00  0.41985225922E+03  0.41985225922E+03  0.00000000000E+00 0.  1.
          2   -1    0    0  501    0  0.00000000000E+00 -0.00000000000E+00 -0.18746028477E+04  0.18746028477E+04  0.00000000000E+00 0. -1.
         23    2    1    2    0    0  0.84244667432E+03 -0.10962405506E+03 -0.10490265366E+04  0.13529956873E+04  0.91688728050E+02 0.  0.
         11    1    3    3    0    0  0.27423548337E+03 -0.59365050833E+02 -0.40457729762E+03  0.49235363241E+03  0.00000000000E+00 0. -1.
        -11    1    3    3    0    0  0.56821119095E+03 -0.50259004225E+02 -0.64444923897E+03  0.86064205488E+03  0.00000000000E+00 0.  1.
         22    1    1    2    0    0 -0.84244667432E+03  0.10962405506E+03 -0.40572405189E+03  0.94145941962E+03  0.00000000000E+00 0.  1.
<mgrwt>
<rscale>  0 0.17743238E+04</rscale>
<asrwt>0</asrwt>
<pdfrwt beam="1">  1        2 0.28840044E+00 0.17743238E+04</pdfrwt>
<pdfrwt beam="2">  1       -2 0.64592654E-01 0.17743238E+04</pdfrwt>
<totfact> 0.16419181E+01</totfact>
</mgrwt>
</event>
<event>
 6    1  0.9364335E-007  0.3727679E+04  0.7818608E-02  0.8061855E-01
          2   -1    0    0  501    0  0.00000000000E+00  0.00000000000E+00  0.14622593226E+04  0.14622593226E+04  0.00000000000E+00 0. -1.
         -2   -1    0    0    0  501 -0.00000000000E+00 -0.00000000000E+00 -0.23757052408E+04  0.23757052408E+04  0.00000000000E+00 0.  1.
         23    2    1    2    0    0  0.16048593591E+04  0.51040125590E+03 -0.12765579619E+04  0.21151954666E+04  0.91480200219E+02 0.  0.
         11    1    3    3    0    0  0.59987253055E+03  0.21027005155E+03 -0.53259986749E+03  0.82929076103E+03  0.00000000000E+00 0. -1.
        -11    1    3    3    0    0  0.10049868286E+04  0.30013120435E+03 -0.74395809444E+03  0.12859047055E+04  0.00000000000E+00 0.  1.
         22    1    1    2    0    0 -0.16048593591E+04 -0.51040125590E+03  0.36311204377E+03  0.17227690968E+04  0.00000000000E+00 0. -1.
<mgrwt>
<rscale>  0 0.37276787E+04</rscale>
<asrwt>0</asrwt>
<pdfrwt beam="1">  1        2 0.22496297E+00 0.37276787E+04</pdfrwt>
<pdfrwt beam="2">  1       -2 0.36549311E+00 0.37276787E+04</pdfrwt>
<totfact> 0.13336704E-01</totfact>
</mgrwt>
</event>
<event>
 6    1  0.9364335E-007  0.1968567E+04  0.7818608E-02  0.8621459E-01
         -2   -1    0    0    0  501 -0.00000000000E+00  0.00000000000E+00  0.10336082602E+04  0.10336082602E+04  0.00000000000E+00 0.  1.
          2   -1    0    0  501    0  0.00000000000E+00 -0.00000000000E+00 -0.93731258386E+03  0.93731258386E+03  0.00000000000E+00 0. -1.
         23    2    1    2    0    0 -0.74231222290E+03  0.31472039685E+03 -0.51335969743E+03  0.96010135512E+03  0.90443732201E+02 0.  0.
         13    1    3    3    0    0 -0.29298411139E+03  0.12857032046E+03 -0.15219769178E+03  0.35430799344E+03  0.00000000000E+00 0.  1.
        -13    1    3    3    0    0 -0.44932811151E+03  0.18615007639E+03 -0.36116200564E+03  0.60579336168E+03  0.00000000000E+00 0. -1.
         22    1    1    2    0    0  0.74231222290E+03 -0.31472039685E+03  0.60965537377E+03  0.10108194889E+04  0.00000000000E+00 0.  1.
<mgrwt>
<rscale>  0 0.19685670E+04</rscale>
<asrwt>0</asrwt>
<pdfrwt beam="1">  1        2 0.14420194E+00 0.19685670E+04</pdfrwt>
<pdfrwt beam="2">  1       -2 0.15901666E+00 0.19685670E+04</pdfrwt>
<totfact> 0.66025580E+00</totfact>
</mgrwt>
</event>
<event>
 6    1  0.9364335E-007  0.4675161E+04  0.7818608E-02  0.7880669E-01
          1   -1    0    0  501    0  0.00000000000E+00  0.00000000000E+00  0.39749107871E+04  0.39749107871E+04  0.00000000000E+00 0. -1.
         -1   -1    0    0    0  501 -0.00000000000E+00 -0.00000000000E+00 -0.13746929503E+04  0.13746929503E+04  0.00000000000E+00 0.  1.
         23    2    1    2    0    0  0.19089583487E+04  0.13460328737E+04  0.13742909439E+04  0.27116455835E+04  0.91758911979E+02 0.  0.
         11    1    3    3    0    0  0.80067035956E+03  0.54191281223E+03  0.61674485405E+03  0.11467853922E+04  0.00000000000E+00 0.  1.
        -11    1    3    3    0    0  0.11082879892E+04  0.80412006152E+03  0.75754608980E+03  0.15648601914E+04  0.00000000000E+00 0. -1.
         22    1    1    2    0    0 -0.19089583487E+04 -0.13460328737E+04  0.12259268930E+04  0.26379581538E+04  0.00000000000E+00 0.  1.
<mgrwt>
<rscale>  0 0.46751607E+04</rscale>
<asrwt>0</asrwt>
<pdfrwt beam="1">  1        1 0.61152473E+00 0.46751607E+04</pdfrwt>
<pdfrwt beam="2">  1       -1 0.21149122E+00 0.46751607E+04</pdfrwt>
<totfact> 0.93610724E-03</totfact>
</mgrwt>
</event>
<event>
 6    1  0.9364335E-007  0.5081919E+04  0.7818608E-02  0.7815993E-01
         -2   -1    0    0    0  501 -0.00000000000E+00  0.00000000000E+00  0.14522909861E+04  0.14522909861E+04  0.00000000000E+00 0.  1.
          2   -1    0    0  501    0  0.00000000000E+00 -0.00000000000E+00 -0.44457164797E+04  0.44457164797E+04  0.00000000000E+00 0. -1.
         23    2    1    2    0    0 -0.16392248008E+04  0.12071516529E+04  0.26591835087E+03  0.20551445543E+04  0.92916678016E+02 0.  0.
         11    1    3    3    0    0 -0.42719923362E+03  0.26799882473E+03  0.80065807982E+02  0.51062029813E+03  0.00000000000E+00 0. -1.
        -11    1    3    3    0    0 -0.12120255672E+04  0.93915282813E+03  0.18585254289E+03  0.15445242561E+04  0.00000000000E+00 0.  1.
         22    1    1    2    0    0  0.16392248008E+04 -0.12071516529E+04 -0.32593438445E+04  0.38428629116E+04  0.00000000000E+00 0. -1.
<mgrwt>
<rscale>  0 0.50819185E+04</rscale>
<asrwt>0</asrwt>
<pdfrwt beam="1">  1        2 0.68395638E+00 0.50819185E+04</pdfrwt>
<pdfrwt beam="2">  1       -2 0.22342938E+00 0.50819185E+04</pdfrwt>
<totfact> 0.93598204E-03</totfact>
</mgrwt>
</event>
<event>
 6    1  0.9364335E-007  0.1774371E+04  0.7818608E-02  0.8720048E-01
          2   -1    0    0  501    0  0.00000000000E+00  0.00000000000E+00  0.64347749108E+03  0.64347749108E+03  0.00000000000E+00 0. -1.
         -2   -1    0    0    0  501 -0.00000000000E+00 -0.00000000000E+00 -0.12231951577E+04  0.12231951577E+04  0.00000000000E+00 0.  1.
         23    2    1    2    0    0 -0.40406615706E+03 -0.76119020442E+03 -0.50139065057E+03  0.10013316131E+04  0.92695351872E+02 0.  0.
         11    1    3    3    0    0 -0.18055517910E+03 -0.43213483555E+03 -0.29017430938E+03  0.55094629377E+03  0.00000000000E+00 0.  1.
        -11    1    3    3    0    0 -0.22351097795E+03 -0.32905536888E+03 -0.21121634119E+03  0.45038531929E+03  0.00000000000E+00 0. -1.
         22    1    1    2    0    0  0.40406615706E+03  0.76119020442E+03 -0.78327016014E+02  0.86534103568E+03  0.00000000000E+00 0. -1.
<mgrwt>
<rscale>  0 0.17743715E+04</rscale>
<asrwt>0</asrwt>
<pdfrwt beam="1">  1        2 0.98996538E-01 0.17743715E+04</pdfrwt>
<pdfrwt beam="2">  1       -2 0.18818387E+00 0.17743715E+04</pdfrwt>
<totfact> 0.68605953E+00</totfact>
</mgrwt>
</event>
<event>
 6    1  0.9364335E-007  0.2739940E+04  0.7818608E-02  0.8322161E-01
         -1   -1    0    0    0  501 -0.00000000000E+00  0.00000000000E+00  0.90099492176E+03  0.90099492176E+03  0.00000000000E+00 0.  1.
          1   -1    0    0  501    0  0.00000000000E+00 -0.00000000000E+00 -0.20830505257E+04  0.20830505257E+04  0.00000000000E+00 0. -1.
         23    2    1    2    0    0  0.14292212502E+03  0.56967017315E+03  0.75460531735E+03  0.96028499620E+03  0.88131997397E+02 0.  0.
         13    1    3    3    0    0  0.10289048503E+03  0.24210255533E+03  0.30951310666E+03  0.40620002757E+03  0.00000000000E+00 0.  1.
        -13    1    3    3    0    0  0.40031639992E+02  0.32756761782E+03  0.44509221069E+03  0.55408496863E+03  0.00000000000E+00 0. -1.
         22    1    1    2    0    0 -0.14292212502E+03 -0.56967017315E+03 -0.19366609213E+04  0.20237604513E+04  0.00000000000E+00 0. -1.
<mgrwt>
<rscale>  0 0.27399401E+04</rscale>
<asrwt>0</asrwt>
<pdfrwt beam="1">  1        1 0.32046931E+00 0.27399401E+04</pdfrwt>
<pdfrwt beam="2">  1       -1 0.13861460E+00 0.27399401E+04</pdfrwt>
<totfact> 0.97950326E-01</totfact>
</mgrwt>
</event>
<event>
 6    1  0.9364335E-007  0.4781354E+04  0.7818608E-02  0.7863150E-01
          2   -1    0    0  501    0  0.00000000000E+00  0.00000000000E+00  0.36131115479E+04  0.36131115479E+04  0.00000000000E+00 0. -1.
         -2   -1    0    0    0  501 -0.00000000000E+00 -0.00000000000E+00 -0.15818324307E+04  0.15818324307E+04  0.00000000000E+00 0.  1.
         23    2    1    2    0    0 -0.69842186290E+02  0.21930343035E+04 -0.13132726104E+02  0.21959612891E+04  0.88295680582E+02 0.  0.
         13    1    3    3    0    0 -0.18630982728E+02  0.14327704624E+04  0.23659087337E+02  0.14330869003E+04  0.00000000000E+00 0.  1.
        -13    1    3    3    0    0 -0.51211203562E+02  0.76026384112E+03 -0.36791813441E+02  0.76287438876E+03  0.00000000000E+00 0. -1.
         22    1    1    2    0    0  0.69842186290E+02 -0.21930343035E+04  0.20444118433E+04  0.29989826896E+04  0.00000000000E+00 0.  1.
<mgrwt>
<rscale>  0 0.47813542E+04</rscale>
<asrwt>0</asrwt>
<pdfrwt beam="1">  1        2 0.55586331E+00 0.47813542E+04</pdfrwt>
<pdfrwt beam="2">  1       -2 0.24335884E+00 0.47813542E+04</pdfrwt>
<totfact> 0.35251181E-02</totfact>
</mgrwt>
</event>
<event>
 6    1  0.9364335E-007  0.3797124E+04  0.7818608E-02  0.8046772E-01
         -2   -1    0    0    0  501 -0.00000000000E+00  0.00000000000E+00  0.12768774789E+04  0.12768774789E+04  0.00000000000E+00 0.  1.
          2   -1    0    0  501    0  0.00000000000E+00 -0.00000000000E+00 -0.28229316505E+04  0.28229316505E+04  0.00000000000E+00 0. -1.
         23    2    1    2    0    0 -0.76472818093E+03 -0.15195712097E+04 -0.16810408389E+04  0.23933135236E+04  0.90252247246E+02 0.  0.
         13    1    3    3    0    0 -0.59364872285E+03 -0.11449411786E+04 -0.13228549251E+04  0.18474994619E+04  0.00000000000E+00 0. -1.
        -13    1    3    3    0    0 -0.17107945807E+03 -0.37463003109E+03 -0.35818591374E+03  0.54581406173E+03  0.00000000000E+00 0.  1.
         22    1    1    2    0    0  0.76472818093E+03  0.15195712097E+04  0.13498666731E+03  0.17064956058E+04  0.00000000000E+00 0.  1.
<mgrwt>
<rscale>  0 0.37971241E+04</rscale>
<asrwt>0</asrwt>
<pdfrwt beam="1">  1        2 0.43429717E+00 0.37971241E+04</pdfrwt>
<pdfrwt beam="2">  1       -2 0.19644269E+00 0.37971241E+04</pdfrwt>
<totfact> 0.25205578E-01</totfact>
</mgrwt>
</event>
<event>
 6    1  0.9364335E-007  0.1319062E+04  0.7818608E-02  0.9014584E-01
         -1   -1    0    0    0  501 -0.00000000000E+00  0.00000000000E+00  0.71175160466E+03  0.71175160466E+03  0.00000000000E+00 0.  1.
          1   -1    0    0  501    0  0.00000000000E+00 -0.00000000000E+00 -0.61114192959E+03  0.61114192959E+03  0.00000000000E+00 0. -1.
         23    2    1    2    0    0  0.59162364110E+03 -0.13974709147E+03 -0.19742577739E+03  0.64586110283E+03  0.92800023119E+02 0.  0.
         11    1    3    3    0    0  0.24316681580E+03 -0.75704306578E+02 -0.12719203126E+03  0.28467359406E+03  0.00000000000E+00 0. -1.
        -11    1    3    3    0    0  0.34845682530E+03 -0.64042784892E+02 -0.70233746127E+02  0.36118750877E+03  0.00000000000E+00 0.  1.
         22    1    1    2    0    0 -0.59162364110E+03  0.13974709147E+03  0.29803545245E+03  0.67703243142E+03  0.00000000000E+00 0.  1.
<mgrwt>
<rscale>  0 0.13190622E+04</rscale>
<asrwt>0</asrwt>
<pdfrwt beam="1">  1        1 0.94021835E-01 0.13190622E+04</pdfrwt>
<pdfrwt beam="2">  1       -1 0.10950025E+00 0.13190622E+04</pdfrwt>
<totfact> 0.25250584E+01</totfact>
</mgrwt>
</event>
<event>
 6    1  0.9364335E-007  0.3911867E+04  0.7818608E-02  0.8022566E-01
          2   -1    0    0  501    0  0.00000000000E+00  0.00000000000E+00  0.22444476170E+04  0.22444476170E+04  0.00000000000E+00 0. -1.
         -2   -1    0    0    0  501 -0.00000000000E+00 -0.00000000000E+00 -0.17045062029E+04  0.17045062029E+04  0.00000000000E+00 0.  1.
         23    2    1    2    0    0 -0.16196152926E+04  0.10390924811E+04  0.61850002279E+03  0.20230674433E+04  0.85980938261E+02 0.  0.
         11    1    3    3    0    0 -0.70172294289E+03  0.48751770797E+03  0.24410877411E+03  0.88863811406E+03  0.00000000000E+00 0.  1.
        -11    1    3    3    0    0 -0.91789234970E+03  0.55157477316E+03  0.37439124868E+03  0.11344293293E+04  0.00000000000E+00 0. -1.
         22    1    1    2    0    0  0.16196152926E+04 -0.10390924811E+04 -0.78558608744E+02  0.19258863765E+04  0.00000000000E+00 0.  1.
<mgrwt>
<rscale>  0 0.39118665E+04</rscale>
<asrwt>0</asrwt>
<pdfrwt beam="1">  1        2 0.34529963E+00 0.39118665E+04</pdfrwt>
<pdfrwt beam="2">  1       -2 0.26223172E+00 0.39118665E+04</pdfrwt>
<totfact> 0.20939173E-01</totfact>
</mgrwt>
</event>
<event>
 6    1  0.9364335E-007  0.1734666E+04  0.7818608E-02  0.8741836E-01
         -2   -1    0    0    0  501 -0.00000000000E+00  0.00000000000E+00  0.73437325823E+03  0.73437325823E+03  0.00000000000E+00 0.  1.
          2   -1    0    0  501    0  0.00000000000E+00 -0.00000000000E+00 -0.10243657704E+04  0.10243657704E+04  0.00000000000E+00 0. -1.
         23    2    1    2    0    0  0.44216367428E+03  0.74316846416E+03 -0.13557685586E+03  0.88030162284E+03  0.93497499193E+02 0.  0.
         13    1    3    3    0    0  0.19581360359E+03  0.37931758089E+03 -0.27279550854E+02  0.42774872112E+03  0.00000000000E+00 0.  1.
        -13    1    3    3    0    0  0.24635007069E+03  0.36385088327E+03 -0.10829730501E+03  0.45255290172E+03  0.00000000000E+00 0. -1.
         22    1    1    2    0    0 -0.44216367428E+03 -0.74316846416E+03 -0.15441565631E+03  0.87843740579E+03  0.00000000000E+00 0. -1.
<mgrwt>
<rscale>  0 0.17346663E+04</rscale>
<asrwt>0</asrwt>
<pdfrwt beam="1">  1        2 0.15759473E+00 0.17346663E+04</pdfrwt>
<pdfrwt beam="2">  1       -2 0.11298050E+00 0.17346663E+04</pdfrwt>
<totfact> 0.14199537E+01</totfact>
</mgrwt>
</event>
<event>
 6    1  0.9364335E-007  0.3781130E+04  0.7818608E-02  0.8050216E-01
         -2   -1    0    0    0  501 -0.00000000000E+00  0.00000000000E+00  0.10551256226E+04  0.10551256226E+04  0.00000000000E+00 0.  1.
          2   -1    0    0  501    0  0.00000000000E+00 -0.00000000000E+00 -0.33874981329E+04  0.33874981329E+04  0.00000000000E+00 0. -1.
         23    2    1    2    0    0  0.63880447181E+03  0.56681020910E+02  0.92155264946E+03  0.11261025605E+04  0.86970108646E+02 0.  0.
         13    1    3    3    0    0  0.47488542047E+03  0.75222929787E+02  0.71762133545E+03  0.86380265850E+03  0.00000000000E+00 0.  1.
        -13    1    3    3    0    0  0.16391905134E+03 -0.18541908877E+02  0.20393131401E+03  0.26229990204E+03  0.00000000000E+00 0. -1.
         22    1    1    2    0    0 -0.63880447181E+03 -0.56681020910E+02 -0.32539251598E+04  0.33165211950E+04  0.00000000000E+00 0. -1.
<mgrwt>
<rscale>  0 0.37811300E+04</rscale>
<asrwt>0</asrwt>
<pdfrwt beam="1">  1        2 0.52115356E+00 0.37811300E+04</pdfrwt>
<pdfrwt beam="2">  1       -2 0.16232702E+00 0.37811300E+04</pdfrwt>
<totfact> 0.18879370E-01</totfact>
</mgrwt>
</event>
<event>
 6    1  0.9364335E-007  0.1779073E+04  0.7818608E-02  0.8717508E-01
         -1   -1    0    0    0  501 -0.00000000000E+00  0.00000000000E+00  0.80002907573E+03  0.80002907573E+03  0.00000000000E+00 0.  1.
          1   -1    0    0  501    0  0.00000000000E+00 -0.00000000000E+00 -0.98905778801E+03  0.98905778801E+03  0.00000000000E+00 0. -1.
         23    2    1    2    0    0 -0.15347265215E+03 -0.21738645205E+03 -0.94586805276E+03  0.98682972803E+03  0.91410143908E+02 0.  0.
         13    1    3    3    0    0 -0.85983395137E+02 -0.56020700513E+02 -0.27465194825E+03  0.29319815109E+03  0.00000000000E+00 0. -1.
        -13    1    3    3    0    0 -0.67489257009E+02 -0.16136575153E+03 -0.67121610451E+03  0.69363157694E+03  0.00000000000E+00 0.  1.
         22    1    1    2    0    0  0.15347265215E+03  0.21738645205E+03  0.75683934048E+03  0.80225713570E+03  0.00000000000E+00 0.  1.
<mgrwt>
<rscale>  0 0.17790728E+04</rscale>
<asrwt>0</asrwt>
<pdfrwt beam="1">  1        1 0.15216274E+00 0.17790728E+04</pdfrwt>
<pdfrwt beam="2">  1       -1 0.12308140E+00 0.17790728E+04</pdfrwt>
<totfact> 0.84857136E+00</totfact>
</mgrwt>
</event>
<event>
 6    1  0.9364335E-007  0.2136627E+04  0.7818608E-02  0.8545278E-01
          1   -1    0    0  501    0  0.00000000000E+00  0.00000000000E+00  0.12162174477E+04  0.12162174477E+04  0.00000000000E+00 0. -1.
         -1   -1    0    0    0  501 -0.00000000000E+00 -0.00000000000E+00 -0.93839628164E+03  0.93839628164E+03  0.00000000000E+00 0.  1.
         23    2    1    2    0    0 -0.27347337608E+02 -0.84166624904E+03  0.79880073726E+03  0.11643765530E+04  0.92413136275E+02 0.  0.
         11    1    3    3    0    0  0.11156376627E+02 -0.22408267406E+03  0.26448464492E+03  0.34682796448E+03  0.00000000000E+00 0. -1.
        -11    1    3    3    0    0 -0.38503714235E+02 -0.61758357498E+03  0.53431609235E+03  0.81754858855E+03  0.00000000000E+00 0.  1.
         22    1    1    2    0    0  0.27347337608E+02  0.84166624904E+03 -0.52097957123E+03  0.99023717628E+03  0.00000000000E+00 0.  1.
<mgrwt>
<rscale>  0 0.21366272E+04</rscale>
<asrwt>0</asrwt>
<pdfrwt beam="1">  1        1 0.18711038E+00 0.21366272E+04</pdfrwt>
<pdfrwt beam="2">  1       -1 0.14436866E+00 0.21366272E+04</pdfrwt>
<totfact> 0.36849669E+00</totfact>
</mgrwt>
</event>
<event>
 6    1  0.9364335E-007  0.1819487E+04  0.7818608E-02  0.8696005E-01
         -1   -1    0    0    0  501 -0.00000000000E+00  0.00000000000E+00  0.51825356919E+03  0.51825356919E+03  0.00000000000E+00 0.  1.
          1   -1    0    0  501    0  0.00000000000E+00 -0.00000000000E+00 -0.15969659762E+04  0.15969659762E+04  0.00000000000E+00 0. -1.
         23    2    1    2    0    0 -0.54887814275E+03 -0.14852615493E+03  0.28100696603E+03  0.64139323009E+03  0.95357885701E+02 0.  0.
         13    1    3    3    0    0 -0.30783218595E+03 -0.60490154655E+02  0.20101878806E+03  0.37259665413E+03  0.00000000000E+00 0.  1.
        -13    1    3    3    0    0 -0.24104595680E+03 -0.88036000271E+02  0.79988177971E+02  0.26879657596E+03  0.00000000000E+00 0. -1.
         22    1    1    2    0    0  0.54887814275E+03  0.14852615493E+03 -0.13597193731E+04  0.14738263153E+04  0.00000000000E+00 0. -1.
<mgrwt>
<rscale>  0 0.18194871E+04</rscale>
<asrwt>0</asrwt>
<pdfrwt beam="1">  1        1 0.24568707E+00 0.18194871E+04</pdfrwt>
<pdfrwt beam="2">  1       -1 0.79731318E-01 0.18194871E+04</pdfrwt>
<totfact> 0.82981175E+00</totfact>
</mgrwt>
</event>
<event>
 6    1  0.9364335E-007  0.3174420E+04  0.7818608E-02  0.8195606E-01
         -2   -1    0    0    0  501 -0.00000000000E+00  0.00000000000E+00  0.94270880018E+03  0.94270880018E+03  0.00000000000E+00 0.  1.
          2   -1    0    0  501    0  0.00000000000E+00 -0.00000000000E+00 -0.26723370413E+04  0.26723370413E+04  0.00000000000E+00 0. -1.
         23    2    1    2    0    0  0.19216153011E+03 -0.60268743818E+03 -0.25217956001E+04  0.26012966977E+04  0.84458621436E+02 0.  0.
         11    1    3    3    0    0  0.89242212300E+02 -0.38371942482E+03 -0.16669417309E+04  0.17128629553E+04  0.00000000000E+00 0.  1.
        -11    1    3    3    0    0  0.10291931781E+03 -0.21896801336E+03 -0.85485386919E+03  0.88843374234E+03  0.00000000000E+00 0. -1.
         22    1    1    2    0    0 -0.19216153011E+03  0.60268743818E+03  0.79216735903E+03  0.10137491438E+04  0.00000000000E+00 0.  1.
<mgrwt>
<rscale>  0 0.31744200E+04</rscale>
<asrwt>0</asrwt>
<pdfrwt beam="1">  1        2 0.41112878E+00 0.31744200E+04</pdfrwt>
<pdfrwt beam="2">  1       -2 0.14503212E+00 0.31744200E+04</pdfrwt>
<totfact> 0.76191207E-01</totfact>
</mgrwt>
</event>
<event>
 6    1  0.9364335E-007  0.2800080E+04  0.7818608E-02  0.8303244E-01
         -3   -1    0    0    0  501 -0.00000000000E+00  0.00000000000E+00  0.20366506638E+04  0.20366506638E+04  0.00000000000E+00 0.  1.
          3   -1    0    0  501    0  0.00000000000E+00 -0.00000000000E+00 -0.96241905406E+03  0.96241905406E+03  0.00000000000E+00 0. -1.
         23    2    1    2    0    0  0.27608423519E+03 -0.13255042521E+04  0.16241148877E+03  0.13667094757E+04  0.91286756221E+02 0.  0.
         13    1    3    3    0    0  0.18451525874E+03 -0.10628056184E+04  0.12173301973E+03  0.10855508239E+04  0.00000000000E+00 0.  1.
        -13    1    3    3    0    0  0.91568976450E+02 -0.26269863372E+03  0.40678469038E+02  0.28115865174E+03  0.00000000000E+00 0. -1.
         22    1    1    2    0    0 -0.27608423519E+03  0.13255042521E+04  0.91182012097E+03  0.16323602422E+04  0.00000000000E+00 0. -1.
<mgrwt>
<rscale>  0 0.28000796E+04</rscale>
<asrwt>0</asrwt>
<pdfrwt beam="1">  1        3 0.14806447E+00 0.28000796E+04</pdfrwt>
<pdfrwt beam="2">  1       -3 0.31333087E+00 0.28000796E+04</pdfrwt>
<totfact> 0.24211599E-02</totfact>
</mgrwt>
</event>
<event>
 6    1  0.9364335E-007  0.7640880E+03  0.7818608E-02  0.9613504E-01
         -1   -1    0    0    0  501 -0.00000000000E+00  0.00000000000E+00  0.63170684914E+02  0.63170684914E+02  0.00000000000E+00 0.  1.
          1   -1    0    0  501    0  0.00000000000E+00 -0.00000000000E+00 -0.23105274725E+04  0.23105274725E+04  0.00000000000E+00 0. -1.
         23    2    1    2    0    0  0.31019344112E+03  0.10421770528E+03 -0.17190006138E+04  0.17522148130E+04  0.90621960153E+02 0.  0.
         11    1    3    3    0    0  0.21997869123E+03  0.42093750297E+02 -0.98907845056E+03  0.10141196625E+04  0.00000000000E+00 0.  1.
        -11    1    3    3    0    0  0.90214749884E+02  0.62123954987E+02 -0.72992216325E+03  0.73809515056E+03  0.00000000000E+00 0. -1.
         22    1    1    2    0    0 -0.31019344112E+03 -0.10421770528E+03 -0.52835617382E+03  0.62148334444E+03  0.00000000000E+00 0.  1.
<mgrwt>
<rscale>  0 0.76408796E+03</rscale>
<asrwt>0</asrwt>
<pdfrwt beam="1">  1        1 0.35546579E+00 0.76408796E+03</pdfrwt>
<pdfrwt beam="2">  1       -1 0.97185661E-02 0.76408796E+03</pdfrwt>
<totfact> 0.12518337E+02</totfact>
</mgrwt>
</event>
<event>
 6    1  0.9364335E-007  0.1340848E+04  0.7818608E-02  0.8997785E-01
          2   -1    0    0  501    0  0.00000000000E+00  0.00000000000E+00  0.10607479423E+04  0.10607479423E+04  0.00000000000E+00 0. -1.
         -2   -1    0    0    0  501 -0.00000000000E+00 -0.00000000000E+00 -0.42372762970E+03  0.42372762970E+03  0.00000000000E+00 0.  1.
         23    2    1    2    0    0 -0.14637465815E+03 -0.63375380160E+03  0.48499175559E+03  0.81650693221E+03  0.91635941480E+02 0.  0.
         11    1    3    3    0    0 -0.10157017495E+02 -0.14801735726E+03  0.73936211405E+02  0.16576750711E+03  0.00000000000E+00 0.  1.
        -11    1    3    3    0    0 -0.13621764065E+03 -0.48573644434E+03  0.41105554418E+03  0.65073942510E+03  0.00000000000E+00 0. -1.
         22    1    1    2    0    0  0.14637465815E+03  0.63375380160E+03  0.15202855701E+03  0.66796863978E+03  0.00000000000E+00 0.  1.
<mgrwt>
<rscale>  0 0.13408478E+04</rscale>
<asrwt>0</asrwt>
<pdfrwt beam="1">  1        2 0.16319199E+00 0.13408478E+04</pdfrwt>
<pdfrwt beam="2">  1       -2 0.65188866E-01 0.13408478E+04</pdfrwt>
<totfact> 0.48879231E+01</totfact>
</mgrwt>
</event>
<event>
 6    1  0.9364335E-007  0.1325638E+04  0.7818608E-02  0.9009477E-01
         -1   -1    0    0    0  501 -0.00000000000E+00  0.00000000000E+00  0.70709788637E+03  0.70709788637E+03  0.00000000000E+00 0.  1.
          1   -1    0    0  501    0  0.00000000000E+00 -0.00000000000E+00 -0.62131289586E+03  0.62131289586E+03  0.00000000000E+00 0. -1.
         23    2    1    2    0    0  0.95464289560E+02  0.62465991188E+02  0.69409838000E+03  0.70949187763E+03  0.92686205407E+02 0.  0.
         11    1    3    3    0    0  0.31694598417E+02 -0.17187514068E+01  0.51076691410E+02  0.60135930030E+02  0.00000000000E+00 0. -1.
        -11    1    3    3    0    0  0.63769691143E+02  0.64184742595E+02  0.64302168859E+03  0.64935594760E+03  0.00000000000E+00 0.  1.
         22    1    1    2    0    0 -0.95464289560E+02 -0.62465991188E+02 -0.60831338949E+03  0.61891890460E+03  0.00000000000E+00 0. -1.
<mgrwt>
<rscale>  0 0.13256380E+04</rscale>
<asrwt>0</asrwt>
<pdfrwt beam="1">  1        1 0.95586599E-01 0.13256380E+04</pdfrwt>
<pdfrwt beam="2">  1       -1 0.10878429E+00 0.13256380E+04</pdfrwt>
<totfact> 0.25021974E+01</totfact>
</mgrwt>
</event>
<event>
 6    1  0.9364335E-007  0.1987415E+04  0.7818608E-02  0.8612527E-01
          2   -1    0    0  501    0  0.00000000000E+00  0.00000000000E+00  0.15559661752E+04  0.15559661752E+04  0.00000000000E+00 0. -1.
         -2   -1    0    0    0  501 -0.00000000000E+00 -0.00000000000E+00 -0.63462441755E+03  0.63462441755E+03  0.00000000000E+00 0.  1.
         23    2    1    2    0    0  0.44756312097E+03 -0.30334963268E+03 -0.45437411509E+03  0.71244042806E+03  0.93711152892E+02 0.  0.
         11    1    3    3    0    0  0.16056100667E+03 -0.56681920965E+02 -0.14444148059E+03  0.22328461286E+03  0.00000000000E+00 0.  1.
        -11    1    3    3    0    0  0.28700211430E+03 -0.24666771171E+03 -0.30993263450E+03  0.48915581520E+03  0.00000000000E+00 0. -1.
         22    1    1    2    0    0 -0.44756312097E+03  0.30334963268E+03  0.13757158728E+04  0.14781501647E+04  0.00000000000E+00 0. -1.
<mgrwt>
<rscale>  0 0.19874145E+04</rscale>
<asrwt>0</asrwt>
<pdfrwt beam="1">  1        2 0.23937941E+00 0.19874145E+04</pdfrwt>
<pdfrwt beam="2">  1       -2 0.97634526E-01 0.19874145E+04</pdfrwt>
<totfact> 0.95964502E+00</totfact>
</mgrwt>
</event>
<event>
 6    1  0.9364335E-007  0.2996129E+04  0.7818608E-02  0.8244837E-01
         -1   -1    0    0    0  501 -0.00000000000E+00  0.00000000000E+00  0.17469871468E+04  0.17469871468E+04  0.00000000000E+00 0.  1.
          1   -1    0    0  501    0  0.00000000000E+00 -0.00000000000E+00 -0.12846099522E+04  0.12846099522E+04  0.00000000000E+00 0. -1.
         23    2    1    2    0    0  0.13647960819E+04 -0.73473753485E+02  0.84788556421E+03  0.16114972995E+04  0.99734039451E+02 0.  0.
         11    1    3    3    0    0  0.18110377033E+03 -0.43381967162E+01  0.74607641171E+02  0.19591757374E+03  0.00000000000E+00 0.  1.
        -11    1    3    3    0    0  0.11836923116E+04 -0.69135556769E+02  0.77327792304E+03  0.14155797257E+04  0.00000000000E+00 0. -1.
         22    1    1    2    0    0 -0.13647960819E+04  0.73473753485E+02 -0.38550836956E+03  0.14200997995E+04  0.00000000000E+00 0. -1.
<mgrwt>
<rscale>  0 0.29961289E+04</rscale>
<asrwt>0</asrwt>
<pdfrwt beam="1">  1        1 0.19763230E+00 0.29961289E+04</pdfrwt>
<pdfrwt beam="2">  1       -1 0.26876725E+00 0.29961289E+04</pdfrwt>
<totfact> 0.41569688E-01</totfact>
</mgrwt>
</event>
<event>
 6    1  0.9364335E-007  0.1634329E+04  0.7818608E-02  0.8799731E-01
          1   -1    0    0  501    0  0.00000000000E+00  0.00000000000E+00  0.14694550318E+04  0.14694550318E+04  0.00000000000E+00 0. -1.
         -1   -1    0    0    0  501 -0.00000000000E+00 -0.00000000000E+00 -0.45442558208E+03  0.45442558208E+03  0.00000000000E+00 0.  1.
         23    2    1    2    0    0  0.83447621742E+02 -0.36201949827E+03  0.13624990726E+04  0.14151992189E+04  0.91452083487E+02 0.  0.
         13    1    3    3    0    0  0.91191873510E+02 -0.20117381164E+03  0.74555209824E+03  0.77758265894E+03  0.00000000000E+00 0.  1.
        -13    1    3    3    0    0 -0.77442517683E+01 -0.16084568663E+03  0.61694697438E+03  0.63761655996E+03  0.00000000000E+00 0. -1.
         22    1    1    2    0    0 -0.83447621742E+02  0.36201949827E+03 -0.34746962293E+03  0.50868139495E+03  0.00000000000E+00 0.  1.
<mgrwt>
<rscale>  0 0.16343292E+04</rscale>
<asrwt>0</asrwt>
<pdfrwt beam="1">  1        1 0.22607000E+00 0.16343292E+04</pdfrwt>
<pdfrwt beam="2">  1       -1 0.69911629E-01 0.16343292E+04</pdfrwt>
<totfact> 0.13596138E+01</totfact>
</mgrwt>
</event>
<event>
 6    1  0.9994971E-007  0.2338108E+04  0.7818608E-02  0.8463045E-01
         -1   -1    0    0    0  501 -0.00000000000E+00  0.00000000000E+00  0.18440617216E+04  0.18440617216E+04  0.00000000000E+00 0.  1.
          1   -1    0    0  501    0  0.00000000000E+00 -0.00000000000E+00 -0.74112897037E+03  0.74112897037E+03  0.00000000000E+00 0. -1.
         23    2    1    2    0    0  0.13910934274E+03 -0.11592903976E+04  0.51680089579E+03  0.12787236288E+04  0.68886266391E+02 0.  0.
         13    1    3    3    0    0  0.94093460198E+02 -0.55814267117E+03  0.27372497260E+03  0.62873061104E+03  0.00000000000E+00 0.  1.
        -13    1    3    3    0    0  0.45015882546E+02 -0.60114772644E+03  0.24307592319E+03  0.64999301774E+03  0.00000000000E+00 0. -1.
         22    1    1    2    0    0 -0.13910934274E+03  0.11592903976E+04  0.58613185545E+03  0.13064670632E+04  0.00000000000E+00 0. -1.
<mgrwt>
<rscale>  0 0.23381083E+04</rscale>
<asrwt>0</asrwt>
<pdfrwt beam="1">  1        1 0.11401984E+00 0.23381083E+04</pdfrwt>
<pdfrwt beam="2">  1       -1 0.28370180E+00 0.23381083E+04</pdfrwt>
<totfact> 0.94687760E-01</totfact>
</mgrwt>
</event>
<event>
 6    1  0.9364335E-007  0.1592999E+04  0.7818608E-02  0.8824861E-01
          2   -1    0    0  501    0  0.00000000000E+00  0.00000000000E+00  0.25216302666E+03  0.25216302666E+03  0.00000000000E+00 0. -1.
         -2   -1    0    0    0  501 -0.00000000000E+00 -0.00000000000E+00 -0.25158777237E+04  0.25158777237E+04  0.00000000000E+00 0.  1.
         23    2    1    2    0    0 -0.11218449996E+03  0.78107757145E+03 -0.98810803584E+03  0.12680941217E+04  0.95066694349E+02 0.  0.
         11    1    3    3    0    0 -0.47200350250E+02  0.14532418774E+03 -0.14983527890E+03  0.21400374625E+03  0.00000000000E+00 0.  1.
        -11    1    3    3    0    0 -0.64984149714E+02  0.63575338371E+03 -0.83827275695E+03  0.10540903755E+04  0.00000000000E+00 0. -1.
         22    1    1    2    0    0  0.11218449996E+03 -0.78107757145E+03 -0.12756066612E+04  0.14999466286E+04  0.00000000000E+00 0.  1.
<mgrwt>
<rscale>  0 0.15929989E+04</rscale>
<asrwt>0</asrwt>
<pdfrwt beam="1">  1        2 0.38794311E-01 0.15929989E+04</pdfrwt>
<pdfrwt beam="2">  1       -2 0.38705812E+00 0.15929989E+04</pdfrwt>
<totfact> 0.11612270E+00</totfact>
</mgrwt>
</event>
<event>
 6    1  0.9364335E-007  0.1591563E+04  0.7818608E-02  0.8825748E-01
         -2   -1    0    0    0  501 -0.00000000000E+00  0.00000000000E+00  0.78253992225E+03  0.78253992225E+03  0.00000000000E+00 0.  1.
          2   -1    0    0  501    0  0.00000000000E+00 -0.00000000000E+00 -0.80924759229E+03  0.80924759229E+03  0.00000000000E+00 0. -1.
         23    2    1    2    0    0  0.34197062285E+03 -0.44301865731E+03  0.54878441983E+03  0.78904186172E+03  0.90627161909E+02 0.  0.
         11    1    3    3    0    0  0.43673773821E+01 -0.35326223672E+02  0.19937657753E+02  0.40798606113E+02  0.00000000000E+00 0. -1.
        -11    1    3    3    0    0  0.33760324547E+03 -0.40769243364E+03  0.52884676208E+03  0.74824325561E+03  0.00000000000E+00 0.  1.
         22    1    1    2    0    0 -0.34197062285E+03  0.44301865731E+03 -0.57549208987E+03  0.80274565282E+03  0.00000000000E+00 0. -1.
<mgrwt>
<rscale>  0 0.15915634E+04</rscale>
<asrwt>0</asrwt>
<pdfrwt beam="1">  1        2 0.12449963E+00 0.15915634E+04</pdfrwt>
<pdfrwt beam="2">  1       -2 0.12039076E+00 0.15915634E+04</pdfrwt>
<totfact> 0.17143286E+01</totfact>
</mgrwt>
</event>
<event>
 6    1  0.9364335E-007  0.2577200E+04  0.7818608E-02  0.8375987E-01
         -1   -1    0    0    0  501 -0.00000000000E+00  0.00000000000E+00  0.73223423461E+03  0.73223423461E+03  0.00000000000E+00 0.  1.
          1   -1    0    0  501    0  0.00000000000E+00 -0.00000000000E+00 -0.22677028167E+04  0.22677028167E+04  0.00000000000E+00 0. -1.
         23    2    1    2    0    0  0.30971804927E+03 -0.75842924331E+03 -0.19242277605E+04  0.20931438632E+04  0.86363016094E+02 0.  0.
         11    1    3    3    0    0  0.70290070692E+02 -0.14560401294E+03 -0.30167565705E+03  0.34227098135E+03  0.00000000000E+00 0.  1.
        -11    1    3    3    0    0  0.23942797858E+03 -0.61282523037E+03 -0.16225521035E+04  0.17508728818E+04  0.00000000000E+00 0. -1.
         22    1    1    2    0    0 -0.30971804927E+03  0.75842924331E+03  0.38875917845E+03  0.90679318809E+03  0.00000000000E+00 0.  1.
<mgrwt>
<rscale>  0 0.25771997E+04</rscale>
<asrwt>0</asrwt>
<pdfrwt beam="1">  1        1 0.34887735E+00 0.25771997E+04</pdfrwt>
<pdfrwt beam="2">  1       -1 0.11265142E+00 0.25771997E+04</pdfrwt>
<totfact> 0.12459880E+00</totfact>
</mgrwt>
</event>
<event>
 6    1  0.9364335E-007  0.1818380E+04  0.7818608E-02  0.8696586E-01
         -2   -1    0    0    0  501 -0.00000000000E+00  0.00000000000E+00  0.23926554237E+03  0.23926554237E+03  0.00000000000E+00 0.  1.
          2   -1    0    0  501    0  0.00000000000E+00 -0.00000000000E+00 -0.34548509972E+04  0.34548509972E+04  0.00000000000E+00 0. -1.
         23    2    1    2    0    0 -0.44343411676E+03  0.22604114924E+02 -0.32181257582E+04  0.32500994059E+04  0.98325941108E+02 0.  0.
         11    1    3    3    0    0 -0.55042290977E+02  0.26795502213E+02 -0.63355292384E+03  0.63650369995E+03  0.00000000000E+00 0.  1.
        -11    1    3    3    0    0 -0.38839182578E+03 -0.41913872893E+01 -0.25845728343E+04  0.26135957059E+04  0.00000000000E+00 0. -1.
         22    1    1    2    0    0  0.44343411676E+03 -0.22604114924E+02  0.25403033012E+01  0.44401713375E+03  0.00000000000E+00 0.  1.
<mgrwt>
<rscale>  0 0.18183804E+04</rscale>
<asrwt>0</asrwt>
<pdfrwt beam="1">  1        2 0.53151548E+00 0.18183804E+04</pdfrwt>
<pdfrwt beam="2">  1       -2 0.36810087E-01 0.18183804E+04</pdfrwt>
<totfact> 0.57716555E+00</totfact>
</mgrwt>
</event>
<event>
 6    1  0.9364335E-007  0.1616628E+04  0.7818608E-02  0.8810398E-01
         -2   -1    0    0    0  501 -0.00000000000E+00  0.00000000000E+00  0.20075426799E+03  0.20075426799E+03  0.00000000000E+00 0.  1.
          2   -1    0    0  501    0  0.00000000000E+00 -0.00000000000E+00 -0.32545824683E+04  0.32545824683E+04  0.00000000000E+00 0. -1.
         23    2    1    2    0    0  0.74017136741E+03 -0.10091180064E+03 -0.88590385600E+03  0.11623184618E+04  0.90120584930E+02 0.  0.
         11    1    3    3    0    0  0.37430943122E+03 -0.68643217055E+02 -0.38655224639E+03  0.54244085459E+03  0.00000000000E+00 0. -1.
        -11    1    3    3    0    0  0.36586193619E+03 -0.32268583582E+02 -0.49935160962E+03  0.61987760717E+03  0.00000000000E+00 0.  1.
         22    1    1    2    0    0 -0.74017136741E+03  0.10091180064E+03 -0.21679243443E+04  0.22930182745E+04  0.00000000000E+00 0. -1.
<mgrwt>
<rscale>  0 0.16166278E+04</rscale>
<asrwt>0</asrwt>
<pdfrwt beam="1">  1        2 0.50070502E+00 0.16166278E+04</pdfrwt>
<pdfrwt beam="2">  1       -2 0.30885270E-01 0.16166278E+04</pdfrwt>
<totfact> 0.11198577E+01</totfact>
</mgrwt>
</event>
<event>
 6    1  0.9364335E-007  0.1331264E+04  0.7818608E-02  0.9005133E-01
          2   -1    0    0  501    0  0.00000000000E+00  0.00000000000E+00  0.72820696223E+03  0.72820696223E+03  0.00000000000E+00 0. -1.
         -2   -1    0    0    0  501 -0.00000000000E+00 -0.00000000000E+00 -0.60843424293E+03  0.60843424293E+03  0.00000000000E+00 0.  1.
         23    2    1    2    0    0 -0.42205453169E+03  0.41051952167E+03  0.36466411538E+03  0.69896722791E+03  0.94440262902E+02 0.  0.
         11    1    3    3    0    0 -0.19087649126E+03  0.21926930996E+03  0.13191246885E+03  0.31923935322E+03  0.00000000000E+00 0.  1.
        -11    1    3    3    0    0 -0.23117804043E+03  0.19125021172E+03  0.23275164653E+03  0.37972787470E+03  0.00000000000E+00 0. -1.
         22    1    1    2    0    0  0.42205453169E+03 -0.41051952167E+03 -0.24489139608E+03  0.63767397725E+03  0.00000000000E+00 0.  1.
<mgrwt>
<rscale>  0 0.13312641E+04</rscale>
<asrwt>0</asrwt>
<pdfrwt beam="1">  1        2 0.11203184E+00 0.13312641E+04</pdfrwt>
<pdfrwt beam="2">  1       -2 0.93605268E-01 0.13312641E+04</pdfrwt>
<totfact> 0.36771572E+01</totfact>
</mgrwt>
</event>
<event>
 6    1  0.9364335E-007  0.5467937E+03  0.7818608E-02  0.1002239E+00
          1   -1    0    0  501    0  0.00000000000E+00  0.00000000000E+00  0.12764650918E+03  0.12764650918E+03  0.00000000000E+00 0. -1.
         -1   -1    0    0    0  501 -0.00000000000E+00 -0.00000000000E+00 -0.58556900131E+03  0.58556900131E+03  0.00000000000E+00 0.  1.
         23    2    1    2    0    0 -0.22365263482E+03  0.91758503062E+02 -0.89993271691E+02  0.27297462733E+03  0.89309765809E+02 0.  0.
         11    1    3    3    0    0 -0.17791975760E+03  0.54125707604E+02 -0.10263812102E+03  0.21241378546E+03  0.00000000000E+00 0. -1.
        -11    1    3    3    0    0 -0.45732877225E+02  0.37632795458E+02  0.12644849330E+02  0.60560841869E+02  0.00000000000E+00 0.  1.
         22    1    1    2    0    0  0.22365263482E+03 -0.91758503062E+02 -0.36792922044E+03  0.44024088315E+03  0.00000000000E+00 0.  1.
<mgrwt>
<rscale>  0 0.54679370E+03</rscale>
<asrwt>0</asrwt>
<pdfrwt beam="1">  1        1 0.19637924E-01 0.54679370E+03</pdfrwt>
<pdfrwt beam="2">  1       -1 0.90087541E-01 0.54679370E+03</pdfrwt>
<totfact> 0.32923518E+02</totfact>
</mgrwt>
</event>
<event>
 6    1  0.9364335E-007  0.2984221E+04  0.7818608E-02  0.8248251E-01
         -2   -1    0    0    0  501 -0.00000000000E+00  0.00000000000E+00  0.89407324849E+03  0.89407324849E+03  0.00000000000E+00 0.  1.
          2   -1    0    0  501    0  0.00000000000E+00 -0.00000000000E+00 -0.24901693549E+04  0.24901693549E+04  0.00000000000E+00 0. -1.
         23    2    1    2    0    0 -0.15322953517E+03  0.13756888916E+04 -0.14262614975E+04  0.19896663195E+04  0.92471545789E+02 0.  0.
         11    1    3    3    0    0 -0.10609576806E+02  0.45060316022E+03 -0.48973263933E+03  0.66557781600E+03  0.00000000000E+00 0. -1.
        -11    1    3    3    0    0 -0.14261995836E+03  0.92508573142E+03 -0.93652885819E+03  0.13240885035E+04  0.00000000000E+00 0.  1.
         22    1    1    2    0    0  0.15322953517E+03 -0.13756888916E+04 -0.16983460886E+03  0.13945762838E+04  0.00000000000E+00 0.  1.
<mgrwt>
<rscale>  0 0.29842210E+04</rscale>
<asrwt>0</asrwt>
<pdfrwt beam="1">  1        2 0.38310297E+00 0.29842210E+04</pdfrwt>
<pdfrwt beam="2">  1       -2 0.13754973E+00 0.29842210E+04</pdfrwt>
<totfact> 0.11364687E+00</totfact>
</mgrwt>
</event>
<event>
 6    1  0.9364335E-007  0.2114332E+04  0.7818608E-02  0.8554956E-01
         -2   -1    0    0    0  501 -0.00000000000E+00  0.00000000000E+00  0.40802841387E+03  0.40802841387E+03  0.00000000000E+00 0.  1.
          2   -1    0    0  501    0  0.00000000000E+00 -0.00000000000E+00 -0.27390249527E+04  0.27390249527E+04  0.00000000000E+00 0. -1.
         23    2    1    2    0    0  0.44943410271E+03  0.84807890731E+03 -0.51489879671E+03  0.10929258499E+04  0.90206966842E+02 0.  0.
         11    1    3    3    0    0  0.66676701305E+02  0.12465201416E+03 -0.11382001759E+03  0.18149078085E+03  0.00000000000E+00 0. -1.
        -11    1    3    3    0    0  0.38275740141E+03  0.72342689315E+03 -0.40107877913E+03  0.91143506907E+03  0.00000000000E+00 0.  1.
         22    1    1    2    0    0 -0.44943410271E+03 -0.84807890731E+03 -0.18160977421E+04  0.20541275166E+04  0.00000000000E+00 0. -1.
<mgrwt>
<rscale>  0 0.21143321E+04</rscale>
<asrwt>0</asrwt>
<pdfrwt beam="1">  1        2 0.42138846E+00 0.21143321E+04</pdfrwt>
<pdfrwt beam="2">  1       -2 0.62773602E-01 0.21143321E+04</pdfrwt>
<totfact> 0.54541125E+00</totfact>
</mgrwt>
</event>
<event>
 6    1  0.9364335E-007  0.1762774E+04  0.7818608E-02  0.8726350E-01
          2   -1    0    0  501    0  0.00000000000E+00  0.00000000000E+00  0.13827872618E+04  0.13827872618E+04  0.00000000000E+00 0. -1.
         -2   -1    0    0    0  501 -0.00000000000E+00 -0.00000000000E+00 -0.56179519426E+03  0.56179519426E+03  0.00000000000E+00 0.  1.
         23    2    1    2    0    0 -0.75882506878E+02 -0.15142239495E+03  0.13631553021E+04  0.13765790499E+04  0.89947798650E+02 0.  0.
         13    1    3    3    0    0  0.15076068926E+02 -0.15319936092E+01  0.15997692679E+03  0.16069303645E+03  0.00000000000E+00 0. -1.
        -13    1    3    3    0    0 -0.90958575804E+02 -0.14989040134E+03  0.12031783753E+04  0.12158860134E+04  0.00000000000E+00 0.  1.
         22    1    1    2    0    0  0.75882506878E+02  0.15142239495E+03 -0.54216323453E+03  0.56800340617E+03  0.00000000000E+00 0.  1.
<mgrwt>
<rscale>  0 0.17627742E+04</rscale>
<asrwt>0</asrwt>
<pdfrwt beam="1">  1        2 0.21273650E+00 0.17627742E+04</pdfrwt>
<pdfrwt beam="2">  1       -2 0.86430030E-01 0.17627742E+04</pdfrwt>
<totfact> 0.16258877E+01</totfact>
</mgrwt>
</event>
<event>
 6    1  0.9364335E-007  0.2598558E+04  0.7818608E-02  0.8368691E-01
         -2   -1    0    0    0  501 -0.00000000000E+00  0.00000000000E+00  0.84898683774E+03  0.84898683774E+03  0.00000000000E+00 0.  1.
          2   -1    0    0  501    0  0.00000000000E+00 -0.00000000000E+00 -0.19884003281E+04  0.19884003281E+04  0.00000000000E+00 0. -1.
         23    2    1    2    0    0  0.34702181867E+03 -0.27878482000E+03  0.76049841867E+03  0.88602600487E+03  0.92407348241E+02 0.  0.
         13    1    3    3    0    0  0.13525779797E+03 -0.53927762786E+02  0.25387798838E+03  0.29267201523E+03  0.00000000000E+00 0.  1.
        -13    1    3    3    0    0  0.21176402070E+03 -0.22485705721E+03  0.50662043028E+03  0.59335398964E+03  0.00000000000E+00 0. -1.
         22    1    1    2    0    0 -0.34702181867E+03  0.27878482000E+03 -0.18999119091E+04  0.19513611610E+04  0.00000000000E+00 0. -1.
<mgrwt>
<rscale>  0 0.25985578E+04</rscale>
<asrwt>0</asrwt>
<pdfrwt beam="1">  1        2 0.30590774E+00 0.25985578E+04</pdfrwt>
<pdfrwt beam="2">  1       -2 0.13061336E+00 0.25985578E+04</pdfrwt>
<totfact> 0.25746222E+00</totfact>
</mgrwt>
</event>
<event>
 6    1  0.9364335E-007  0.1995877E+04  0.7818608E-02  0.8608551E-01
          2   -1    0    0  501    0  0.00000000000E+00  0.00000000000E+00  0.12369789080E+04  0.12369789080E+04  0.00000000000E+00 0. -1.
         -2   -1    0    0    0  501 -0.00000000000E+00 -0.00000000000E+00 -0.80509185181E+03  0.80509185181E+03  0.00000000000E+00 0.  1.
         23    2    1    2    0    0 -0.21672637803E+03 -0.37430992008E+03 -0.70135896412E+03  0.82908898677E+03  0.91683762057E+02 0.  0.
         11    1    3    3    0    0 -0.61364538827E+02 -0.16184311212E+03 -0.34588622630E+03  0.38677652605E+03  0.00000000000E+00 0. -1.
        -11    1    3    3    0    0 -0.15536183921E+03 -0.21246680796E+03 -0.35547273782E+03  0.44231246071E+03  0.00000000000E+00 0.  1.
         22    1    1    2    0    0  0.21672637803E+03  0.37430992008E+03  0.11332460203E+04  0.12129817730E+04  0.00000000000E+00 0. -1.
<mgrwt>
<rscale>  0 0.19958774E+04</rscale>
<asrwt>0</asrwt>
<pdfrwt beam="1">  1        2 0.19030445E+00 0.19958774E+04</pdfrwt>
<pdfrwt beam="2">  1       -2 0.12386029E+00 0.19958774E+04</pdfrwt>
<totfact> 0.82108776E+00</totfact>
</mgrwt>
</event>
<event>
 6    1  0.9364335E-007  0.1466378E+04  0.7818608E-02  0.8907124E-01
          1   -1    0    0  501    0  0.00000000000E+00  0.00000000000E+00  0.16585220283E+04  0.16585220283E+04  0.00000000000E+00 0. -1.
         -1   -1    0    0    0  501 -0.00000000000E+00 -0.00000000000E+00 -0.32412370595E+03  0.32412370595E+03  0.00000000000E+00 0.  1.
         23    2    1    2    0    0 -0.29479849634E+03 -0.17520949508E+03  0.15416081657E+04  0.15819707541E+04  0.92039174517E+02 0.  0.
         13    1    3    3    0    0 -0.90263570296E+02 -0.24068532034E+02  0.57130941627E+03  0.57889658443E+03  0.00000000000E+00 0. -1.
        -13    1    3    3    0    0 -0.20453492605E+03 -0.15114096305E+03  0.97029874940E+03  0.10030741696E+04  0.00000000000E+00 0.  1.
         22    1    1    2    0    0  0.29479849634E+03  0.17520949508E+03 -0.20720984328E+03  0.40067498021E+03  0.00000000000E+00 0.  1.
<mgrwt>
<rscale>  0 0.14663783E+04</rscale>
<asrwt>0</asrwt>
<pdfrwt beam="1">  1        1 0.25515723E+00 0.14663783E+04</pdfrwt>
<pdfrwt beam="2">  1       -1 0.49865187E-01 0.14663783E+04</pdfrwt>
<totfact> 0.19910537E+01</totfact>
</mgrwt>
</event>
<event>
 6    1  0.9364335E-007  0.7107950E+03  0.7818608E-02  0.9698947E-01
          1   -1    0    0  501    0  0.00000000000E+00  0.00000000000E+00  0.46597915489E+03  0.46597915489E+03  0.00000000000E+00 0. -1.
         -1   -1    0    0    0  501 -0.00000000000E+00 -0.00000000000E+00 -0.27105802409E+03  0.27105802409E+03  0.00000000000E+00 0.  1.
         23    2    1    2    0    0  0.34296844589E+02 -0.13534716676E+03  0.43122107024E+03  0.46256898323E+03  0.92321848569E+02 0.  0.
         13    1    3    3    0    0  0.58897560848E+02 -0.46079035792E+02  0.19011934778E+03  0.20429774011E+03  0.00000000000E+00 0. -1.
        -13    1    3    3    0    0 -0.24600716259E+02 -0.89268130968E+02  0.24110172246E+03  0.25827124312E+03  0.00000000000E+00 0.  1.
         22    1    1    2    0    0 -0.34296844589E+02  0.13534716676E+03 -0.23629993945E+03  0.27446819576E+03  0.00000000000E+00 0.  1.
<mgrwt>
<rscale>  0 0.71079502E+03</rscale>
<asrwt>0</asrwt>
<pdfrwt beam="1">  1        1 0.71689101E-01 0.71079502E+03</pdfrwt>
<pdfrwt beam="2">  1       -1 0.41701235E-01 0.71079502E+03</pdfrwt>
<totfact> 0.27898729E+02</totfact>
</mgrwt>
</event>
<event>
 6    1  0.9364335E-007  0.1072895E+04  0.7818608E-02  0.9232020E-01
          1   -1    0    0  501    0  0.00000000000E+00  0.00000000000E+00  0.80836374632E+03  0.80836374632E+03  0.00000000000E+00 0. -1.
         -1   -1    0    0    0  501 -0.00000000000E+00 -0.00000000000E+00 -0.35599807798E+03  0.35599807798E+03  0.00000000000E+00 0.  1.
         23    2    1    2    0    0 -0.45863466788E+03 -0.15012955649E+03  0.47215759128E+03  0.68137490674E+03  0.91947431848E+02 0.  0.
         13    1    3    3    0    0 -0.28573224671E+03 -0.67062164127E+02  0.33604368161E+03  0.44616768890E+03  0.00000000000E+00 0.  1.
        -13    1    3    3    0    0 -0.17290242117E+03 -0.83067392367E+02  0.13611390967E+03  0.23520721785E+03  0.00000000000E+00 0. -1.
         22    1    1    2    0    0  0.45863466788E+03  0.15012955649E+03 -0.19791922936E+02  0.48298691755E+03  0.00000000000E+00 0.  1.
<mgrwt>
<rscale>  0 0.10728950E+04</rscale>
<asrwt>0</asrwt>
<pdfrwt beam="1">  1        1 0.12436365E+00 0.10728950E+04</pdfrwt>
<pdfrwt beam="2">  1       -1 0.54768935E-01 0.10728950E+04</pdfrwt>
<totfact> 0.73097955E+01</totfact>
</mgrwt>
</event>
<event>
 6    1  0.9364335E-007  0.3661501E+03  0.7818608E-02  0.1056175E+00
          2   -1    0    0  501    0  0.00000000000E+00  0.00000000000E+00  0.32601762420E+03  0.32601762420E+03  0.00000000000E+00 0. -1.
         -2   -1    0    0    0  501 -0.00000000000E+00 -0.00000000000E+00 -0.10280573132E+03  0.10280573132E+03  0.00000000000E+00 0.  1.
         23    2    1    2    0    0 -0.85800591848E+01  0.10681480256E+03 -0.37105902852E+02  0.14731247787E+03  0.94027116567E+02 0.  0.
         13    1    3    3    0    0 -0.42546588742E+02  0.96004269362E+02 -0.37950933167E+02  0.11165708790E+03  0.00000000000E+00 0. -1.
        -13    1    3    3    0    0  0.33966529558E+02  0.10810533194E+02  0.84503031456E+00  0.35655389976E+02  0.00000000000E+00 0.  1.
         22    1    1    2    0    0  0.85800591848E+01 -0.10681480256E+03  0.26031779573E+03  0.28151087765E+03  0.00000000000E+00 0. -1.
<mgrwt>
<rscale>  0 0.36615013E+03</rscale>
<asrwt>0</asrwt>
<pdfrwt beam="1">  1        2 0.50156557E-01 0.36615013E+03</pdfrwt>
<pdfrwt beam="2">  1       -2 0.15816267E-01 0.36615013E+03</pdfrwt>
<totfact> 0.31434016E+03</totfact>
</mgrwt>
</event>
<event>
 6    1  0.9364335E-007  0.3509133E+04  0.7818608E-02  0.8111629E-01
         -1   -1    0    0    0  501 -0.00000000000E+00  0.00000000000E+00  0.22164398918E+04  0.22164398918E+04  0.00000000000E+00 0.  1.
          1   -1    0    0  501    0  0.00000000000E+00 -0.00000000000E+00 -0.13889403780E+04  0.13889403780E+04  0.00000000000E+00 0. -1.
         23    2    1    2    0    0 -0.16279025670E+03  0.16307936371E+04 -0.22325444231E+03  0.16585694339E+04  0.12256209385E+03 0.  0.
         13    1    3    3    0    0  0.18451349308E+02  0.21080751722E+03 -0.40348192221E+02  0.21542571393E+03  0.00000000000E+00 0. -1.
        -13    1    3    3    0    0 -0.18124160601E+03  0.14199861198E+04 -0.18290625009E+03  0.14431437200E+04  0.00000000000E+00 0.  1.
         22    1    1    2    0    0  0.16279025670E+03 -0.16307936371E+04  0.10507539561E+04  0.19468108358E+04  0.00000000000E+00 0.  1.
<mgrwt>
<rscale>  0 0.35091326E+04</rscale>
<asrwt>0</asrwt>
<pdfrwt beam="1">  1        1 0.21368313E+00 0.35091326E+04</pdfrwt>
<pdfrwt beam="2">  1       -1 0.34099075E+00 0.35091326E+04</pdfrwt>
<totfact> 0.11360752E-01</totfact>
</mgrwt>
</event>
<event>
 6    1  0.9364335E-007  0.2043536E+04  0.7818608E-02  0.8586532E-01
          2   -1    0    0  501    0  0.00000000000E+00  0.00000000000E+00  0.16701586010E+04  0.16701586010E+04  0.00000000000E+00 0. -1.
         -2   -1    0    0    0  501 -0.00000000000E+00 -0.00000000000E+00 -0.62509619274E+03  0.62509619274E+03  0.00000000000E+00 0.  1.
         23    2    1    2    0    0 -0.93117979839E+03  0.13865887486E+02  0.57576761861E+02  0.93789854662E+03  0.95134223462E+02 0.  0.
         13    1    3    3    0    0 -0.32279487345E+03  0.19634945160E+02 -0.22828566773E+02  0.32419624436E+03  0.00000000000E+00 0.  1.
        -13    1    3    3    0    0 -0.60838492494E+03 -0.57690576742E+01  0.80405328634E+02  0.61370230225E+03  0.00000000000E+00 0. -1.
         22    1    1    2    0    0  0.93117979839E+03 -0.13865887486E+02  0.98748564638E+03  0.13573562471E+04  0.00000000000E+00 0. -1.
<mgrwt>
<rscale>  0 0.20435359E+04</rscale>
<asrwt>0</asrwt>
<pdfrwt beam="1">  1        2 0.25694748E+00 0.20435359E+04</pdfrwt>
<pdfrwt beam="2">  1       -2 0.96168645E-01 0.20435359E+04</pdfrwt>
<totfact> 0.85440803E+00</totfact>
</mgrwt>
</event>
<event>
 6    1  0.9364335E-007  0.2008804E+04  0.7818608E-02  0.8602515E-01
         -2   -1    0    0    0  501 -0.00000000000E+00  0.00000000000E+00  0.89250194486E+03  0.89250194486E+03  0.00000000000E+00 0.  1.
          2   -1    0    0  501    0  0.00000000000E+00 -0.00000000000E+00 -0.11303322783E+04  0.11303322783E+04  0.00000000000E+00 0. -1.
         23    2    1    2    0    0 -0.14214197084E+03  0.73719061730E+03 -0.78790397689E+03  0.10921165649E+04  0.90948163444E+02 0.  0.
         13    1    3    3    0    0 -0.82172483683E+02  0.42744587012E+03 -0.39105361767E+03  0.58513692487E+03  0.00000000000E+00 0.  1.
        -13    1    3    3    0    0 -0.59969487155E+02  0.30974474718E+03 -0.39685035922E+03  0.50697964003E+03  0.00000000000E+00 0. -1.
         22    1    1    2    0    0  0.14214197084E+03 -0.73719061730E+03  0.55007364347E+03  0.93071765823E+03  0.00000000000E+00 0.  1.
<mgrwt>
<rscale>  0 0.20088044E+04</rscale>
<asrwt>0</asrwt>
<pdfrwt beam="1">  1        2 0.17389727E+00 0.20088044E+04</pdfrwt>
<pdfrwt beam="2">  1       -2 0.13730799E+00 0.20088044E+04</pdfrwt>
<totfact> 0.73191625E+00</totfact>
</mgrwt>
</event>
<event>
 6    1  0.9364335E-007  0.2493826E+04  0.7818608E-02  0.8405188E-01
          1   -1    0    0  501    0  0.00000000000E+00  0.00000000000E+00  0.14579010603E+04  0.14579010603E+04  0.00000000000E+00 0. -1.
         -1   -1    0    0    0  501 -0.00000000000E+00 -0.00000000000E+00 -0.10664589201E+04  0.10664589201E+04  0.00000000000E+00 0.  1.
         23    2    1    2    0    0  0.48206343955E+03  0.11310825152E+04  0.39594996202E+03  0.12948262735E+04  0.89810301058E+02 0.  0.
         11    1    3    3    0    0  0.24400170120E+03  0.67801464957E+03  0.24800709563E+03  0.76206837928E+03  0.00000000000E+00 0.  1.
        -11    1    3    3    0    0  0.23806173835E+03  0.45306786561E+03  0.14794286639E+03  0.53275789420E+03  0.00000000000E+00 0. -1.
         22    1    1    2    0    0 -0.48206343955E+03 -0.11310825152E+04 -0.45078217650E+01  0.12295337069E+04  0.00000000000E+00 0.  1.
<mgrwt>
<rscale>  0 0.24938256E+04</rscale>
<asrwt>0</asrwt>
<pdfrwt beam="1">  1        1 0.22429247E+00 0.24938256E+04</pdfrwt>
<pdfrwt beam="2">  1       -1 0.16407060E+00 0.24938256E+04</pdfrwt>
<totfact> 0.16939702E+00</totfact>
</mgrwt>
</event>
<event>
 6    1  0.9364335E-007  0.1736780E+04  0.7818608E-02  0.8740661E-01
         -2   -1    0    0    0  501 -0.00000000000E+00  0.00000000000E+00  0.79958750610E+03  0.79958750610E+03  0.00000000000E+00 0.  1.
          2   -1    0    0  501    0  0.00000000000E+00 -0.00000000000E+00 -0.94311300183E+03  0.94311300183E+03  0.00000000000E+00 0. -1.
         23    2    1    2    0    0 -0.13376990527E+03  0.46508108913E+03 -0.79263104169E+03  0.93305069671E+03  0.90137824318E+02 0.  0.
         13    1    3    3    0    0  0.59945380977E+01  0.21632913765E+02 -0.72223276163E+02  0.75631468746E+02  0.00000000000E+00 0.  1.
        -13    1    3    3    0    0 -0.13976444336E+03  0.44344817536E+03 -0.72040776553E+03  0.85741922797E+03  0.00000000000E+00 0. -1.
         22    1    1    2    0    0  0.13376990527E+03 -0.46508108913E+03  0.64910554595E+03  0.80964981122E+03  0.00000000000E+00 0.  1.
<mgrwt>
<rscale>  0 0.17367802E+04</rscale>
<asrwt>0</asrwt>
<pdfrwt beam="1">  1        2 0.14509431E+00 0.17367802E+04</pdfrwt>
<pdfrwt beam="2">  1       -2 0.12301346E+00 0.17367802E+04</pdfrwt>
<totfact> 0.12993215E+01</totfact>
</mgrwt>
</event>
<event>
 6    1  0.9364335E-007  0.3859272E+04  0.7818608E-02  0.8033554E-01
          1   -1    0    0  501    0  0.00000000000E+00  0.00000000000E+00  0.23005042008E+04  0.23005042008E+04  0.00000000000E+00 0. -1.
         -1   -1    0    0    0  501 -0.00000000000E+00 -0.00000000000E+00 -0.16185562352E+04  0.16185562352E+04  0.00000000000E+00 0.  1.
         23    2    1    2    0    0  0.11310558118E+04 -0.12122324214E+04 -0.65926725798E+03  0.17865377589E+04  0.91044789054E+02 0.  0.
         13    1    3    3    0    0  0.93783856763E+03 -0.10298078828E+04 -0.52207502628E+03  0.14874837100E+04  0.00000000000E+00 0. -1.
        -13    1    3    3    0    0  0.19321724412E+03 -0.18242453856E+03 -0.13719223170E+03  0.29905404885E+03  0.00000000000E+00 0.  1.
         22    1    1    2    0    0 -0.11310558118E+04  0.12122324214E+04  0.13412152236E+04  0.21325226772E+04  0.00000000000E+00 0. -1.
<mgrwt>
<rscale>  0 0.38592722E+04</rscale>
<asrwt>0</asrwt>
<pdfrwt beam="1">  1        1 0.35392372E+00 0.38592722E+04</pdfrwt>
<pdfrwt beam="2">  1       -1 0.24900865E+00 0.38592722E+04</pdfrwt>
<totfact> 0.10420514E-01</totfact>
</mgrwt>
</event>
<event>
 6    1  0.9364335E-007  0.5751476E+03  0.7818608E-02  0.9958352E-01
          1   -1    0    0  501    0  0.00000000000E+00  0.00000000000E+00  0.12976704558E+03  0.12976704558E+03  0.00000000000E+00 0. -1.
         -1   -1    0    0    0  501 -0.00000000000E+00 -0.00000000000E+00 -0.63728568293E+03  0.63728568293E+03  0.00000000000E+00 0.  1.
         23    2    1    2    0    0 -0.13905212613E+03  0.19135167838E+03 -0.46090537888E+03  0.52596404261E+03  0.90848485092E+02 0.  0.
         11    1    3    3    0    0 -0.66106812563E+02  0.15568202432E+03 -0.34762266311E+03  0.38658572047E+03  0.00000000000E+00 0.  1.
        -11    1    3    3    0    0 -0.72945313564E+02  0.35669654065E+02 -0.11328271577E+03  0.13937832214E+03  0.00000000000E+00 0. -1.
         22    1    1    2    0    0  0.13905212613E+03 -0.19135167838E+03 -0.46613258477E+02  0.24108868589E+03  0.00000000000E+00 0. -1.
<mgrwt>
<rscale>  0 0.57514756E+03</rscale>
<asrwt>0</asrwt>
<pdfrwt beam="1">  1        1 0.19964161E-01 0.57514756E+03</pdfrwt>
<pdfrwt beam="2">  1       -1 0.98043951E-01 0.57514756E+03</pdfrwt>
<totfact> 0.26673926E+02</totfact>
</mgrwt>
</event>
<event>
 6    1  0.9364335E-007  0.2149708E+04  0.7818608E-02  0.8539657E-01
         -2   -1    0    0    0  501 -0.00000000000E+00  0.00000000000E+00  0.66688939074E+03  0.66688939074E+03  0.00000000000E+00 0.  1.
          2   -1    0    0  501    0  0.00000000000E+00 -0.00000000000E+00 -0.17323876374E+04  0.17323876374E+04  0.00000000000E+00 0. -1.
         23    2    1    2    0    0  0.50366569169E+03  0.94720161792E+03 -0.51557498582E+03  0.11937540600E+04  0.91439355611E+02 0.  0.
         11    1    3    3    0    0  0.32381030134E+03  0.65729791221E+03 -0.31134812819E+03  0.79613523574E+03  0.00000000000E+00 0. -1.
        -11    1    3    3    0    0  0.17985539034E+03  0.28990370570E+03 -0.20422685763E+03  0.39761882424E+03  0.00000000000E+00 0.  1.
         22    1    1    2    0    0 -0.50366569169E+03 -0.94720161792E+03 -0.54992326085E+03  0.12055229682E+04  0.00000000000E+00 0.  1.
<mgrwt>
<rscale>  0 0.21497078E+04</rscale>
<asrwt>0</asrwt>
<pdfrwt beam="1">  1        2 0.26652118E+00 0.21497078E+04</pdfrwt>
<pdfrwt beam="2">  1       -2 0.10259837E+00 0.21497078E+04</pdfrwt>
<totfact> 0.67098146E+00</totfact>
</mgrwt>
</event>
<event>
 6    1  0.9364335E-007  0.2912968E+04  0.7818608E-02  0.8269029E-01
         -1   -1    0    0    0  501 -0.00000000000E+00  0.00000000000E+00  0.17645178257E+04  0.17645178257E+04  0.00000000000E+00 0.  1.
          1   -1    0    0  501    0  0.00000000000E+00 -0.00000000000E+00 -0.12022241556E+04  0.12022241556E+04  0.00000000000E+00 0. -1.
         23    2    1    2    0    0  0.37091397398E+02 -0.10109929823E+04  0.13465649470E+04  0.16866779135E+04  0.90347360874E+02 0.  0.
         11    1    3    3    0    0  0.65642768112E+02 -0.72231753730E+03  0.94251681933E+03  0.11892811074E+04  0.00000000000E+00 0. -1.
        -11    1    3    3    0    0 -0.28551370714E+02 -0.28867544496E+03  0.40404812763E+03  0.49739680612E+03  0.00000000000E+00 0.  1.
         22    1    1    2    0    0 -0.37091397398E+02  0.10109929823E+04 -0.78427127686E+03  0.12800640678E+04  0.00000000000E+00 0. -1.
<mgrwt>
<rscale>  0 0.29129682E+04</rscale>
<asrwt>0</asrwt>
<pdfrwt beam="1">  1        1 0.18495756E+00 0.29129682E+04</pdfrwt>
<pdfrwt beam="2">  1       -1 0.27146428E+00 0.29129682E+04</pdfrwt>
<totfact> 0.46138637E-01</totfact>
</mgrwt>
</event>
<event>
 6    1  0.9364335E-007  0.3132208E+04  0.7818608E-02  0.8206954E-01
         -1   -1    0    0    0  501 -0.00000000000E+00  0.00000000000E+00  0.14179825139E+04  0.14179825139E+04  0.00000000000E+00 0.  1.
          1   -1    0    0  501    0  0.00000000000E+00 -0.00000000000E+00 -0.17296986882E+04  0.17296986882E+04  0.00000000000E+00 0. -1.
         23    2    1    2    0    0 -0.32326100244E+03  0.76786589177E+03  0.11750969256E+04  0.14433546790E+04  0.91127610004E+02 0.  0.
         11    1    3    3    0    0 -0.11104685214E+03  0.35404587816E+03  0.47239417646E+03  0.60069638351E+03  0.00000000000E+00 0.  1.
        -11    1    3    3    0    0 -0.21221415029E+03  0.41382001362E+03  0.70270274918E+03  0.84265829549E+03  0.00000000000E+00 0. -1.
         22    1    1    2    0    0  0.32326100244E+03 -0.76786589177E+03 -0.14868130999E+04  0.17043265232E+04  0.00000000000E+00 0. -1.
<mgrwt>
<rscale>  0 0.31322085E+04</rscale>
<asrwt>0</asrwt>
<pdfrwt beam="1">  1        1 0.26610749E+00 0.31322085E+04</pdfrwt>
<pdfrwt beam="2">  1       -1 0.21815116E+00 0.31322085E+04</pdfrwt>
<totfact> 0.43348840E-01</totfact>
</mgrwt>
</event>
<event>
 6    1  0.9364335E-007  0.1811048E+04  0.7818608E-02  0.8700446E-01
         -3   -1    0    0    0  501 -0.00000000000E+00  0.00000000000E+00  0.90660692978E+03  0.90660692978E+03  0.00000000000E+00 0.  1.
          3   -1    0    0  501    0  0.00000000000E+00 -0.00000000000E+00 -0.90444219610E+03  0.90444219610E+03  0.00000000000E+00 0. -1.
         23    2    1    2    0    0 -0.84413381065E+03  0.32168313496E+03  0.13740787273E+01  0.90769838849E+03  0.88727373261E+02 0.  0.
         11    1    3    3    0    0 -0.28465811129E+03  0.10695536380E+03 -0.41463591700E+02  0.30690213359E+03  0.00000000000E+00 0. -1.
        -11    1    3    3    0    0 -0.55947569937E+03  0.21472777116E+03  0.42837670427E+02  0.60079625490E+03  0.00000000000E+00 0.  1.
         22    1    1    2    0    0  0.84413381065E+03 -0.32168313496E+03  0.79065495222E+00  0.90335073739E+03  0.00000000000E+00 0.  1.
<mgrwt>
<rscale>  0 0.18110478E+04</rscale>
<asrwt>0</asrwt>
<pdfrwt beam="1">  1        3 0.13914495E+00 0.18110478E+04</pdfrwt>
<pdfrwt beam="2">  1       -3 0.13947799E+00 0.18110478E+04</pdfrwt>
<totfact> 0.37632469E-01</totfact>
</mgrwt>
</event>
<event>
 6    1  0.9364335E-007  0.9881181E+03  0.7818608E-02  0.9321674E-01
         -4   -1    0    0    0  501 -0.00000000000E+00  0.00000000000E+00  0.65474047115E+03  0.65474047115E+03  0.00000000000E+00 0.  1.
          4   -1    0    0  501    0  0.00000000000E+00 -0.00000000000E+00 -0.37281083099E+03  0.37281083099E+03  0.00000000000E+00 0. -1.
         23    2    1    2    0    0 -0.47640118994E+03  0.91933132114E+02  0.70662419355E+02  0.49835981208E+03  0.89216199356E+02 0.  0.
         13    1    3    3    0    0 -0.20749906415E+03 -0.47271346340E+01  0.32182857193E+02  0.21003319671E+03  0.00000000000E+00 0.  1.
        -13    1    3    3    0    0 -0.26890212580E+03  0.96660266748E+02  0.38479562162E+02  0.28832661537E+03  0.00000000000E+00 0. -1.
         22    1    1    2    0    0  0.47640118994E+03 -0.91933132114E+02  0.21126722081E+03  0.52919149006E+03  0.00000000000E+00 0.  1.
<mgrwt>
<rscale>  0 0.98811809E+03</rscale>
<asrwt>0</asrwt>
<pdfrwt beam="1">  1        4 0.57355512E-01 0.98811809E+03</pdfrwt>
<pdfrwt beam="2">  1       -4 0.10072930E+00 0.98811809E+03</pdfrwt>
<totfact> 0.46508417E+00</totfact>
</mgrwt>
</event>
<event>
 6    1  0.9364335E-007  0.1636641E+04  0.7818608E-02  0.8798349E-01
         -1   -1    0    0    0  501 -0.00000000000E+00  0.00000000000E+00  0.88913578642E+03  0.88913578642E+03  0.00000000000E+00 0.  1.
          1   -1    0    0  501    0  0.00000000000E+00 -0.00000000000E+00 -0.75314573861E+03  0.75314573861E+03  0.00000000000E+00 0. -1.
         23    2    1    2    0    0 -0.26074383761E+03 -0.56256872249E+03 -0.46386588021E+03  0.77955442406E+03  0.89792142618E+02 0.  0.
         13    1    3    3    0    0 -0.24175850880E+03 -0.44556149732E+03 -0.39327629728E+03  0.64159057855E+03  0.00000000000E+00 0. -1.
        -13    1    3    3    0    0 -0.18985328803E+02 -0.11700722517E+03 -0.70589582926E+02  0.13796384552E+03  0.00000000000E+00 0.  1.
         22    1    1    2    0    0  0.26074383761E+03  0.56256872249E+03  0.59985592802E+03  0.86272710098E+03  0.00000000000E+00 0.  1.
<mgrwt>
<rscale>  0 0.16366415E+04</rscale>
<asrwt>0</asrwt>
<pdfrwt beam="1">  1        1 0.11586858E+00 0.16366415E+04</pdfrwt>
<pdfrwt beam="2">  1       -1 0.13679012E+00 0.16366415E+04</pdfrwt>
<totfact> 0.10366760E+01</totfact>
</mgrwt>
</event>
<event>
 6    1  0.9364335E-007  0.1576258E+04  0.7818608E-02  0.8835268E-01
          2   -1    0    0  501    0  0.00000000000E+00  0.00000000000E+00  0.10897854336E+04  0.10897854336E+04  0.00000000000E+00 0. -1.
         -2   -1    0    0    0  501 -0.00000000000E+00 -0.00000000000E+00 -0.56997179944E+03  0.56997179944E+03  0.00000000000E+00 0.  1.
         23    2    1    2    0    0  0.29377074370E+03 -0.20363220496E+03  0.99703371568E+03  0.10635137165E+04  0.96009740474E+02 0.  0.
         11    1    3    3    0    0  0.47298684167E+02 -0.80917983407E+02  0.28958863715E+03  0.30437881714E+03  0.00000000000E+00 0.  1.
        -11    1    3    3    0    0  0.24647205954E+03 -0.12271422155E+03  0.70744507854E+03  0.75913489937E+03  0.00000000000E+00 0. -1.
         22    1    1    2    0    0 -0.29377074370E+03  0.20363220496E+03 -0.47722008154E+03  0.59624351650E+03  0.00000000000E+00 0.  1.
<mgrwt>
<rscale>  0 0.15762575E+04</rscale>
<asrwt>0</asrwt>
<pdfrwt beam="1">  1        2 0.16765930E+00 0.15762575E+04</pdfrwt>
<pdfrwt beam="2">  1       -2 0.87687969E-01 0.15762575E+04</pdfrwt>
<totfact> 0.23833478E+01</totfact>
</mgrwt>
</event>
<event>
 6    1  0.9364335E-007  0.5069483E+03  0.7818608E-02  0.1011981E+00
         -3   -1    0    0    0  501 -0.00000000000E+00  0.00000000000E+00  0.16559700830E+03  0.16559700830E+03  0.00000000000E+00 0.  1.
          3   -1    0    0  501    0  0.00000000000E+00 -0.00000000000E+00 -0.38798491993E+03  0.38798491993E+03  0.00000000000E+00 0. -1.
         23    2    1    2    0    0  0.29955846309E+02  0.29304166340E+02 -0.37905248681E+03  0.39140956311E+03  0.88116805662E+02 0.  0.
         13    1    3    3    0    0  0.40087912541E+02 -0.12609021135E+02 -0.92090791149E+02  0.10122619207E+03  0.00000000000E+00 0. -1.
        -13    1    3    3    0    0 -0.10132066232E+02  0.41913187475E+02 -0.28696169566E+03  0.29018337104E+03  0.00000000000E+00 0.  1.
         22    1    1    2    0    0 -0.29955846309E+02 -0.29304166340E+02  0.15666457519E+03  0.16217236513E+03  0.00000000000E+00 0.  1.
<mgrwt>
<rscale>  0 0.50694829E+03</rscale>
<asrwt>0</asrwt>
<pdfrwt beam="1">  1        3 0.59689987E-01 0.50694829E+03</pdfrwt>
<pdfrwt beam="2">  1       -3 0.25476463E-01 0.50694829E+03</pdfrwt>
<totfact> 0.10555181E+02</totfact>
</mgrwt>
</event>
<event>
 6    1  0.9364335E-007  0.2852273E+04  0.7818608E-02  0.8287221E-01
          1   -1    0    0  501    0  0.00000000000E+00  0.00000000000E+00  0.78845557349E+03  0.78845557349E+03  0.00000000000E+00 0. -1.
         -1   -1    0    0    0  501 -0.00000000000E+00 -0.00000000000E+00 -0.25795558785E+04  0.25795558785E+04  0.00000000000E+00 0.  1.
         23    2    1    2    0    0  0.68519475504E+02  0.54601942256E+03 -0.24481639571E+04  0.25109439103E+04  0.92197783439E+02 0.  0.
         13    1    3    3    0    0  0.50306306893E+02  0.26565086841E+03 -0.10080547250E+04  0.10436835904E+04  0.00000000000E+00 0.  1.
        -13    1    3    3    0    0  0.18213168611E+02  0.28036855415E+03 -0.14401092321E+04  0.14672603198E+04  0.00000000000E+00 0. -1.
         22    1    1    2    0    0 -0.68519475504E+02 -0.54601942256E+03  0.65706365204E+03  0.85706754178E+03  0.00000000000E+00 0. -1.
<mgrwt>
<rscale>  0 0.28522729E+04</rscale>
<asrwt>0</asrwt>
<pdfrwt beam="1">  1        1 0.12130086E+00 0.28522729E+04</pdfrwt>
<pdfrwt beam="2">  1       -1 0.39685475E+00 0.28522729E+04</pdfrwt>
<totfact> 0.14653643E-01</totfact>
</mgrwt>
</event>
<event>
 6    1  0.9364335E-007  0.1172593E+04  0.7818608E-02  0.9137190E-01
         -2   -1    0    0    0  501 -0.00000000000E+00  0.00000000000E+00  0.26815126720E+03  0.26815126720E+03  0.00000000000E+00 0.  1.
          2   -1    0    0  501    0  0.00000000000E+00 -0.00000000000E+00 -0.12819010355E+04  0.12819010355E+04  0.00000000000E+00 0. -1.
         23    2    1    2    0    0 -0.97086581932E+02 -0.41542098292E+03 -0.10346608560E+04  0.11229250722E+04  0.91854414603E+02 0.  0.
         11    1    3    3    0    0 -0.46371847239E+02 -0.17086857892E+03 -0.31762784608E+03  0.36363975041E+03  0.00000000000E+00 0.  1.
        -11    1    3    3    0    0 -0.50714734692E+02 -0.24455240400E+03 -0.71703300993E+03  0.75928532183E+03  0.00000000000E+00 0. -1.
         22    1    1    2    0    0  0.97086581932E+02  0.41542098292E+03  0.20911087680E+02  0.42712723049E+03  0.00000000000E+00 0.  1.
<mgrwt>
<rscale>  0 0.11725927E+04</rscale>
<asrwt>0</asrwt>
<pdfrwt beam="1">  1        2 0.19721555E+00 0.11725927E+04</pdfrwt>
<pdfrwt beam="2">  1       -2 0.41254041E-01 0.11725927E+04</pdfrwt>
<totfact> 0.93138982E+01</totfact>
</mgrwt>
</event>
<event>
 6    1  0.9364335E-007  0.4775498E+04  0.7818608E-02  0.7864104E-01
          1   -1    0    0  501    0  0.00000000000E+00  0.00000000000E+00  0.38728231567E+04  0.38728231567E+04  0.00000000000E+00 0. -1.
         -1   -1    0    0    0  501 -0.00000000000E+00 -0.00000000000E+00 -0.14721421325E+04  0.14721421325E+04  0.00000000000E+00 0.  1.
         23    2    1    2    0    0 -0.21319505447E+04 -0.86001194341E+03  0.48234592151E+03  0.23508304836E+04  0.94407132686E+02 0.  0.
         11    1    3    3    0    0 -0.11363024372E+04 -0.50873468091E+03  0.25522800683E+03  0.12708798290E+04  0.00000000000E+00 0.  1.
        -11    1    3    3    0    0 -0.99564810756E+03 -0.35127726250E+03  0.22711791467E+03  0.10799506546E+04  0.00000000000E+00 0. -1.
         22    1    1    2    0    0  0.21319505447E+04  0.86001194341E+03  0.19183351027E+04  0.29941348056E+04  0.00000000000E+00 0. -1.
<mgrwt>
<rscale>  0 0.47754984E+04</rscale>
<asrwt>0</asrwt>
<pdfrwt beam="1">  1        1 0.59581894E+00 0.47754984E+04</pdfrwt>
<pdfrwt beam="2">  1       -1 0.22648341E+00 0.47754984E+04</pdfrwt>
<totfact> 0.90283557E-03</totfact>
</mgrwt>
</event>
<event>
 6    1  0.9364335E-007  0.4179534E+04  0.7818608E-02  0.7969277E-01
          2   -1    0    0  501    0  0.00000000000E+00  0.00000000000E+00  0.24385948885E+04  0.24385948885E+04  0.00000000000E+00 0. -1.
         -2   -1    0    0    0  501 -0.00000000000E+00 -0.00000000000E+00 -0.17908367205E+04  0.17908367205E+04  0.00000000000E+00 0.  1.
         23    2    1    2    0    0 -0.42304648347E+03 -0.20187686441E+04 -0.92866215870E+01  0.20646907420E+04  0.92013333528E+02 0.  0.
         11    1    3    3    0    0 -0.38094176872E+03 -0.16599231828E+04  0.54564041191E+01  0.17030829036E+04  0.00000000000E+00 0.  1.
        -11    1    3    3    0    0 -0.42104714746E+02 -0.35884546123E+03 -0.14743025706E+02  0.36160783849E+03  0.00000000000E+00 0. -1.
         22    1    1    2    0    0  0.42304648347E+03  0.20187686441E+04  0.65704478966E+03  0.21647408669E+04  0.00000000000E+00 0.  1.
<mgrwt>
<rscale>  0 0.41795336E+04</rscale>
<asrwt>0</asrwt>
<pdfrwt beam="1">  1        2 0.37516844E+00 0.41795336E+04</pdfrwt>
<pdfrwt beam="2">  1       -2 0.27551334E+00 0.41795336E+04</pdfrwt>
<totfact> 0.13174568E-01</totfact>
</mgrwt>
</event>
<event>
 6    1  0.9364335E-007  0.4394961E+04  0.7818608E-02  0.7929289E-01
         -2   -1    0    0    0  501 -0.00000000000E+00  0.00000000000E+00  0.21811504907E+04  0.21811504907E+04  0.00000000000E+00 0.  1.
          2   -1    0    0  501    0  0.00000000000E+00 -0.00000000000E+00 -0.22139326807E+04  0.22139326807E+04  0.00000000000E+00 0. -1.
         23    2    1    2    0    0  0.80132623262E+03  0.16920792075E+03  0.20218873596E+04  0.21832011651E+04  0.87084905137E+02 0.  0.
         13    1    3    3    0    0  0.60365308854E+02  0.36983386151E+02  0.16231872914E+03  0.17708503944E+03  0.00000000000E+00 0. -1.
        -13    1    3    3    0    0  0.74096092377E+03  0.13222453460E+03  0.18595686305E+04  0.20061161257E+04  0.00000000000E+00 0.  1.
         22    1    1    2    0    0 -0.80132623262E+03 -0.16920792075E+03 -0.20546695497E+04  0.22118820063E+04  0.00000000000E+00 0. -1.
<mgrwt>
<rscale>  0 0.43949609E+04</rscale>
<asrwt>0</asrwt>
<pdfrwt beam="1">  1        2 0.34060503E+00 0.43949609E+04</pdfrwt>
<pdfrwt beam="2">  1       -2 0.33556161E+00 0.43949609E+04</pdfrwt>
<totfact> 0.74275898E-02</totfact>
</mgrwt>
</event>
<event>
 6    1  0.9364335E-007  0.1747777E+04  0.7818608E-02  0.8734575E-01
          2   -1    0    0  501    0  0.00000000000E+00  0.00000000000E+00  0.30332955388E+04  0.30332955388E+04  0.00000000000E+00 0. -1.
         -2   -1    0    0    0  501 -0.00000000000E+00 -0.00000000000E+00 -0.25176617841E+03  0.25176617841E+03  0.00000000000E+00 0.  1.
         23    2    1    2    0    0  0.22624150468E+03  0.77170531390E+03  0.76175084136E+03  0.11110746943E+04  0.86650574199E+02 0.  0.
         13    1    3    3    0    0  0.57509418561E+02  0.29301395213E+03  0.32643599304E+03  0.44240814518E+03  0.00000000000E+00 0.  1.
        -13    1    3    3    0    0  0.16873208612E+03  0.47869136176E+03  0.43531484832E+03  0.66866654910E+03  0.00000000000E+00 0. -1.
         22    1    1    2    0    0 -0.22624150468E+03 -0.77170531390E+03  0.20197785191E+04  0.21739870230E+04  0.00000000000E+00 0. -1.
<mgrwt>
<rscale>  0 0.17477771E+04</rscale>
<asrwt>0</asrwt>
<pdfrwt beam="1">  1        2 0.46666083E+00 0.17477771E+04</pdfrwt>
<pdfrwt beam="2">  1       -2 0.38733260E-01 0.17477771E+04</pdfrwt>
<totfact> 0.99520588E+00</totfact>
</mgrwt>
</event>
<event>
 6    1  0.9364335E-007  0.2339311E+04  0.7818608E-02  0.8462581E-01
          2   -1    0    0  501    0  0.00000000000E+00  0.00000000000E+00  0.13078058915E+04  0.13078058915E+04  0.00000000000E+00 0. -1.
         -2   -1    0    0    0  501 -0.00000000000E+00 -0.00000000000E+00 -0.10460985888E+04  0.10460985888E+04  0.00000000000E+00 0.  1.
         23    2    1    2    0    0  0.68324884881E+03  0.51216412266E+03 -0.67060579979E+03  0.10896462791E+04  0.92064091707E+02 0.  0.
         13    1    3    3    0    0  0.43738150003E+03  0.36784993585E+03 -0.48399161107E+03  0.74890856015E+03  0.00000000000E+00 0.  1.
        -13    1    3    3    0    0  0.24586734878E+03  0.14431418681E+03 -0.18661418872E+03  0.34073771899E+03  0.00000000000E+00 0. -1.
         22    1    1    2    0    0 -0.68324884881E+03 -0.51216412266E+03  0.93231310248E+03  0.12642582011E+04  0.00000000000E+00 0. -1.
<mgrwt>
<rscale>  0 0.23393109E+04</rscale>
<asrwt>0</asrwt>
<pdfrwt beam="1">  1        2 0.20120091E+00 0.23393109E+04</pdfrwt>
<pdfrwt beam="2">  1       -2 0.16093824E+00 0.23393109E+04</pdfrwt>
<totfact> 0.36653645E+00</totfact>
</mgrwt>
</event>
<event>
 6    1  0.9364335E-007  0.4878932E+04  0.7818608E-02  0.7847459E-01
         -2   -1    0    0    0  501 -0.00000000000E+00  0.00000000000E+00  0.21330253447E+04  0.21330253447E+04  0.00000000000E+00 0.  1.
          2   -1    0    0  501    0  0.00000000000E+00 -0.00000000000E+00 -0.27899314543E+04  0.27899314543E+04  0.00000000000E+00 0. -1.
         23    2    1    2    0    0  0.76810881171E+03 -0.22012290196E+04  0.39278324422E+03  0.23661525275E+04  0.94861810388E+02 0.  0.
         13    1    3    3    0    0  0.62066022073E+02 -0.25309603995E+03  0.60859871145E+02  0.26760739984E+03  0.00000000000E+00 0. -1.
        -13    1    3    3    0    0  0.70604278964E+03 -0.19481329796E+04  0.33192337308E+03  0.20985451277E+04  0.00000000000E+00 0.  1.
         22    1    1    2    0    0 -0.76810881171E+03  0.22012290196E+04 -0.10496893539E+04  0.25568042715E+04  0.00000000000E+00 0.  1.
<mgrwt>
<rscale>  0 0.48789321E+04</rscale>
<asrwt>0</asrwt>
<pdfrwt beam="1">  1        2 0.42922022E+00 0.48789321E+04</pdfrwt>
<pdfrwt beam="2">  1       -2 0.32815774E+00 0.48789321E+04</pdfrwt>
<totfact> 0.36732377E-02</totfact>
</mgrwt>
</event>
<event>
 6    1  0.9364335E-007  0.6785895E+03  0.7818608E-02  0.9754564E-01
          1   -1    0    0  501    0  0.00000000000E+00  0.00000000000E+00  0.57877491589E+03  0.57877491589E+03  0.00000000000E+00 0. -1.
         -1   -1    0    0    0  501 -0.00000000000E+00 -0.00000000000E+00 -0.19890450902E+03  0.19890450902E+03  0.00000000000E+00 0.  1.
         23    2    1    2    0    0 -0.31938433654E+03  0.92588090826E+02  0.22104218995E+03  0.40916170284E+03  0.89301401677E+02 0.  0.
         11    1    3    3    0    0 -0.14993259063E+03  0.79948848191E+02  0.77634604636E+02  0.18681202289E+03  0.00000000000E+00 0.  1.
        -11    1    3    3    0    0 -0.16945174591E+03  0.12639242635E+02  0.14340758532E+03  0.22234967995E+03  0.00000000000E+00 0. -1.
         22    1    1    2    0    0  0.31938433654E+03 -0.92588090826E+02  0.15882821692E+03  0.36851772207E+03  0.00000000000E+00 0. -1.
<mgrwt>
<rscale>  0 0.67858954E+03</rscale>
<asrwt>0</asrwt>
<pdfrwt beam="1">  1        1 0.89042294E-01 0.67858954E+03</pdfrwt>
<pdfrwt beam="2">  1       -1 0.30600694E-01 0.67858954E+03</pdfrwt>
<totfact> 0.35955123E+02</totfact>
</mgrwt>
</event>
<event>
 6    1  0.9364335E-007  0.1075534E+04  0.7818608E-02  0.9229372E-01
          2   -1    0    0  501    0  0.00000000000E+00  0.00000000000E+00  0.29105972105E+04  0.29105972105E+04  0.00000000000E+00 0. -1.
         -2   -1    0    0    0  501 -0.00000000000E+00 -0.00000000000E+00 -0.99358699137E+02  0.99358699137E+02  0.00000000000E+00 0.  1.
         23    2    1    2    0    0  0.67324093039E+02 -0.41904345409E+03  0.23224956628E+04  0.23626541856E+04  0.89547457269E+02 0.  0.
         11    1    3    3    0    0  0.76337778802E+02 -0.20758798314E+03  0.11092296308E+04  0.11310661347E+04  0.00000000000E+00 0. -1.
        -11    1    3    3    0    0 -0.90136857628E+01 -0.21145547095E+03  0.12132660321E+04  0.12315880510E+04  0.00000000000E+00 0.  1.
         22    1    1    2    0    0 -0.67324093039E+02  0.41904345409E+03  0.48874284857E+03  0.64730172404E+03  0.00000000000E+00 0.  1.
<mgrwt>
<rscale>  0 0.10755336E+04</rscale>
<asrwt>0</asrwt>
<pdfrwt beam="1">  1        2 0.44778412E+00 0.10755336E+04</pdfrwt>
<pdfrwt beam="2">  1       -2 0.15285956E-01 0.10755336E+04</pdfrwt>
<totfact> 0.68126094E+01</totfact>
</mgrwt>
</event>
<event>
 6    1  0.9364335E-007  0.1623460E+04  0.7818608E-02  0.8806264E-01
          1   -1    0    0  501    0  0.00000000000E+00  0.00000000000E+00  0.15864114415E+04  0.15864114415E+04  0.00000000000E+00 0. -1.
         -1   -1    0    0    0  501 -0.00000000000E+00 -0.00000000000E+00 -0.41534335820E+03  0.41534335820E+03  0.00000000000E+00 0.  1.
         23    2    1    2    0    0 -0.17498145138E+03  0.78592500503E+03  0.68852598371E+03  0.10630623582E+04  0.87959793732E+02 0.  0.
         11    1    3    3    0    0 -0.98795290690E+02  0.35000321147E+03  0.36175176928E+03  0.51295916025E+03  0.00000000000E+00 0.  1.
        -11    1    3    3    0    0 -0.76186160692E+02  0.43592179356E+03  0.32677421443E+03  0.55010319795E+03  0.00000000000E+00 0. -1.
         22    1    1    2    0    0  0.17498145138E+03 -0.78592500503E+03  0.48254209958E+03  0.93869244150E+03  0.00000000000E+00 0.  1.
<mgrwt>
<rscale>  0 0.16234598E+04</rscale>
<asrwt>0</asrwt>
<pdfrwt beam="1">  1        1 0.24406330E+00 0.16234598E+04</pdfrwt>
<pdfrwt beam="2">  1       -1 0.63898979E-01 0.16234598E+04</pdfrwt>
<totfact> 0.13561385E+01</totfact>
</mgrwt>
</event>
<event>
 6    1  0.9364335E-007  0.4159748E+04  0.7818608E-02  0.7973074E-01
         -2   -1    0    0    0  501 -0.00000000000E+00  0.00000000000E+00  0.15509207178E+04  0.15509207178E+04  0.00000000000E+00 0.  1.
          2   -1    0    0  501    0  0.00000000000E+00 -0.00000000000E+00 -0.27892304351E+04  0.27892304351E+04  0.00000000000E+00 0. -1.
         23    2    1    2    0    0 -0.11384481022E+04 -0.12736153651E+04  0.61667119857E+03  0.18184227024E+04  0.90650856361E+02 0.  0.
         11    1    3    3    0    0 -0.10345033192E+04 -0.11181126928E+04  0.53774270980E+03  0.16154071725E+04  0.00000000000E+00 0.  1.
        -11    1    3    3    0    0 -0.10394478305E+03 -0.15550267239E+03  0.78928488765E+02  0.20301552990E+03  0.00000000000E+00 0. -1.
         22    1    1    2    0    0  0.11384481022E+04  0.12736153651E+04 -0.18549809159E+04  0.25217284505E+04  0.00000000000E+00 0. -1.
<mgrwt>
<rscale>  0 0.41597477E+04</rscale>
<asrwt>0</asrwt>
<pdfrwt beam="1">  1        2 0.42911237E+00 0.41597477E+04</pdfrwt>
<pdfrwt beam="2">  1       -2 0.23860319E+00 0.41597477E+04</pdfrwt>
<totfact> 0.13811179E-01</totfact>
</mgrwt>
</event>
<event>
 6    1  0.9364335E-007  0.2035064E+04  0.7818608E-02  0.8590400E-01
         -2   -1    0    0    0  501 -0.00000000000E+00  0.00000000000E+00  0.64475472118E+03  0.64475472118E+03  0.00000000000E+00 0.  1.
          2   -1    0    0  501    0  0.00000000000E+00 -0.00000000000E+00 -0.16058371409E+04  0.16058371409E+04  0.00000000000E+00 0. -1.
         23    2    1    2    0    0  0.91121060028E+03  0.11041971487E+03 -0.22623057381E+01  0.92325118143E+03  0.99450261354E+02 0.  0.
         11    1    3    3    0    0  0.44175071167E+03  0.23788080114E+02 -0.41053345269E+02  0.44429150473E+03  0.00000000000E+00 0.  1.
        -11    1    3    3    0    0  0.46945988861E+03  0.86631634757E+02  0.38791039531E+02  0.47895967670E+03  0.00000000000E+00 0. -1.
         22    1    1    2    0    0 -0.91121060028E+03 -0.11041971487E+03 -0.95882011394E+03  0.13273406806E+04  0.00000000000E+00 0. -1.
<mgrwt>
<rscale>  0 0.20350637E+04</rscale>
<asrwt>0</asrwt>
<pdfrwt beam="1">  1        2 0.24705187E+00 0.20350637E+04</pdfrwt>
<pdfrwt beam="2">  1       -2 0.99193035E-01 0.20350637E+04</pdfrwt>
<totfact> 0.86345227E+00</totfact>
</mgrwt>
</event>
<event>
 6    1  0.9364335E-007  0.1393346E+04  0.7818608E-02  0.8958649E-01
          1   -1    0    0  501    0  0.00000000000E+00  0.00000000000E+00  0.30265447072E+04  0.30265447072E+04  0.00000000000E+00 0. -1.
         -1   -1    0    0    0  501 -0.00000000000E+00 -0.00000000000E+00 -0.16036537306E+03  0.16036537306E+03  0.00000000000E+00 0.  1.
         23    2    1    2    0    0 -0.49007605961E+03 -0.48609478499E+03  0.12837392740E+04  0.14604746694E+04  0.92396168392E+02 0.  0.
         11    1    3    3    0    0 -0.26814090337E+03 -0.21393247391E+03  0.69254630425E+03  0.77284347121E+03  0.00000000000E+00 0. -1.
        -11    1    3    3    0    0 -0.22193515624E+03 -0.27216231108E+03  0.59119296978E+03  0.68763119815E+03  0.00000000000E+00 0.  1.
         22    1    1    2    0    0  0.49007605961E+03  0.48609478499E+03  0.15824400601E+04  0.17264354109E+04  0.00000000000E+00 0. -1.
<mgrwt>
<rscale>  0 0.13933456E+04</rscale>
<asrwt>0</asrwt>
<pdfrwt beam="1">  1        1 0.46562222E+00 0.13933456E+04</pdfrwt>
<pdfrwt beam="2">  1       -1 0.24671598E-01 0.13933456E+04</pdfrwt>
<totfact> 0.80572842E+00</totfact>
</mgrwt>
</event>
<event>
 6    1  0.9364335E-007  0.8294748E+03  0.7818608E-02  0.9518307E-01
          2   -1    0    0  501    0  0.00000000000E+00  0.00000000000E+00  0.12060679405E+04  0.12060679405E+04  0.00000000000E+00 0. -1.
         -2   -1    0    0    0  501 -0.00000000000E+00 -0.00000000000E+00 -0.14261808819E+03  0.14261808819E+03  0.00000000000E+00 0.  1.
         23    2    1    2    0    0 -0.28882377173E+03  0.29016896333E+03  0.56332217355E+03  0.70235415306E+03  0.91390845884E+02 0.  0.
         13    1    3    3    0    0 -0.11732592263E+03  0.58222454849E+02  0.18078084656E+03  0.22324188866E+03  0.00000000000E+00 0.  1.
        -13    1    3    3    0    0 -0.17149784910E+03  0.23194650848E+03  0.38254132699E+03  0.47911226440E+03  0.00000000000E+00 0. -1.
         22    1    1    2    0    0  0.28882377173E+03 -0.29016896333E+03  0.50012767877E+03  0.64633187564E+03  0.00000000000E+00 0. -1.
<mgrwt>
<rscale>  0 0.82947478E+03</rscale>
<asrwt>0</asrwt>
<pdfrwt beam="1">  1        2 0.18554891E+00 0.82947478E+03</pdfrwt>
<pdfrwt beam="2">  1       -2 0.21941245E-01 0.82947478E+03</pdfrwt>
<totfact> 0.34196212E+02</totfact>
</mgrwt>
</event>
<event>
 6    1  0.9364335E-007  0.1415678E+04  0.7818608E-02  0.8942547E-01
         -2   -1    0    0    0  501 -0.00000000000E+00  0.00000000000E+00  0.20827665684E+03  0.20827665684E+03  0.00000000000E+00 0.  1.
          2   -1    0    0  501    0  0.00000000000E+00 -0.00000000000E+00 -0.24056284784E+04  0.24056284784E+04  0.00000000000E+00 0. -1.
         23    2    1    2    0    0  0.63091026570E+03  0.56187115182E+02 -0.53233564579E+03  0.83247772419E+03  0.91832272219E+02 0.  0.
         11    1    3    3    0    0  0.36383985081E+03 -0.97785774702E+01 -0.28048161178E+03  0.45950516011E+03  0.00000000000E+00 0. -1.
        -11    1    3    3    0    0  0.26707041489E+03  0.65965692653E+02 -0.25185403401E+03  0.37297256409E+03  0.00000000000E+00 0.  1.
         22    1    1    2    0    0 -0.63091026570E+03 -0.56187115182E+02 -0.16650161757E+04  0.17814274110E+04  0.00000000000E+00 0.  1.
<mgrwt>
<rscale>  0 0.14156783E+04</rscale>
<asrwt>0</asrwt>
<pdfrwt beam="1">  1        2 0.37009671E+00 0.14156783E+04</pdfrwt>
<pdfrwt beam="2">  1       -2 0.32042560E-01 0.14156783E+04</pdfrwt>
<totfact> 0.34859434E+01</totfact>
</mgrwt>
</event>
<event>
 6    1  0.9364335E-007  0.2968983E+03  0.7818608E-02  0.1086801E+00
          3   -1    0    0  501    0  0.00000000000E+00  0.00000000000E+00  0.14922044673E+03  0.14922044673E+03  0.00000000000E+00 0. -1.
         -3   -1    0    0    0  501 -0.00000000000E+00 -0.00000000000E+00 -0.14768182882E+03  0.14768182882E+03  0.00000000000E+00 0.  1.
         23    2    1    2    0    0  0.17438026240E+02 -0.34464592787E+02  0.12949948546E+03  0.16323898014E+03  0.91569399841E+02 0.  0.
         11    1    3    3    0    0  0.29441277318E+02  0.24302175319E+02  0.38246987136E+02  0.54039028122E+02  0.00000000000E+00 0.  1.
        -11    1    3    3    0    0 -0.12003251079E+02 -0.58766768106E+02  0.91252498322E+02  0.10919995202E+03  0.00000000000E+00 0. -1.
         22    1    1    2    0    0 -0.17438026240E+02  0.34464592787E+02 -0.12796086756E+03  0.13366329541E+03  0.00000000000E+00 0.  1.
<mgrwt>
<rscale>  0 0.29689829E+03</rscale>
<asrwt>0</asrwt>
<pdfrwt beam="1">  1        3 0.22956992E-01 0.29689829E+03</pdfrwt>
<pdfrwt beam="2">  1       -3 0.22720282E-01 0.29689829E+03</pdfrwt>
<totfact> 0.80231803E+02</totfact>
</mgrwt>
</event>
<event>
 6    1  0.9364335E-007  0.8527300E+03  0.7818608E-02  0.9486680E-01
          1   -1    0    0  501    0  0.00000000000E+00  0.00000000000E+00  0.13074339047E+04  0.13074339047E+04  0.00000000000E+00 0. -1.
         -1   -1    0    0    0  501 -0.00000000000E+00 -0.00000000000E+00 -0.13904116005E+03  0.13904116005E+03  0.00000000000E+00 0.  1.
         23    2    1    2    0    0 -0.82522591436E+02 -0.36880272352E+03  0.90763029894E+03  0.98732097288E+03  0.90468320263E+02 0.  0.
         13    1    3    3    0    0 -0.60427567648E+01 -0.21092149615E+03  0.44334932419E+03  0.49100205265E+03  0.00000000000E+00 0.  1.
        -13    1    3    3    0    0 -0.76479834671E+02 -0.15788122737E+03  0.46428097475E+03  0.49631892023E+03  0.00000000000E+00 0. -1.
         22    1    1    2    0    0  0.82522591436E+02  0.36880272352E+03  0.26076244567E+03  0.45915409183E+03  0.00000000000E+00 0.  1.
<mgrwt>
<rscale>  0 0.85273003E+03</rscale>
<asrwt>0</asrwt>
<pdfrwt beam="1">  1        1 0.20114367E+00 0.85273003E+03</pdfrwt>
<pdfrwt beam="2">  1       -1 0.21390949E-01 0.85273003E+03</pdfrwt>
<totfact> 0.16478738E+02</totfact>
</mgrwt>
</event>
<event>
 6    1  0.9364335E-007  0.6141119E+04  0.7818608E-02  0.7673147E-01
         -2   -1    0    0    0  501 -0.00000000000E+00  0.00000000000E+00  0.23847869885E+04  0.23847869885E+04  0.00000000000E+00 0.  1.
          2   -1    0    0  501    0  0.00000000000E+00 -0.00000000000E+00 -0.39535332725E+04  0.39535332725E+04  0.00000000000E+00 0. -1.
         23    2    1    2    0    0  0.16993960486E+04 -0.18115106593E+04 -0.26465259210E+04  0.36307149084E+04  0.92051599062E+02 0.  0.
         13    1    3    3    0    0  0.42139589607E+03 -0.46926303638E+03 -0.72773101708E+03  0.96300297599E+03  0.00000000000E+00 0.  1.
        -13    1    3    3    0    0  0.12780001525E+04 -0.13422476230E+04 -0.19187949039E+04  0.26677119324E+04  0.00000000000E+00 0. -1.
         22    1    1    2    0    0 -0.16993960486E+04  0.18115106593E+04  0.10777796370E+04  0.27076053525E+04  0.00000000000E+00 0.  1.
<mgrwt>
<rscale>  0 0.61411187E+04</rscale>
<asrwt>0</asrwt>
<pdfrwt beam="1">  1        2 0.60823589E+00 0.61411187E+04</pdfrwt>
<pdfrwt beam="2">  1       -2 0.36689031E+00 0.61411187E+04</pdfrwt>
<totfact> 0.30032006E-03</totfact>
</mgrwt>
</event>
<event>
 6    1  0.9364335E-007  0.1998384E+04  0.7818608E-02  0.8607376E-01
          2   -1    0    0  501    0  0.00000000000E+00  0.00000000000E+00  0.28981269326E+04  0.28981269326E+04  0.00000000000E+00 0. -1.
         -2   -1    0    0    0  501 -0.00000000000E+00 -0.00000000000E+00 -0.34449322787E+03  0.34449322787E+03  0.00000000000E+00 0.  1.
         23    2    1    2    0    0  0.30060824958E+03 -0.95073121684E+03  0.12626205357E+04  0.16113721201E+04  0.89745897215E+02 0.  0.
         11    1    3    3    0    0  0.14305531386E+03 -0.34369808438E+03  0.51661834420E+03  0.63677916862E+03  0.00000000000E+00 0. -1.
        -11    1    3    3    0    0  0.15755293572E+03 -0.60703313246E+03  0.74600219146E+03  0.97459295151E+03  0.00000000000E+00 0.  1.
         22    1    1    2    0    0 -0.30060824958E+03  0.95073121684E+03  0.12910131691E+04  0.16312480404E+04  0.00000000000E+00 0. -1.
<mgrwt>
<rscale>  0 0.19983844E+04</rscale>
<asrwt>0</asrwt>
<pdfrwt beam="1">  1        2 0.44586567E+00 0.19983844E+04</pdfrwt>
<pdfrwt beam="2">  1       -2 0.52998960E-01 0.19983844E+04</pdfrwt>
<totfact> 0.62962798E+00</totfact>
</mgrwt>
</event>
<event>
 6    1  0.9364335E-007  0.1462625E+04  0.7818608E-02  0.8909694E-01
          1   -1    0    0  501    0  0.00000000000E+00  0.00000000000E+00  0.78421443388E+03  0.78421443388E+03  0.00000000000E+00 0. -1.
         -1   -1    0    0    0  501 -0.00000000000E+00 -0.00000000000E+00 -0.68197953079E+03  0.68197953079E+03  0.00000000000E+00 0.  1.
         23    2    1    2    0    0  0.31005717617E+03 -0.65830001017E+03  0.17436208540E+02  0.73360596690E+03  0.91538720888E+02 0.  0.
         13    1    3    3    0    0  0.53437544625E+02 -0.18567771914E+03 -0.21470345660E+02  0.19440360671E+03  0.00000000000E+00 0. -1.
        -13    1    3    3    0    0  0.25661963155E+03 -0.47262229103E+03  0.38906554200E+02  0.53920236019E+03  0.00000000000E+00 0.  1.
         22    1    1    2    0    0 -0.31005717617E+03  0.65830001017E+03  0.84798694546E+02  0.73258799777E+03  0.00000000000E+00 0. -1.
<mgrwt>
<rscale>  0 0.14626253E+04</rscale>
<asrwt>0</asrwt>
<pdfrwt beam="1">  1        1 0.12064837E+00 0.14626253E+04</pdfrwt>
<pdfrwt beam="2">  1       -1 0.10491993E+00 0.14626253E+04</pdfrwt>
<totfact> 0.18896547E+01</totfact>
</mgrwt>
</event>
<event>
 6    1  0.9364335E-007  0.8571219E+03  0.7818608E-02  0.9480828E-01
         -1   -1    0    0    0  501 -0.00000000000E+00  0.00000000000E+00  0.66395881666E+03  0.66395881666E+03  0.00000000000E+00 0.  1.
          1   -1    0    0  501    0  0.00000000000E+00 -0.00000000000E+00 -0.27662028722E+03  0.27662028722E+03  0.00000000000E+00 0. -1.
         23    2    1    2    0    0  0.17682581881E+03 -0.19353097440E+03  0.56109610173E+03  0.62607425148E+03  0.91752518964E+02 0.  0.
         13    1    3    3    0    0  0.65332587303E+02 -0.57945197039E+02  0.10038025409E+03  0.13304957059E+03  0.00000000000E+00 0.  1.
        -13    1    3    3    0    0  0.11149323151E+03 -0.13558577736E+03  0.46071584764E+03  0.49302468089E+03  0.00000000000E+00 0. -1.
         22    1    1    2    0    0 -0.17682581881E+03  0.19353097440E+03 -0.17375757230E+03  0.31450485239E+03  0.00000000000E+00 0. -1.
<mgrwt>
<rscale>  0 0.85712188E+03</rscale>
<asrwt>0</asrwt>
<pdfrwt beam="1">  1        1 0.42556967E-01 0.85712188E+03</pdfrwt>
<pdfrwt beam="2">  1       -1 0.10214751E+00 0.85712188E+03</pdfrwt>
<totfact> 0.89387459E+01</totfact>
</mgrwt>
</event>
<event>
 6    1  0.9364335E-007  0.3403446E+04  0.7818608E-02  0.8137061E-01
         -2   -1    0    0    0  501 -0.00000000000E+00  0.00000000000E+00  0.14211296904E+04  0.14211296904E+04  0.00000000000E+00 0.  1.
          2   -1    0    0  501    0  0.00000000000E+00 -0.00000000000E+00 -0.20377174847E+04  0.20377174847E+04  0.00000000000E+00 0. -1.
         23    2    1    2    0    0 -0.89490866684E+03 -0.13541851619E+04  0.20613626981E+03  0.16390796458E+04  0.97010046234E+02 0.  0.
         13    1    3    3    0    0 -0.13442666406E+03 -0.26528146226E+03  0.53404529827E+02  0.30215364640E+03  0.00000000000E+00 0. -1.
        -13    1    3    3    0    0 -0.76048200278E+03 -0.10889036996E+04  0.15273173998E+03  0.13369259994E+04  0.00000000000E+00 0.  1.
         22    1    1    2    0    0  0.89490866684E+03  0.13541851619E+04 -0.82272406411E+03  0.18197675292E+04  0.00000000000E+00 0. -1.
<mgrwt>
<rscale>  0 0.34034458E+04</rscale>
<asrwt>0</asrwt>
<pdfrwt beam="1">  1        2 0.31349500E+00 0.34034458E+04</pdfrwt>
<pdfrwt beam="2">  1       -2 0.21863534E+00 0.34034458E+04</pdfrwt>
<totfact> 0.53159878E-01</totfact>
</mgrwt>
</event>
<event>
 6    1  0.9364335E-007  0.1750101E+04  0.7818608E-02  0.8733295E-01
         -2   -1    0    0    0  501 -0.00000000000E+00  0.00000000000E+00  0.72559391176E+03  0.72559391176E+03  0.00000000000E+00 0.  1.
          2   -1    0    0  501    0  0.00000000000E+00 -0.00000000000E+00 -0.10552922645E+04  0.10552922645E+04  0.00000000000E+00 0. -1.
         23    2    1    2    0    0 -0.29305740587E+02 -0.66706176982E+03  0.40674461457E+03  0.78681451120E+03  0.88349659716E+02 0.  0.
         11    1    3    3    0    0 -0.82332566632E+01 -0.31758574852E+03  0.24477809144E+03  0.40105462001E+03  0.00000000000E+00 0. -1.
        -11    1    3    3    0    0 -0.21072483923E+02 -0.34947602130E+03  0.16196652313E+03  0.38575989119E+03  0.00000000000E+00 0.  1.
         22    1    1    2    0    0  0.29305740587E+02  0.66706176982E+03 -0.73644296733E+03  0.99407166508E+03  0.00000000000E+00 0. -1.
<mgrwt>
<rscale>  0 0.17501013E+04</rscale>
<asrwt>0</asrwt>
<pdfrwt beam="1">  1        2 0.16235265E+00 0.17501013E+04</pdfrwt>
<pdfrwt beam="2">  1       -2 0.11162983E+00 0.17501013E+04</pdfrwt>
<totfact> 0.13960424E+01</totfact>
</mgrwt>
</event>
<event>
 6    1  0.9364335E-007  0.1892821E+04  0.7818608E-02  0.8658438E-01
         -2   -1    0    0    0  501 -0.00000000000E+00  0.00000000000E+00  0.15945696845E+04  0.15945696845E+04  0.00000000000E+00 0.  1.
          2   -1    0    0  501    0  0.00000000000E+00 -0.00000000000E+00 -0.56171423434E+03  0.56171423434E+03  0.00000000000E+00 0. -1.
         23    2    1    2    0    0 -0.16431679449E+01  0.79311418136E+03 -0.66281691268E+02  0.80087429060E+03  0.89294804254E+02 0.  0.
         11    1    3    3    0    0 -0.13337433428E+02  0.36590385436E+03 -0.73461723146E+02  0.37344362698E+03  0.00000000000E+00 0. -1.
        -11    1    3    3    0    0  0.11694265483E+02  0.42721032700E+03  0.71800318779E+01  0.42743066362E+03  0.00000000000E+00 0.  1.
         22    1    1    2    0    0  0.16431679449E+01 -0.79311418136E+03  0.10991371414E+04  0.13554096283E+04  0.00000000000E+00 0.  1.
<mgrwt>
<rscale>  0 0.18928206E+04</rscale>
<asrwt>0</asrwt>
<pdfrwt beam="1">  1        2 0.86417575E-01 0.18928206E+04</pdfrwt>
<pdfrwt beam="2">  1       -2 0.24531841E+00 0.18928206E+04</pdfrwt>
<totfact> 0.34543027E+00</totfact>
</mgrwt>
</event>
<event>
 6    1  0.9364335E-007  0.1586794E+04  0.7818608E-02  0.8828702E-01
         -1   -1    0    0    0  501 -0.00000000000E+00  0.00000000000E+00  0.42081741723E+03  0.42081741723E+03  0.00000000000E+00 0.  1.
          1   -1    0    0  501    0  0.00000000000E+00 -0.00000000000E+00 -0.14958471549E+04  0.14958471549E+04  0.00000000000E+00 0. -1.
         23    2    1    2    0    0 -0.22263957296E+03  0.62710457623E+03 -0.23396662978E+02  0.67217244568E+03  0.91868732018E+02 0.  0.
         13    1    3    3    0    0 -0.16605498459E+03  0.43552329207E+03  0.24494155740E+02  0.46674913980E+03  0.00000000000E+00 0.  1.
        -13    1    3    3    0    0 -0.56584588374E+02  0.19158128416E+03 -0.47890818718E+02  0.20542330588E+03  0.00000000000E+00 0. -1.
         22    1    1    2    0    0  0.22263957296E+03 -0.62710457623E+03 -0.10516330746E+04  0.12444921264E+04  0.00000000000E+00 0. -1.
<mgrwt>
<rscale>  0 0.15867937E+04</rscale>
<asrwt>0</asrwt>
<pdfrwt beam="1">  1        1 0.23013033E+00 0.15867937E+04</pdfrwt>
<pdfrwt beam="2">  1       -1 0.64741142E-01 0.15867937E+04</pdfrwt>
<totfact> 0.15301426E+01</totfact>
</mgrwt>
</event>
<event>
 6    1  0.9364335E-007  0.1871177E+04  0.7818608E-02  0.8669338E-01
          2   -1    0    0  501    0  0.00000000000E+00  0.00000000000E+00  0.12905402899E+04  0.12905402899E+04  0.00000000000E+00 0. -1.
         -2   -1    0    0    0  501 -0.00000000000E+00 -0.00000000000E+00 -0.67826319091E+03  0.67826319091E+03  0.00000000000E+00 0.  1.
         23    2    1    2    0    0 -0.28284127266E+03 -0.16573118413E+03 -0.61259468402E+03  0.70082205519E+03  0.91724016719E+02 0.  0.
         13    1    3    3    0    0 -0.17969261281E+03 -0.73686175623E+02 -0.28121479538E+03  0.34176139149E+03  0.00000000000E+00 0. -1.
        -13    1    3    3    0    0 -0.10314865985E+03 -0.92045008510E+02 -0.33137988864E+03  0.35906066370E+03  0.00000000000E+00 0.  1.
         22    1    1    2    0    0  0.28284127266E+03  0.16573118413E+03  0.12248717830E+04  0.12679814256E+04  0.00000000000E+00 0. -1.
<mgrwt>
<rscale>  0 0.18711771E+04</rscale>
<asrwt>0</asrwt>
<pdfrwt beam="1">  1        2 0.19854466E+00 0.18711771E+04</pdfrwt>
<pdfrwt beam="2">  1       -2 0.10434818E+00 0.18711771E+04</pdfrwt>
<totfact> 0.11729541E+01</totfact>
</mgrwt>
</event>
<event>
 6    1  0.9364335E-007  0.5386474E+04  0.7818608E-02  0.7771506E-01
         -2   -1    0    0    0  501 -0.00000000000E+00  0.00000000000E+00  0.16933530825E+04  0.16933530825E+04  0.00000000000E+00 0.  1.
          2   -1    0    0  501    0  0.00000000000E+00 -0.00000000000E+00 -0.42835281314E+04  0.42835281314E+04  0.00000000000E+00 0. -1.
         23    2    1    2    0    0  0.13527449545E+04  0.50126942800E+03 -0.38180050167E+04  0.40824798886E+04  0.91048240908E+02 0.  0.
         13    1    3    3    0    0  0.31538673827E+03  0.92684142629E+02 -0.78525710713E+03  0.85128600909E+03  0.00000000000E+00 0. -1.
        -13    1    3    3    0    0  0.10373582162E+04  0.40858528537E+03 -0.30327479095E+04  0.32311938795E+04  0.00000000000E+00 0.  1.
         22    1    1    2    0    0 -0.13527449545E+04 -0.50126942800E+03  0.12278299679E+04  0.18944013253E+04  0.00000000000E+00 0.  1.
<mgrwt>
<rscale>  0 0.53864740E+04</rscale>
<asrwt>0</asrwt>
<pdfrwt beam="1">  1        2 0.65900432E+00 0.53864740E+04</pdfrwt>
<pdfrwt beam="2">  1       -2 0.26051586E+00 0.53864740E+04</pdfrwt>
<totfact> 0.76161495E-03</totfact>
</mgrwt>
</event>
<event>
 6    1  0.9364335E-007  0.1581387E+04  0.7818608E-02  0.8832065E-01
         -2   -1    0    0    0  501 -0.00000000000E+00  0.00000000000E+00  0.23654261704E+03  0.23654261704E+03  0.00000000000E+00 0.  1.
          2   -1    0    0  501    0  0.00000000000E+00 -0.00000000000E+00 -0.26430596036E+04  0.26430596036E+04  0.00000000000E+00 0. -1.
         23    2    1    2    0    0 -0.17302860173E+03  0.73314495731E+03 -0.16290751299E+04  0.17970791188E+04  0.90372313583E+02 0.  0.
         11    1    3    3    0    0 -0.44600780094E+02  0.22257266703E+03 -0.39860064516E+03  0.45870502071E+03  0.00000000000E+00 0. -1.
        -11    1    3    3    0    0 -0.12842782164E+03  0.51057229027E+03 -0.12304744847E+04  0.13383740981E+04  0.00000000000E+00 0.  1.
         22    1    1    2    0    0  0.17302860173E+03 -0.73314495731E+03 -0.77744185669E+03  0.10825231018E+04  0.00000000000E+00 0.  1.
<mgrwt>
<rscale>  0 0.15813870E+04</rscale>
<asrwt>0</asrwt>
<pdfrwt beam="1">  1        2 0.40662456E+00 0.15813870E+04</pdfrwt>
<pdfrwt beam="2">  1       -2 0.36391171E-01 0.15813870E+04</pdfrwt>
<totfact> 0.19655253E+01</totfact>
</mgrwt>
</event>
<event>
 6    1  0.9364335E-007  0.2965915E+04  0.7818608E-02  0.8253532E-01
          2   -1    0    0  501    0  0.00000000000E+00  0.00000000000E+00  0.20604698659E+04  0.20604698659E+04  0.00000000000E+00 0. -1.
         -2   -1    0    0    0  501 -0.00000000000E+00 -0.00000000000E+00 -0.10673115153E+04  0.10673115153E+04  0.00000000000E+00 0.  1.
         23    2    1    2    0    0 -0.10901742773E+04 -0.91866740998E+02 -0.55646861638E+03  0.12308725300E+04  0.92034837286E+02 0.  0.
         13    1    3    3    0    0 -0.21188116814E+03 -0.12384337540E+02 -0.68693615776E+02  0.22308252750E+03  0.00000000000E+00 0. -1.
        -13    1    3    3    0    0 -0.87829310913E+03 -0.79482403458E+02 -0.48777500060E+03  0.10077900025E+04  0.00000000000E+00 0.  1.
         22    1    1    2    0    0  0.10901742773E+04  0.91866740998E+02  0.15496269670E+04  0.18969088512E+04  0.00000000000E+00 0. -1.
<mgrwt>
<rscale>  0 0.29659152E+04</rscale>
<asrwt>0</asrwt>
<pdfrwt beam="1">  1        2 0.31699536E+00 0.29659152E+04</pdfrwt>
<pdfrwt beam="2">  1       -2 0.16420177E+00 0.29659152E+04</pdfrwt>
<totfact> 0.12452596E+00</totfact>
</mgrwt>
</event>
<event>
 6    1  0.9364335E-007  0.2345226E+04  0.7818608E-02  0.8460300E-01
         -2   -1    0    0    0  501 -0.00000000000E+00  0.00000000000E+00  0.11474512714E+04  0.11474512714E+04  0.00000000000E+00 0.  1.
          2   -1    0    0  501    0  0.00000000000E+00 -0.00000000000E+00 -0.11983263808E+04  0.11983263808E+04  0.00000000000E+00 0. -1.
         23    2    1    2    0    0 -0.89305500503E+03  0.74727010934E+03 -0.14826280095E+03  0.11772554142E+04  0.89378933196E+02 0.  0.
         11    1    3    3    0    0 -0.33233671215E+03  0.22616289430E+03 -0.36217841484E+02  0.40361996611E+03  0.00000000000E+00 0. -1.
        -11    1    3    3    0    0 -0.56071829289E+03  0.52110721504E+03 -0.11204495947E+03  0.77363544806E+03  0.00000000000E+00 0.  1.
         22    1    1    2    0    0  0.89305500503E+03 -0.74727010934E+03  0.97387691548E+02  0.11685222380E+04  0.00000000000E+00 0. -1.
<mgrwt>
<rscale>  0 0.23452259E+04</rscale>
<asrwt>0</asrwt>
<pdfrwt beam="1">  1        2 0.18435790E+00 0.23452259E+04</pdfrwt>
<pdfrwt beam="2">  1       -2 0.17653097E+00 0.23452259E+04</pdfrwt>
<totfact> 0.32870619E+00</totfact>
</mgrwt>
</event>
<event>
 6    1  0.9364335E-007  0.1262058E+04  0.7818608E-02  0.9060207E-01
          2   -1    0    0  501    0  0.00000000000E+00  0.00000000000E+00  0.14951341605E+04  0.14951341605E+04  0.00000000000E+00 0. -1.
         -2   -1    0    0    0  501 -0.00000000000E+00 -0.00000000000E+00 -0.26632901112E+03  0.26632901112E+03  0.00000000000E+00 0.  1.
         23    2    1    2    0    0  0.15959939758E+03  0.18658185442E+03 -0.18859426131E+03  0.32295497021E+03  0.91909527681E+02 0.  0.
         13    1    3    3    0    0  0.59362983990E+02  0.13910606133E+03 -0.11044485194E+03  0.18727660154E+03  0.00000000000E+00 0. -1.
        -13    1    3    3    0    0  0.10023641359E+03  0.47475793089E+02 -0.78149409375E+02  0.13567836866E+03  0.00000000000E+00 0.  1.
         22    1    1    2    0    0 -0.15959939758E+03 -0.18658185442E+03  0.14173994107E+04  0.14385082014E+04  0.00000000000E+00 0. -1.
<mgrwt>
<rscale>  0 0.12620580E+04</rscale>
<asrwt>0</asrwt>
<pdfrwt beam="1">  1        2 0.23002064E+00 0.12620580E+04</pdfrwt>
<pdfrwt beam="2">  1       -2 0.40973695E-01 0.12620580E+04</pdfrwt>
<totfact> 0.70786076E+01</totfact>
</mgrwt>
</event>
<event>
 6    1  0.9364335E-007  0.2539346E+04  0.7818608E-02  0.8389101E-01
          1   -1    0    0  501    0  0.00000000000E+00  0.00000000000E+00  0.11241446582E+04  0.11241446582E+04  0.00000000000E+00 0. -1.
         -1   -1    0    0    0  501 -0.00000000000E+00 -0.00000000000E+00 -0.14340409924E+04  0.14340409924E+04  0.00000000000E+00 0.  1.
         23    2    1    2    0    0 -0.62279389972E+03  0.22503860809E+03  0.93371579831E+03  0.11492549380E+04  0.10221107501E+03 0.  0.
         11    1    3    3    0    0 -0.15838327945E+03  0.21950414039E+02  0.27481831465E+03  0.31794998027E+03  0.00000000000E+00 0. -1.
        -11    1    3    3    0    0 -0.46441062027E+03  0.20308819405E+03  0.65889748366E+03  0.83130495773E+03  0.00000000000E+00 0.  1.
         22    1    1    2    0    0  0.62279389972E+03 -0.22503860809E+03 -0.12436121326E+04  0.14089307126E+04  0.00000000000E+00 0.  1.
<mgrwt>
<rscale>  0 0.25393460E+04</rscale>
<asrwt>0</asrwt>
<pdfrwt beam="1">  1        1 0.17294533E+00 0.25393460E+04</pdfrwt>
<pdfrwt beam="2">  1       -1 0.22062169E+00 0.25393460E+04</pdfrwt>
<totfact> 0.11735140E+00</totfact>
</mgrwt>
</event>
<event>
 6    1  0.9364335E-007  0.3836187E+04  0.7818608E-02  0.8038434E-01
          2   -1    0    0  501    0  0.00000000000E+00  0.00000000000E+00  0.34820335299E+04  0.34820335299E+04  0.00000000000E+00 0. -1.
         -2   -1    0    0    0  501 -0.00000000000E+00 -0.00000000000E+00 -0.10565901001E+04  0.10565901001E+04  0.00000000000E+00 0.  1.
         23    2    1    2    0    0  0.30656373288E+02 -0.23550219015E+03  0.34639621098E+04  0.34732963829E+04  0.91395679412E+02 0.  0.
         11    1    3    3    0    0 -0.25745284926E+02 -0.12957767507E+03  0.20489817410E+04  0.20532363158E+04  0.00000000000E+00 0. -1.
        -11    1    3    3    0    0  0.56401658214E+02 -0.10592451508E+03  0.14149803689E+04  0.14200600671E+04  0.00000000000E+00 0.  1.
         22    1    1    2    0    0 -0.30656373288E+02  0.23550219015E+03 -0.10385186800E+04  0.10653272472E+04  0.00000000000E+00 0.  1.
<mgrwt>
<rscale>  0 0.38361867E+04</rscale>
<asrwt>0</asrwt>
<pdfrwt beam="1">  1        2 0.53569746E+00 0.38361867E+04</pdfrwt>
<pdfrwt beam="2">  1       -2 0.16255232E+00 0.38361867E+04</pdfrwt>
<totfact> 0.16109977E-01</totfact>
</mgrwt>
</event>
<event>
 6    1  0.9364335E-007  0.2493963E+04  0.7818608E-02  0.8405139E-01
          2   -1    0    0  501    0  0.00000000000E+00  0.00000000000E+00  0.24769326914E+04  0.24769326914E+04  0.00000000000E+00 0. -1.
         -2   -1    0    0    0  501 -0.00000000000E+00 -0.00000000000E+00 -0.62777767569E+03  0.62777767569E+03  0.00000000000E+00 0.  1.
         23    2    1    2    0    0 -0.11209735726E+04 -0.13725621770E+03  0.27269822567E+03  0.11654741694E+04  0.92437532947E+02 0.  0.
         13    1    3    3    0    0 -0.69474588467E+03 -0.12199320928E+03  0.14338890732E+03  0.71980175474E+03  0.00000000000E+00 0. -1.
        -13    1    3    3    0    0 -0.42622768790E+03 -0.15263008419E+02  0.12930931835E+03  0.44567241464E+03  0.00000000000E+00 0.  1.
         22    1    1    2    0    0  0.11209735726E+04  0.13725621770E+03  0.15764567901E+04  0.19392361978E+04  0.00000000000E+00 0.  1.
<mgrwt>
<rscale>  0 0.24939631E+04</rscale>
<asrwt>0</asrwt>
<pdfrwt beam="1">  1        2 0.38106656E+00 0.24939631E+04</pdfrwt>
<pdfrwt beam="2">  1       -2 0.96581182E-01 0.24939631E+04</pdfrwt>
<totfact> 0.28717502E+00</totfact>
</mgrwt>
</event>
<event>
 6    1  0.9364335E-007  0.5861562E+04  0.7818608E-02  0.7707807E-01
         -2   -1    0    0    0  501 -0.00000000000E+00  0.00000000000E+00  0.30198576618E+04  0.30198576618E+04  0.00000000000E+00 0.  1.
          2   -1    0    0  501    0  0.00000000000E+00 -0.00000000000E+00 -0.28443317941E+04  0.28443317941E+04  0.00000000000E+00 0. -1.
         23    2    1    2    0    0 -0.16125826411E+04 -0.14578836733E+04  0.20532010084E+04  0.29916450240E+04  0.91967329329E+02 0.  0.
         13    1    3    3    0    0 -0.35006011770E+03 -0.35194578354E+03  0.50800700448E+03  0.71026687742E+03  0.00000000000E+00 0.  1.
        -13    1    3    3    0    0 -0.12625225234E+04 -0.11059378897E+04  0.15451940039E+04  0.22813781466E+04  0.00000000000E+00 0. -1.
         22    1    1    2    0    0  0.16125826411E+04  0.14578836733E+04 -0.18776751407E+04  0.28725444319E+04  0.00000000000E+00 0. -1.
<mgrwt>
<rscale>  0 0.58615620E+04</rscale>
<asrwt>0</asrwt>
<pdfrwt beam="1">  1        2 0.43758951E+00 0.58615620E+04</pdfrwt>
<pdfrwt beam="2">  1       -2 0.46459349E+00 0.58615620E+04</pdfrwt>
<totfact> 0.41371994E-03</totfact>
</mgrwt>
</event>
<event>
 6    1  0.9364335E-007  0.3604396E+04  0.7818608E-02  0.8089486E-01
         -2   -1    0    0    0  501 -0.00000000000E+00  0.00000000000E+00  0.11306004302E+04  0.11306004302E+04  0.00000000000E+00 0.  1.
          2   -1    0    0  501    0  0.00000000000E+00 -0.00000000000E+00 -0.28727364313E+04  0.28727364313E+04  0.00000000000E+00 0. -1.
         23    2    1    2    0    0 -0.11532686900E+04  0.10930317456E+04  0.70109683547E+02  0.15931539868E+04  0.92071655084E+02 0.  0.
         13    1    3    3    0    0 -0.26427735855E+03  0.29496720172E+03  0.40771606187E+02  0.39813376672E+03  0.00000000000E+00 0. -1.
        -13    1    3    3    0    0 -0.88899133140E+03  0.79806454393E+03  0.29338077359E+02  0.11950202201E+04  0.00000000000E+00 0.  1.
         22    1    1    2    0    0  0.11532686900E+04 -0.10930317456E+04 -0.18122456846E+04  0.24101828747E+04  0.00000000000E+00 0. -1.
<mgrwt>
<rscale>  0 0.36043957E+04</rscale>
<asrwt>0</asrwt>
<pdfrwt beam="1">  1        2 0.44195945E+00 0.36043957E+04</pdfrwt>
<pdfrwt beam="2">  1       -2 0.17393853E+00 0.36043957E+04</pdfrwt>
<totfact> 0.33989076E-01</totfact>
</mgrwt>
</event>
<event>
 6    1  0.9364335E-007  0.3655397E+04  0.7818608E-02  0.8077919E-01
         -2   -1    0    0    0  501 -0.00000000000E+00  0.00000000000E+00  0.14059964669E+04  0.14059964669E+04  0.00000000000E+00 0.  1.
          2   -1    0    0  501    0  0.00000000000E+00 -0.00000000000E+00 -0.23758817965E+04  0.23758817965E+04  0.00000000000E+00 0. -1.
         23    2    1    2    0    0 -0.11498033007E+04 -0.13692436814E+04 -0.87149284723E+03  0.19911920904E+04  0.92034062353E+02 0.  0.
         13    1    3    3    0    0 -0.77386649499E+03 -0.95374372757E+03 -0.55660518094E+03  0.13484456895E+04  0.00000000000E+00 0. -1.
        -13    1    3    3    0    0 -0.37593680567E+03 -0.41549995388E+03 -0.31488766629E+03  0.64274640093E+03  0.00000000000E+00 0.  1.
         22    1    1    2    0    0  0.11498033007E+04  0.13692436814E+04 -0.98392482345E+02  0.17906861729E+04  0.00000000000E+00 0.  1.
<mgrwt>
<rscale>  0 0.36553968E+04</rscale>
<asrwt>0</asrwt>
<pdfrwt beam="1">  1        2 0.36552027E+00 0.36553968E+04</pdfrwt>
<pdfrwt beam="2">  1       -2 0.21630715E+00 0.36553968E+04</pdfrwt>
<totfact> 0.34738127E-01</totfact>
</mgrwt>
</event>
<event>
 6    1  0.9364335E-007  0.1948753E+04  0.7818608E-02  0.8630962E-01
          1   -1    0    0  501    0  0.00000000000E+00  0.00000000000E+00  0.13209218926E+04  0.13209218926E+04  0.00000000000E+00 0. -1.
         -1   -1    0    0    0  501 -0.00000000000E+00 -0.00000000000E+00 -0.71874766924E+03  0.71874766924E+03  0.00000000000E+00 0.  1.
         23    2    1    2    0    0 -0.13039401315E+03 -0.40899218606E+02  0.13092618052E+04  0.13194972261E+04  0.90725467146E+02 0.  0.
         13    1    3    3    0    0 -0.81236081987E+02  0.12748073778E+02  0.90594340608E+03  0.90966766977E+03  0.00000000000E+00 0.  1.
        -13    1    3    3    0    0 -0.49157931159E+02 -0.53647292384E+02  0.40331839908E+03  0.40982955630E+03  0.00000000000E+00 0. -1.
         22    1    1    2    0    0  0.13039401315E+03  0.40899218606E+02 -0.70708758185E+03  0.72017233573E+03  0.00000000000E+00 0.  1.
<mgrwt>
<rscale>  0 0.19487530E+04</rscale>
<asrwt>0</asrwt>
<pdfrwt beam="1">  1        1 0.20321875E+00 0.19487530E+04</pdfrwt>
<pdfrwt beam="2">  1       -1 0.11057656E+00 0.19487530E+04</pdfrwt>
<totfact> 0.61383863E+00</totfact>
</mgrwt>
</event>
<event>
 6    1  0.9364335E-007  0.2005839E+04  0.7818608E-02  0.8603896E-01
         -1   -1    0    0    0  501 -0.00000000000E+00  0.00000000000E+00  0.10421082891E+04  0.10421082891E+04  0.00000000000E+00 0.  1.
          1   -1    0    0  501    0  0.00000000000E+00 -0.00000000000E+00 -0.96520398084E+03  0.96520398084E+03  0.00000000000E+00 0. -1.
         23    2    1    2    0    0 -0.21116778363E+03 -0.76641784518E+03  0.64673456102E+03  0.10292045749E+04  0.94912160994E+02 0.  0.
         11    1    3    3    0    0 -0.20877568783E+03 -0.64048909591E+03  0.56318927307E+03  0.87806362361E+03  0.00000000000E+00 0. -1.
        -11    1    3    3    0    0 -0.23920957994E+01 -0.12592874927E+03  0.83545287950E+02  0.15114095128E+03  0.00000000000E+00 0.  1.
         22    1    1    2    0    0  0.21116778363E+03  0.76641784518E+03 -0.56983025273E+03  0.97810769508E+03  0.00000000000E+00 0.  1.
<mgrwt>
<rscale>  0 0.20058385E+04</rscale>
<asrwt>0</asrwt>
<pdfrwt beam="1">  1        1 0.14849292E+00 0.20058385E+04</pdfrwt>
<pdfrwt beam="2">  1       -1 0.16032435E+00 0.20058385E+04</pdfrwt>
<totfact> 0.43429458E+00</totfact>
</mgrwt>
</event>
<event>
 6    1  0.9364335E-007  0.1472907E+04  0.7818608E-02  0.8902672E-01
          2   -1    0    0  501    0  0.00000000000E+00  0.00000000000E+00  0.24970942990E+04  0.24970942990E+04  0.00000000000E+00 0. -1.
         -2   -1    0    0    0  501 -0.00000000000E+00 -0.00000000000E+00 -0.21719781035E+03  0.21719781035E+03  0.00000000000E+00 0.  1.
         23    2    1    2    0    0 -0.52390116330E+03  0.35892094268E+03  0.46477356450E+03  0.79128199452E+03  0.82559412540E+02 0.  0.
         11    1    3    3    0    0 -0.22137392250E+03  0.14782754213E+03  0.14523504957E+03  0.30323689650E+03  0.00000000000E+00 0. -1.
        -11    1    3    3    0    0 -0.30252724080E+03  0.21109340055E+03  0.31953851493E+03  0.48804509802E+03  0.00000000000E+00 0.  1.
         22    1    1    2    0    0  0.52390116330E+03 -0.35892094268E+03  0.18151229241E+04  0.19230101148E+04  0.00000000000E+00 0. -1.
<mgrwt>
<rscale>  0 0.14729065E+04</rscale>
<asrwt>0</asrwt>
<pdfrwt beam="1">  1        2 0.38416833E+00 0.14729065E+04</pdfrwt>
<pdfrwt beam="2">  1       -2 0.33415049E-01 0.14729065E+04</pdfrwt>
<totfact> 0.28400495E+01</totfact>
</mgrwt>
</event>
<event>
 6    1  0.9364335E-007  0.2039919E+04  0.7818608E-02  0.8588181E-01
          2   -1    0    0  501    0  0.00000000000E+00  0.00000000000E+00  0.23661159339E+04  0.23661159339E+04  0.00000000000E+00 0. -1.
         -2   -1    0    0    0  501 -0.00000000000E+00 -0.00000000000E+00 -0.43967305013E+03  0.43967305013E+03  0.00000000000E+00 0.  1.
         23    2    1    2    0    0 -0.17239558052E+03  0.84734004518E+03  0.22568716810E+03  0.89783841004E+03  0.86450704763E+02 0.  0.
         11    1    3    3    0    0 -0.72088307729E+02  0.47805228617E+03  0.16219155462E+03  0.50993804802E+03  0.00000000000E+00 0. -1.
        -11    1    3    3    0    0 -0.10030727279E+03  0.36928775901E+03  0.63495613476E+02  0.38790036203E+03  0.00000000000E+00 0.  1.
         22    1    1    2    0    0  0.17239558052E+03 -0.84734004518E+03  0.17007557157E+04  0.19079505740E+04  0.00000000000E+00 0. -1.
<mgrwt>
<rscale>  0 0.20399190E+04</rscale>
<asrwt>0</asrwt>
<pdfrwt beam="1">  1        2 0.36401783E+00 0.20399190E+04</pdfrwt>
<pdfrwt beam="2">  1       -2 0.67642009E-01 0.20399190E+04</pdfrwt>
<totfact> 0.77124720E+00</totfact>
</mgrwt>
</event>
<event>
 6    1  0.9364335E-007  0.6346799E+04  0.7818608E-02  0.7648829E-01
          2   -1    0    0  501    0  0.00000000000E+00  0.00000000000E+00  0.38152371262E+04  0.38152371262E+04  0.00000000000E+00 0. -1.
         -2   -1    0    0    0  501 -0.00000000000E+00 -0.00000000000E+00 -0.26395380873E+04  0.26395380873E+04  0.00000000000E+00 0.  1.
         23    2    1    2    0    0  0.10609202589E+04 -0.28181496642E+04 -0.42669324287E+03  0.30437371969E+04  0.12144823847E+03 0.  0.
         11    1    3    3    0    0  0.18712065669E+03 -0.37806341575E+03 -0.55813346763E+02  0.42551288601E+03  0.00000000000E+00 0.  1.
        -11    1    3    3    0    0  0.87379960218E+03 -0.24400862485E+04 -0.37087989611E+03  0.26182243109E+04  0.00000000000E+00 0. -1.
         22    1    1    2    0    0 -0.10609202589E+04  0.28181496642E+04  0.16023922818E+04  0.34110380165E+04  0.00000000000E+00 0.  1.
<mgrwt>
<rscale>  0 0.63467988E+04</rscale>
<asrwt>0</asrwt>
<pdfrwt beam="1">  1        2 0.58695956E+00 0.63467988E+04</pdfrwt>
<pdfrwt beam="2">  1       -2 0.40608278E+00 0.63467988E+04</pdfrwt>
<totfact> 0.21170344E-03</totfact>
</mgrwt>
</event>
<event>
 6    1  0.9364335E-007  0.1411755E+04  0.7818608E-02  0.8945354E-01
         -2   -1    0    0    0  501 -0.00000000000E+00  0.00000000000E+00  0.20892383828E+04  0.20892383828E+04  0.00000000000E+00 0.  1.
          2   -1    0    0  501    0  0.00000000000E+00 -0.00000000000E+00 -0.23849011974E+03  0.23849011974E+03  0.00000000000E+00 0. -1.
         23    2    1    2    0    0 -0.50897879135E+03  0.11363013416E+03  0.15231336612E+03  0.55103147813E+03  0.92006037585E+02 0.  0.
         13    1    3    3    0    0 -0.40565849991E+03  0.11946728764E+03  0.97716740086E+02  0.43402743307E+03  0.00000000000E+00 0.  1.
        -13    1    3    3    0    0 -0.10332029144E+03 -0.58371534840E+01  0.54596626039E+02  0.11700404505E+03  0.00000000000E+00 0. -1.
         22    1    1    2    0    0  0.50897879135E+03 -0.11363013416E+03  0.16984348969E+04  0.17766970244E+04  0.00000000000E+00 0. -1.
<mgrwt>
<rscale>  0 0.14117545E+04</rscale>
<asrwt>0</asrwt>
<pdfrwt beam="1">  1        2 0.36690789E-01 0.14117545E+04</pdfrwt>
<pdfrwt beam="2">  1       -2 0.32142128E+00 0.14117545E+04</pdfrwt>
<totfact> 0.32590089E+00</totfact>
</mgrwt>
</event>
<event>
 6    1  0.9364335E-007  0.1919365E+04  0.7818608E-02  0.8645277E-01
         -2   -1    0    0    0  501 -0.00000000000E+00  0.00000000000E+00  0.21525988495E+04  0.21525988495E+04  0.00000000000E+00 0.  1.
          2   -1    0    0  501    0  0.00000000000E+00 -0.00000000000E+00 -0.42785067563E+03  0.42785067563E+03  0.00000000000E+00 0. -1.
         23    2    1    2    0    0  0.47079109643E+03  0.37729257032E+03 -0.13451529721E+03  0.62574888438E+03  0.97331192416E+02 0.  0.
         13    1    3    3    0    0  0.38307180078E+03  0.34890882434E+03 -0.10281380942E+03  0.52825377582E+03  0.00000000000E+00 0. -1.
        -13    1    3    3    0    0  0.87719295652E+02  0.28383745980E+02 -0.31701487787E+02  0.97495108561E+02  0.00000000000E+00 0.  1.
         22    1    1    2    0    0 -0.47079109643E+03 -0.37729257032E+03  0.18592634711E+04  0.19547006408E+04  0.00000000000E+00 0.  1.
<mgrwt>
<rscale>  0 0.19193654E+04</rscale>
<asrwt>0</asrwt>
<pdfrwt beam="1">  1        2 0.65823182E-01 0.19193654E+04</pdfrwt>
<pdfrwt beam="2">  1       -2 0.33116905E+00 0.19193654E+04</pdfrwt>
<totfact> 0.14096359E+00</totfact>
</mgrwt>
</event>
<event>
 6    1  0.9364335E-007  0.2754226E+04  0.7818608E-02  0.8317622E-01
          2   -1    0    0  501    0  0.00000000000E+00  0.00000000000E+00  0.27562259477E+04  0.27562259477E+04  0.00000000000E+00 0. -1.
         -2   -1    0    0    0  501 -0.00000000000E+00 -0.00000000000E+00 -0.68805688447E+03  0.68805688447E+03  0.00000000000E+00 0.  1.
         23    2    1    2    0    0  0.11886336659E+04  0.56413413332E+03  0.53105678681E+03  0.14209658865E+04  0.77623628363E+02 0.  0.
         13    1    3    3    0    0  0.10320697250E+04  0.51075348027E+03  0.48283943567E+03  0.12486676722E+04  0.00000000000E+00 0.  1.
        -13    1    3    3    0    0  0.15656394094E+03  0.53380653049E+02  0.48217351148E+02  0.17229821437E+03  0.00000000000E+00 0. -1.
         22    1    1    2    0    0 -0.11886336659E+04 -0.56413413332E+03  0.15371122764E+04  0.20233169456E+04  0.00000000000E+00 0. -1.
<mgrwt>
<rscale>  0 0.27542260E+04</rscale>
<asrwt>0</asrwt>
<pdfrwt beam="1">  1        2 0.42403476E+00 0.27542260E+04</pdfrwt>
<pdfrwt beam="2">  1       -2 0.10585491E+00 0.27542260E+04</pdfrwt>
<totfact> 0.15467648E+00</totfact>
</mgrwt>
</event>
<event>
 6    1  0.9364335E-007  0.3145260E+04  0.7818608E-02  0.8203425E-01
          1   -1    0    0  501    0  0.00000000000E+00  0.00000000000E+00  0.15350285128E+04  0.15350285128E+04  0.00000000000E+00 0. -1.
         -1   -1    0    0    0  501 -0.00000000000E+00 -0.00000000000E+00 -0.16111528668E+04  0.16111528668E+04  0.00000000000E+00 0.  1.
         23    2    1    2    0    0 -0.38355307597E+03  0.34613703696E+03 -0.15214205193E+04  0.16113182535E+04  0.12125306946E+03 0.  0.
         13    1    3    3    0    0 -0.97564031411E+02  0.16240867649E+03 -0.59968381918E+03  0.62890062921E+03  0.00000000000E+00 0. -1.
        -13    1    3    3    0    0 -0.28598904456E+03  0.18372836047E+03 -0.92173670015E+03  0.98241762426E+03  0.00000000000E+00 0.  1.
         22    1    1    2    0    0  0.38355307597E+03 -0.34613703696E+03  0.14452961653E+04  0.15348631261E+04  0.00000000000E+00 0. -1.
<mgrwt>
<rscale>  0 0.31452603E+04</rscale>
<asrwt>0</asrwt>
<pdfrwt beam="1">  1        1 0.23615823E+00 0.31452603E+04</pdfrwt>
<pdfrwt beam="2">  1       -1 0.24786967E+00 0.31452603E+04</pdfrwt>
<totfact> 0.37436081E-01</totfact>
</mgrwt>
</event>
<event>
 6    1  0.9364335E-007  0.1884373E+04  0.7818608E-02  0.8662674E-01
          1   -1    0    0  501    0  0.00000000000E+00  0.00000000000E+00  0.18788773850E+04  0.18788773850E+04  0.00000000000E+00 0. -1.
         -1   -1    0    0    0  501 -0.00000000000E+00 -0.00000000000E+00 -0.47247102420E+03  0.47247102420E+03  0.00000000000E+00 0.  1.
         23    2    1    2    0    0  0.30768962900E+03  0.72096842731E+03  0.13521512837E+04  0.15655927256E+04  0.91099437445E+02 0.  0.
         13    1    3    3    0    0  0.24893514897E+03  0.62524998725E+03  0.12084789444E+04  0.13832308607E+04  0.00000000000E+00 0.  1.
        -13    1    3    3    0    0  0.58754480030E+02  0.95718440065E+02  0.14367233927E+03  0.18236186489E+03  0.00000000000E+00 0. -1.
         22    1    1    2    0    0 -0.30768962900E+03 -0.72096842731E+03  0.54255077157E+02  0.78575568364E+03  0.00000000000E+00 0.  1.
<mgrwt>
<rscale>  0 0.18843727E+04</rscale>
<asrwt>0</asrwt>
<pdfrwt beam="1">  1        1 0.28905806E+00 0.18843727E+04</pdfrwt>
<pdfrwt beam="2">  1       -1 0.72687851E-01 0.18843727E+04</pdfrwt>
<totfact> 0.64387082E+00</totfact>
</mgrwt>
</event>
<event>
 6    1  0.9364335E-007  0.8255098E+03  0.7818608E-02  0.9523810E-01
         -1   -1    0    0    0  501 -0.00000000000E+00  0.00000000000E+00  0.18478990078E+03  0.18478990078E+03  0.00000000000E+00 0.  1.
          1   -1    0    0  501    0  0.00000000000E+00 -0.00000000000E+00 -0.92194751595E+03  0.92194751595E+03  0.00000000000E+00 0. -1.
         23    2    1    2    0    0 -0.22981103757E+03 -0.21683423707E+03 -0.28769165825E+02  0.33108002166E+03  0.94636760765E+02 0.  0.
         11    1    3    3    0    0 -0.60028712564E+02 -0.11901069142E+03 -0.19633585893E+01  0.13330733581E+03  0.00000000000E+00 0.  1.
        -11    1    3    3    0    0 -0.16978232500E+03 -0.97823545649E+02 -0.26805807235E+02  0.19777268585E+03  0.00000000000E+00 0. -1.
         22    1    1    2    0    0  0.22981103757E+03  0.21683423707E+03 -0.70838844935E+03  0.77565739507E+03  0.00000000000E+00 0. -1.
<mgrwt>
<rscale>  0 0.82550976E+03</rscale>
<asrwt>0</asrwt>
<pdfrwt beam="1">  1        1 0.14183808E+00 0.82550976E+03</pdfrwt>
<pdfrwt beam="2">  1       -1 0.28429215E-01 0.82550976E+03</pdfrwt>
<totfact> 0.19751302E+02</totfact>
</mgrwt>
</event>
<event>
 6    1  0.9364335E-007  0.2194144E+04  0.7818608E-02  0.8520869E-01
          1   -1    0    0  501    0  0.00000000000E+00  0.00000000000E+00  0.14649810122E+04  0.14649810122E+04  0.00000000000E+00 0. -1.
         -1   -1    0    0    0  501 -0.00000000000E+00 -0.00000000000E+00 -0.82155830686E+03  0.82155830686E+03  0.00000000000E+00 0.  1.
         23    2    1    2    0    0 -0.10565900394E+04  0.19371748177E+03  0.54512118644E+03  0.12078492974E+04  0.88509000027E+02 0.  0.
         13    1    3    3    0    0 -0.32965245842E+03  0.52610873878E+02  0.21516349781E+03  0.39715737206E+03  0.00000000000E+00 0. -1.
        -13    1    3    3    0    0 -0.72693758103E+03  0.14110660789E+03  0.32995768863E+03  0.81069192533E+03  0.00000000000E+00 0.  1.
         22    1    1    2    0    0  0.10565900394E+04 -0.19371748177E+03  0.98301518889E+02  0.10786900217E+04  0.00000000000E+00 0.  1.
<mgrwt>
<rscale>  0 0.21941443E+04</rscale>
<asrwt>0</asrwt>
<pdfrwt beam="1">  1        1 0.22538169E+00 0.21941443E+04</pdfrwt>
<pdfrwt beam="2">  1       -1 0.12639359E+00 0.21941443E+04</pdfrwt>
<totfact> 0.34356254E+00</totfact>
</mgrwt>
</event>
<event>
 6    1  0.9364335E-007  0.3551213E+04  0.7818608E-02  0.8101759E-01
          2   -1    0    0  501    0  0.00000000000E+00  0.00000000000E+00  0.25098674733E+04  0.25098674733E+04  0.00000000000E+00 0. -1.
         -2   -1    0    0    0  501 -0.00000000000E+00 -0.00000000000E+00 -0.12561535967E+04  0.12561535967E+04  0.00000000000E+00 0.  1.
         23    2    1    2    0    0  0.15700896212E+04  0.39174818779E+02  0.15014022414E+04  0.21760318841E+04  0.11912172415E+03 0.  0.
         11    1    3    3    0    0  0.68910048249E+03  0.61620025961E+02  0.71445667884E+03  0.99453750483E+03  0.00000000000E+00 0. -1.
        -11    1    3    3    0    0  0.88098913871E+03 -0.22445207182E+02  0.78694556255E+03  0.11814943793E+04  0.00000000000E+00 0.  1.
         22    1    1    2    0    0 -0.15700896212E+04 -0.39174818779E+02 -0.24768836480E+03  0.15899891858E+04  0.00000000000E+00 0. -1.
<mgrwt>
<rscale>  0 0.35512133E+04</rscale>
<asrwt>0</asrwt>
<pdfrwt beam="1">  1        2 0.38613346E+00 0.35512133E+04</pdfrwt>
<pdfrwt beam="2">  1       -2 0.19325440E+00 0.35512133E+04</pdfrwt>
<totfact> 0.41437182E-01</totfact>
</mgrwt>
</event>
<event>
 6    1  0.9364335E-007  0.2197081E+04  0.7818608E-02  0.8519644E-01
          2   -1    0    0  501    0  0.00000000000E+00  0.00000000000E+00  0.18296626234E+04  0.18296626234E+04  0.00000000000E+00 0. -1.
         -2   -1    0    0    0  501 -0.00000000000E+00 -0.00000000000E+00 -0.65957051832E+03  0.65957051832E+03  0.00000000000E+00 0.  1.
         23    2    1    2    0    0  0.77392694603E+03  0.25177122637E+03 -0.24672179422E+03  0.85530741102E+03  0.91254892407E+02 0.  0.
         11    1    3    3    0    0  0.16618411324E+03  0.40804783549E+02 -0.89249433637E+02  0.19299650582E+03  0.00000000000E+00 0. -1.
        -11    1    3    3    0    0  0.60774283279E+03  0.21096644282E+03 -0.15747236058E+03  0.66231090520E+03  0.00000000000E+00 0.  1.
         22    1    1    2    0    0 -0.77392694603E+03 -0.25177122637E+03  0.14168138993E+04  0.16339257307E+04  0.00000000000E+00 0. -1.
<mgrwt>
<rscale>  0 0.21970813E+04</rscale>
<asrwt>0</asrwt>
<pdfrwt beam="1">  1        2 0.28148656E+00 0.21970813E+04</pdfrwt>
<pdfrwt beam="2">  1       -2 0.10147239E+00 0.21970813E+04</pdfrwt>
<totfact> 0.60593202E+00</totfact>
</mgrwt>
</event>
<event>
 6    1  0.9364335E-007  0.2192558E+04  0.7818608E-02  0.8521532E-01
         -2   -1    0    0    0  501 -0.00000000000E+00  0.00000000000E+00  0.63780045771E+03  0.63780045771E+03  0.00000000000E+00 0.  1.
          2   -1    0    0  501    0  0.00000000000E+00 -0.00000000000E+00 -0.18843316967E+04  0.18843316967E+04  0.00000000000E+00 0. -1.
         23    2    1    2    0    0 -0.22131981047E+03 -0.12789127735E+03 -0.18484078895E+04  0.18682253263E+04  0.91189398640E+02 0.  0.
         11    1    3    3    0    0 -0.22645291264E+02 -0.46293276736E+02 -0.23499974581E+03  0.24058419985E+03  0.00000000000E+00 0. -1.
        -11    1    3    3    0    0 -0.19867451920E+03 -0.81598000617E+02 -0.16134081437E+04  0.16276411264E+04  0.00000000000E+00 0.  1.
         22    1    1    2    0    0  0.22131981047E+03  0.12789127735E+03  0.60187665057E+03  0.65390682809E+03  0.00000000000E+00 0.  1.
<mgrwt>
<rscale>  0 0.21925580E+04</rscale>
<asrwt>0</asrwt>
<pdfrwt beam="1">  1        2 0.28989718E+00 0.21925580E+04</pdfrwt>
<pdfrwt beam="2">  1       -2 0.98123149E-01 0.21925580E+04</pdfrwt>
<totfact> 0.61205015E+00</totfact>
</mgrwt>
</event>
<event>
 6    1  0.9364335E-007  0.9435785E+03  0.7818608E-02  0.9372688E-01
         -2   -1    0    0    0  501 -0.00000000000E+00  0.00000000000E+00  0.23363987774E+03  0.23363987774E+03  0.00000000000E+00 0.  1.
          2   -1    0    0  501    0  0.00000000000E+00 -0.00000000000E+00 -0.95268462661E+03  0.95268462661E+03  0.00000000000E+00 0. -1.
         23    2    1    2    0    0 -0.23596048940E+03 -0.82280440560E+02 -0.85896589799E+03  0.89992382099E+03  0.97944097441E+02 0.  0.
         11    1    3    3    0    0 -0.13756505450E+03 -0.34187843910E+02 -0.63481068886E+03  0.65044412795E+03  0.00000000000E+00 0. -1.
        -11    1    3    3    0    0 -0.98395434897E+02 -0.48092596650E+02 -0.22415520913E+03  0.24947969304E+03  0.00000000000E+00 0.  1.
         22    1    1    2    0    0  0.23596048940E+03  0.82280440560E+02  0.13992114912E+03  0.28640068336E+03  0.00000000000E+00 0.  1.
<mgrwt>
<rscale>  0 0.94357855E+03</rscale>
<asrwt>0</asrwt>
<pdfrwt beam="1">  1        2 0.14656687E+00 0.94357855E+03</pdfrwt>
<pdfrwt beam="2">  1       -2 0.35944596E-01 0.94357855E+03</pdfrwt>
<totfact> 0.19679160E+02</totfact>
</mgrwt>
</event>
<event>
 6    1  0.9364335E-007  0.1170301E+04  0.7818608E-02  0.9139257E-01
          2   -1    0    0  501    0  0.00000000000E+00  0.00000000000E+00  0.11247763642E+04  0.11247763642E+04  0.00000000000E+00 0. -1.
         -2   -1    0    0    0  501 -0.00000000000E+00 -0.00000000000E+00 -0.30441690420E+03  0.30441690420E+03  0.00000000000E+00 0.  1.
         23    2    1    2    0    0 -0.69530397632E+02  0.52710012998E+03  0.12470721009E+03  0.55363568832E+03  0.91058024955E+02 0.  0.
         13    1    3    3    0    0 -0.42564058335E+02  0.29295693248E+03  0.11549450177E+03  0.31776476093E+03  0.00000000000E+00 0.  1.
        -13    1    3    3    0    0 -0.26966339297E+02  0.23414319750E+03  0.92127083166E+01  0.23587092739E+03  0.00000000000E+00 0. -1.
         22    1    1    2    0    0  0.69530397632E+02 -0.52710012998E+03  0.69565224986E+03  0.87555758004E+03  0.00000000000E+00 0. -1.
<mgrwt>
<rscale>  0 0.11703007E+04</rscale>
<asrwt>0</asrwt>
<pdfrwt beam="1">  1        2 0.17304252E+00 0.11703007E+04</pdfrwt>
<pdfrwt beam="2">  1       -2 0.46833370E-01 0.11703007E+04</pdfrwt>
<totfact> 0.89840053E+01</totfact>
</mgrwt>
</event>
<event>
 6    1  0.9364335E-007  0.1326461E+04  0.7818608E-02  0.9008840E-01
          2   -1    0    0  501    0  0.00000000000E+00  0.00000000000E+00  0.55419328088E+03  0.55419328088E+03  0.00000000000E+00 0. -1.
         -2   -1    0    0    0  501 -0.00000000000E+00 -0.00000000000E+00 -0.79372105147E+03  0.79372105147E+03  0.00000000000E+00 0.  1.
         23    2    1    2    0    0 -0.47007007630E+03  0.35478640904E+03  0.18150657541E+03  0.62396047113E+03  0.97687051088E+02 0.  0.
         13    1    3    3    0    0 -0.32065508584E+03  0.18446544699E+03  0.10040531893E+03  0.38331242255E+03  0.00000000000E+00 0. -1.
        -13    1    3    3    0    0 -0.14941499046E+03  0.17032096204E+03  0.81101256484E+02  0.24064804859E+03  0.00000000000E+00 0.  1.
         22    1    1    2    0    0  0.47007007630E+03 -0.35478640904E+03 -0.42103434599E+03  0.72395386122E+03  0.00000000000E+00 0.  1.
<mgrwt>
<rscale>  0 0.13264613E+04</rscale>
<asrwt>0</asrwt>
<pdfrwt beam="1">  1        2 0.85260505E-01 0.13264613E+04</pdfrwt>
<pdfrwt beam="2">  1       -2 0.12211093E+00 0.13264613E+04</pdfrwt>
<totfact> 0.27129811E+01</totfact>
</mgrwt>
</event>
<event>
 6    1  0.9364335E-007  0.2254353E+04  0.7818608E-02  0.8496140E-01
          1   -1    0    0  501    0  0.00000000000E+00  0.00000000000E+00  0.13782786292E+04  0.13782786292E+04  0.00000000000E+00 0. -1.
         -1   -1    0    0    0  501 -0.00000000000E+00 -0.00000000000E+00 -0.92182113004E+03  0.92182113004E+03  0.00000000000E+00 0.  1.
         23    2    1    2    0    0 -0.53637421900E+03 -0.65888761250E+03  0.98279888045E+03  0.13006672011E+04  0.63335139764E+02 0.  0.
         13    1    3    3    0    0 -0.31716497953E+03 -0.39993359564E+03  0.63615971761E+03  0.81562227254E+03  0.00000000000E+00 0.  1.
        -13    1    3    3    0    0 -0.21920923947E+03 -0.25895401687E+03  0.34663916284E+03  0.48504492858E+03  0.00000000000E+00 0. -1.
         22    1    1    2    0    0  0.53637421900E+03  0.65888761250E+03 -0.52634138125E+03  0.99943255817E+03  0.00000000000E+00 0.  1.
<mgrwt>
<rscale>  0 0.22543526E+04</rscale>
<asrwt>0</asrwt>
<pdfrwt beam="1">  1        1 0.21204287E+00 0.22543526E+04</pdfrwt>
<pdfrwt beam="2">  1       -1 0.14181864E+00 0.22543526E+04</pdfrwt>
<totfact> 0.29263497E+00</totfact>
</mgrwt>
</event>
<event>
 6    1  0.9364335E-007  0.1625054E+04  0.7818608E-02  0.8805302E-01
         -2   -1    0    0    0  501 -0.00000000000E+00  0.00000000000E+00  0.36337229590E+03  0.36337229590E+03  0.00000000000E+00 0.  1.
          2   -1    0    0  501    0  0.00000000000E+00 -0.00000000000E+00 -0.18168702591E+04  0.18168702591E+04  0.00000000000E+00 0. -1.
         23    2    1    2    0    0  0.62507590913E+03  0.50612052814E+03 -0.85828663569E+03  0.11796655187E+04  0.89871607492E+02 0.  0.
         11    1    3    3    0    0  0.29397834376E+03  0.20251288933E+03 -0.43155393013E+03  0.56006564933E+03  0.00000000000E+00 0.  1.
        -11    1    3    3    0    0  0.33109756536E+03  0.30360763880E+03 -0.42673270556E+03  0.61959986937E+03  0.00000000000E+00 0. -1.
         22    1    1    2    0    0 -0.62507590913E+03 -0.50612052814E+03 -0.59521132748E+03  0.10005770363E+04  0.00000000000E+00 0.  1.
<mgrwt>
<rscale>  0 0.16250542E+04</rscale>
<asrwt>0</asrwt>
<pdfrwt beam="1">  1        2 0.27951851E+00 0.16250542E+04</pdfrwt>
<pdfrwt beam="2">  1       -2 0.55903429E-01 0.16250542E+04</pdfrwt>
<totfact> 0.24287341E+01</totfact>
</mgrwt>
</event>
<event>
 6    1  0.9364335E-007  0.1399487E+04  0.7818608E-02  0.8954190E-01
         -2   -1    0    0    0  501 -0.00000000000E+00  0.00000000000E+00  0.17010097949E+03  0.17010097949E+03  0.00000000000E+00 0.  1.
          2   -1    0    0  501    0  0.00000000000E+00 -0.00000000000E+00 -0.28785328866E+04  0.28785328866E+04  0.00000000000E+00 0. -1.
         23    2    1    2    0    0  0.22829008324E+03 -0.60399495886E+03 -0.79081077054E+03  0.10252216254E+04  0.93655933732E+02 0.  0.
         13    1    3    3    0    0  0.12623251539E+03 -0.21206325730E+03 -0.32204159297E+03  0.40572929478E+03  0.00000000000E+00 0. -1.
        -13    1    3    3    0    0  0.10205756785E+03 -0.39193170156E+03 -0.46876917757E+03  0.61949233061E+03  0.00000000000E+00 0.  1.
         22    1    1    2    0    0 -0.22829008324E+03  0.60399495886E+03 -0.19176211366E+04  0.20234122407E+04  0.00000000000E+00 0. -1.
<mgrwt>
<rscale>  0 0.13994874E+04</rscale>
<asrwt>0</asrwt>
<pdfrwt beam="1">  1        2 0.44285117E+00 0.13994874E+04</pdfrwt>
<pdfrwt beam="2">  1       -2 0.26169384E-01 0.13994874E+04</pdfrwt>
<totfact> 0.26811652E+01</totfact>
</mgrwt>
</event>
<event>
 6    1  0.9364335E-007  0.1521043E+04  0.7818608E-02  0.8870579E-01
         -1   -1    0    0    0  501 -0.00000000000E+00  0.00000000000E+00  0.34766294188E+03  0.34766294188E+03  0.00000000000E+00 0.  1.
          1   -1    0    0  501    0  0.00000000000E+00 -0.00000000000E+00 -0.16636590562E+04  0.16636590562E+04  0.00000000000E+00 0. -1.
         23    2    1    2    0    0  0.10129037773E+03  0.47148844820E+03 -0.14334090673E+04  0.15149885426E+04  0.89261596537E+02 0.  0.
         13    1    3    3    0    0  0.42798127869E+02  0.23053931350E+03 -0.56103466011E+03  0.60806245129E+03  0.00000000000E+00 0. -1.
        -13    1    3    3    0    0  0.58492249860E+02  0.24094913470E+03 -0.87237440721E+03  0.90692609134E+03  0.00000000000E+00 0.  1.
         22    1    1    2    0    0 -0.10129037773E+03 -0.47148844820E+03  0.11741295304E+03  0.49633345540E+03  0.00000000000E+00 0.  1.
<mgrwt>
<rscale>  0 0.15210425E+04</rscale>
<asrwt>0</asrwt>
<pdfrwt beam="1">  1        1 0.25594756E+00 0.15210425E+04</pdfrwt>
<pdfrwt beam="2">  1       -1 0.53486604E-01 0.15210425E+04</pdfrwt>
<totfact> 0.17187554E+01</totfact>
</mgrwt>
</event>
<event>
 6    1  0.9364335E-007  0.2083222E+04  0.7818608E-02  0.8568671E-01
         -2   -1    0    0    0  501 -0.00000000000E+00  0.00000000000E+00  0.61976728939E+03  0.61976728939E+03  0.00000000000E+00 0.  1.
          2   -1    0    0  501    0  0.00000000000E+00 -0.00000000000E+00 -0.17505813480E+04  0.17505813480E+04  0.00000000000E+00 0. -1.
         23    2    1    2    0    0  0.38649443167E+03 -0.61994636970E+03  0.27493711362E+03  0.78609871858E+03  0.93001784320E+02 0.  0.
         13    1    3    3    0    0  0.14072746468E+03 -0.31294884306E+03  0.13323815249E+03  0.36809455710E+03  0.00000000000E+00 0. -1.
        -13    1    3    3    0    0  0.24576696699E+03 -0.30699752664E+03  0.14169896113E+03  0.41800416148E+03  0.00000000000E+00 0.  1.
         22    1    1    2    0    0 -0.38649443167E+03  0.61994636970E+03 -0.14057511723E+04  0.15842499189E+04  0.00000000000E+00 0. -1.
<mgrwt>
<rscale>  0 0.20832216E+04</rscale>
<asrwt>0</asrwt>
<pdfrwt beam="1">  1        2 0.26932020E+00 0.20832216E+04</pdfrwt>
<pdfrwt beam="2">  1       -2 0.95348815E-01 0.20832216E+04</pdfrwt>
<totfact> 0.78380521E+00</totfact>
</mgrwt>
</event>
<event>
 6    1  0.9364335E-007  0.3975668E+04  0.7818608E-02  0.8009473E-01
          2   -1    0    0  501    0  0.00000000000E+00  0.00000000000E+00  0.35862932253E+04  0.35862932253E+04  0.00000000000E+00 0. -1.
         -2   -1    0    0    0  501 -0.00000000000E+00 -0.00000000000E+00 -0.11018293251E+04  0.11018293251E+04  0.00000000000E+00 0.  1.
         23    2    1    2    0    0 -0.15670012124E+04  0.54239075029E+03  0.25333873652E+04  0.30291849292E+04  0.90715309075E+02 0.  0.
         11    1    3    3    0    0 -0.14597154420E+04  0.50386248375E+03  0.23979592292E+04  0.28521667271E+04  0.00000000000E+00 0. -1.
        -11    1    3    3    0    0 -0.10728577038E+03  0.38528266542E+02  0.13542813602E+03  0.17701820210E+03  0.00000000000E+00 0.  1.
         22    1    1    2    0    0  0.15670012124E+04 -0.54239075029E+03 -0.48923465057E+02  0.16589376212E+04  0.00000000000E+00 0.  1.
<mgrwt>
<rscale>  0 0.39756675E+04</rscale>
<asrwt>0</asrwt>
<pdfrwt beam="1">  1        2 0.55173741E+00 0.39756675E+04</pdfrwt>
<pdfrwt beam="2">  1       -2 0.16951221E+00 0.39756675E+04</pdfrwt>
<totfact> 0.11968013E-01</totfact>
</mgrwt>
</event>
<event>
 6    1  0.9364335E-007  0.1437870E+04  0.7818608E-02  0.8926854E-01
         -2   -1    0    0    0  501 -0.00000000000E+00  0.00000000000E+00  0.29709682712E+03  0.29709682712E+03  0.00000000000E+00 0.  1.
          2   -1    0    0  501    0  0.00000000000E+00 -0.00000000000E+00 -0.17397263602E+04  0.17397263602E+04  0.00000000000E+00 0. -1.
         23    2    1    2    0    0 -0.67913038509E+02  0.61521271218E+03 -0.12343613107E+04  0.13837730250E+04  0.89894812351E+02 0.  0.
         11    1    3    3    0    0 -0.50350590471E+02  0.41518042576E+03 -0.92223655023E+03  0.10126352860E+04  0.00000000000E+00 0. -1.
        -11    1    3    3    0    0 -0.17562448038E+02  0.20003228642E+03 -0.31212476051E+03  0.37113773901E+03  0.00000000000E+00 0.  1.
         22    1    1    2    0    0  0.67913038509E+02 -0.61521271218E+03 -0.20826822232E+03  0.65305016228E+03  0.00000000000E+00 0.  1.
<mgrwt>
<rscale>  0 0.14378695E+04</rscale>
<asrwt>0</asrwt>
<pdfrwt beam="1">  1        2 0.26765021E+00 0.14378695E+04</pdfrwt>
<pdfrwt beam="2">  1       -2 0.45707205E-01 0.14378695E+04</pdfrwt>
<totfact> 0.41059541E+01</totfact>
</mgrwt>
</event>
<event>
 6    1  0.9364335E-007  0.2245417E+04  0.7818608E-02  0.8499759E-01
         -2   -1    0    0    0  501 -0.00000000000E+00  0.00000000000E+00  0.70625029574E+03  0.70625029574E+03  0.00000000000E+00 0.  1.
          2   -1    0    0  501    0  0.00000000000E+00 -0.00000000000E+00 -0.17847410311E+04  0.17847410311E+04  0.00000000000E+00 0. -1.
         23    2    1    2    0    0  0.71176819740E+03 -0.80501828357E+03 -0.18629783834E+03  0.10943250928E+04  0.90399781855E+02 0.  0.
         11    1    3    3    0    0  0.45259214464E+03 -0.55282848832E+03 -0.90086486027E+02  0.72012121330E+03  0.00000000000E+00 0. -1.
        -11    1    3    3    0    0  0.25917605276E+03 -0.25218979525E+03 -0.96211352312E+02  0.37420387954E+03  0.00000000000E+00 0.  1.
         22    1    1    2    0    0 -0.71176819740E+03  0.80501828357E+03 -0.89219289703E+03  0.13966662340E+04  0.00000000000E+00 0. -1.
<mgrwt>
<rscale>  0 0.22454166E+04</rscale>
<asrwt>0</asrwt>
<pdfrwt beam="1">  1        2 0.27457554E+00 0.22454166E+04</pdfrwt>
<pdfrwt beam="2">  1       -2 0.10865389E+00 0.22454166E+04</pdfrwt>
<totfact> 0.54239963E+00</totfact>
</mgrwt>
</event>
<event>
 6    1  0.9364335E-007  0.4156870E+04  0.7818608E-02  0.7973627E-01
         -2   -1    0    0    0  501 -0.00000000000E+00  0.00000000000E+00  0.27754860067E+04  0.27754860067E+04  0.00000000000E+00 0.  1.
          2   -1    0    0  501    0  0.00000000000E+00 -0.00000000000E+00 -0.15564453569E+04  0.15564453569E+04  0.00000000000E+00 0. -1.
         23    2    1    2    0    0  0.19343676576E+03 -0.20516173221E+04  0.88431988493E+03  0.22442078644E+04  0.88858657779E+02 0.  0.
         11    1    3    3    0    0  0.13163694771E+03 -0.14737863780E+04  0.59181754480E+03  0.15936193336E+04  0.00000000000E+00 0. -1.
        -11    1    3    3    0    0  0.61799818054E+02 -0.57783094408E+03  0.29250234013E+03  0.65058853082E+03  0.00000000000E+00 0.  1.
         22    1    1    2    0    0 -0.19343676576E+03  0.20516173221E+04  0.33472076493E+03  0.20877234992E+04  0.00000000000E+00 0. -1.
<mgrwt>
<rscale>  0 0.41568701E+04</rscale>
<asrwt>0</asrwt>
<pdfrwt beam="1">  1        2 0.23945313E+00 0.41568701E+04</pdfrwt>
<pdfrwt beam="2">  1       -2 0.42699785E+00 0.41568701E+04</pdfrwt>
<totfact> 0.45291891E-02</totfact>
</mgrwt>
</event>
<event>
 6    1  0.9364335E-007  0.1560343E+04  0.7818608E-02  0.8845288E-01
         -2   -1    0    0    0  501 -0.00000000000E+00  0.00000000000E+00  0.12141282180E+04  0.12141282180E+04  0.00000000000E+00 0.  1.
          2   -1    0    0  501    0  0.00000000000E+00 -0.00000000000E+00 -0.50132095186E+03  0.50132095186E+03  0.00000000000E+00 0. -1.
         23    2    1    2    0    0 -0.42027493595E+03 -0.48348330886E+02  0.10743445351E+04  0.11589621712E+04  0.10004274789E+03 0.  0.
         11    1    3    3    0    0 -0.16827943790E+03 -0.16979124671E+02  0.56582764903E+03  0.59056514315E+03  0.00000000000E+00 0.  1.
        -11    1    3    3    0    0 -0.25199549805E+03 -0.31369206215E+02  0.50851688602E+03  0.56839702806E+03  0.00000000000E+00 0. -1.
         22    1    1    2    0    0  0.42027493595E+03  0.48348330886E+02 -0.36153726890E+03  0.55648699867E+03  0.00000000000E+00 0. -1.
<mgrwt>
<rscale>  0 0.15603434E+04</rscale>
<asrwt>0</asrwt>
<pdfrwt beam="1">  1        2 0.77126301E-01 0.15603434E+04</pdfrwt>
<pdfrwt beam="2">  1       -2 0.18678896E+00 0.15603434E+04</pdfrwt>
<totfact> 0.96101520E+00</totfact>
</mgrwt>
</event>
<event>
 6    1  0.9364335E-007  0.1093140E+04  0.7818608E-02  0.9211904E-01
         -2   -1    0    0    0  501 -0.00000000000E+00  0.00000000000E+00  0.29969220826E+03  0.29969220826E+03  0.00000000000E+00 0.  1.
          2   -1    0    0  501    0  0.00000000000E+00 -0.00000000000E+00 -0.99681912744E+03  0.99681912744E+03  0.00000000000E+00 0. -1.
         23    2    1    2    0    0 -0.28923955466E+03 -0.33769626394E+03 -0.72026087028E+03  0.85127716546E+03  0.90547250204E+02 0.  0.
         13    1    3    3    0    0 -0.19257674617E+03 -0.22487285843E+03 -0.39451288425E+03  0.49324843787E+03  0.00000000000E+00 0.  1.
        -13    1    3    3    0    0 -0.96662808492E+02 -0.11282340551E+03 -0.32574798603E+03  0.35802872759E+03  0.00000000000E+00 0. -1.
         22    1    1    2    0    0  0.28923955466E+03  0.33769626394E+03  0.23133951107E+02  0.44523417024E+03  0.00000000000E+00 0.  1.
<mgrwt>
<rscale>  0 0.10931403E+04</rscale>
<asrwt>0</asrwt>
<pdfrwt beam="1">  1        2 0.15335679E+00 0.10931403E+04</pdfrwt>
<pdfrwt beam="2">  1       -2 0.46106493E-01 0.10931403E+04</pdfrwt>
<totfact> 0.11207425E+02</totfact>
</mgrwt>
</event>
<event>
 6    1  0.9364335E-007  0.1659792E+04  0.7818608E-02  0.8784635E-01
         -1   -1    0    0    0  501 -0.00000000000E+00  0.00000000000E+00  0.12907516410E+04  0.12907516410E+04  0.00000000000E+00 0.  1.
          1   -1    0    0  501    0  0.00000000000E+00 -0.00000000000E+00 -0.53358611966E+03  0.53358611966E+03  0.00000000000E+00 0. -1.
         23    2    1    2    0    0  0.43788405373E+03 -0.35085570848E+03 -0.28860444745E+03  0.63754502379E+03  0.91263122835E+02 0.  0.
         11    1    3    3    0    0  0.23201972194E+03 -0.12799632307E+03 -0.14070963274E+03  0.30002568363E+03  0.00000000000E+00 0.  1.
        -11    1    3    3    0    0  0.20586433179E+03 -0.22285938541E+03 -0.14789481471E+03  0.33751934016E+03  0.00000000000E+00 0. -1.
         22    1    1    2    0    0 -0.43788405373E+03  0.35085570848E+03  0.10457699688E+04  0.11867927369E+04  0.00000000000E+00 0.  1.
<mgrwt>
<rscale>  0 0.16597917E+04</rscale>
<asrwt>0</asrwt>
<pdfrwt beam="1">  1        1 0.82090173E-01 0.16597917E+04</pdfrwt>
<pdfrwt beam="2">  1       -1 0.19857717E+00 0.16597917E+04</pdfrwt>
<totfact> 0.59497586E+00</totfact>
</mgrwt>
</event>
<event>
 6    1  0.9364335E-007  0.4589915E+04  0.7818608E-02  0.7895082E-01
          1   -1    0    0  501    0  0.00000000000E+00  0.00000000000E+00  0.21513402085E+04  0.21513402085E+04  0.00000000000E+00 0. -1.
         -1   -1    0    0    0  501 -0.00000000000E+00 -0.00000000000E+00 -0.24481623128E+04  0.24481623128E+04  0.00000000000E+00 0.  1.
         23    2    1    2    0    0  0.22390755806E+04  0.62686793795E+02  0.34808753970E+03  0.22685590346E+04  0.88351958342E+02 0.  0.
         13    1    3    3    0    0  0.66005710885E+03  0.36499787947E+02  0.66320701757E+02  0.66438396800E+03  0.00000000000E+00 0. -1.
        -13    1    3    3    0    0  0.15790184717E+04  0.26187005847E+02  0.28176683794E+03  0.16041750666E+04  0.00000000000E+00 0.  1.
         22    1    1    2    0    0 -0.22390755806E+04 -0.62686793795E+02 -0.64490964392E+03  0.23309434867E+04  0.00000000000E+00 0. -1.
<mgrwt>
<rscale>  0 0.45899150E+04</rscale>
<asrwt>0</asrwt>
<pdfrwt beam="1">  1        1 0.33097542E+00 0.45899150E+04</pdfrwt>
<pdfrwt beam="2">  1       -1 0.37664035E+00 0.45899150E+04</pdfrwt>
<totfact> 0.18081328E-02</totfact>
</mgrwt>
</event>
<event>
 6    1  0.9364335E-007  0.2709624E+04  0.7818608E-02  0.8331889E-01
         -2   -1    0    0    0  501 -0.00000000000E+00  0.00000000000E+00  0.15261407714E+04  0.15261407714E+04  0.00000000000E+00 0.  1.
          2   -1    0    0  501    0  0.00000000000E+00 -0.00000000000E+00 -0.12027174638E+04  0.12027174638E+04  0.00000000000E+00 0. -1.
         23    2    1    2    0    0  0.87565223728E+03 -0.48631417025E+03  0.10783695013E+04  0.14745807268E+04  0.90770179704E+02 0.  0.
         13    1    3    3    0    0  0.33283953790E+03 -0.20133835361E+03  0.48082388253E+03  0.61847465319E+03  0.00000000000E+00 0.  1.
        -13    1    3    3    0    0  0.54281269939E+03 -0.28497581663E+03  0.59754561880E+03  0.85610607359E+03  0.00000000000E+00 0. -1.
         22    1    1    2    0    0 -0.87565223728E+03  0.48631417025E+03 -0.75494619375E+03  0.12542775085E+04  0.00000000000E+00 0. -1.
<mgrwt>
<rscale>  0 0.27096244E+04</rscale>
<asrwt>0</asrwt>
<pdfrwt beam="1">  1        2 0.18503345E+00 0.27096244E+04</pdfrwt>
<pdfrwt beam="2">  1       -2 0.23479089E+00 0.27096244E+04</pdfrwt>
<totfact> 0.13200894E+00</totfact>
</mgrwt>
</event>
<event>
 6    1  0.9364335E-007  0.1567677E+04  0.7818608E-02  0.8840655E-01
          1   -1    0    0  501    0  0.00000000000E+00  0.00000000000E+00  0.63351203584E+03  0.63351203584E+03  0.00000000000E+00 0. -1.
         -1   -1    0    0    0  501 -0.00000000000E+00 -0.00000000000E+00 -0.96983576014E+03  0.96983576014E+03  0.00000000000E+00 0.  1.
         23    2    1    2    0    0 -0.48519201830E+03  0.55940154870E+03 -0.42332800720E+03  0.85775331334E+03  0.90513852807E+02 0.  0.
         11    1    3    3    0    0 -0.26381668968E+02  0.71361995601E+01 -0.22892042621E+02  0.35650573867E+02  0.00000000000E+00 0.  1.
        -11    1    3    3    0    0 -0.45881034933E+03  0.55226534914E+03 -0.40043596458E+03  0.82210273947E+03  0.00000000000E+00 0. -1.
         22    1    1    2    0    0  0.48519201830E+03 -0.55940154870E+03  0.87004282907E+02  0.74559448265E+03  0.00000000000E+00 0. -1.
<mgrwt>
<rscale>  0 0.15676768E+04</rscale>
<asrwt>0</asrwt>
<pdfrwt beam="1">  1        1 0.97463390E-01 0.15676768E+04</pdfrwt>
<pdfrwt beam="2">  1       -1 0.14920550E+00 0.15676768E+04</pdfrwt>
<totfact> 0.10773033E+01</totfact>
</mgrwt>
</event>
<event>
 6    1  0.9364335E-007  0.9070035E+03  0.7818608E-02  0.9416869E-01
          2   -1    0    0  501    0  0.00000000000E+00  0.00000000000E+00  0.13407081516E+04  0.13407081516E+04  0.00000000000E+00 0. -1.
         -2   -1    0    0    0  501 -0.00000000000E+00 -0.00000000000E+00 -0.15339941816E+03  0.15339941816E+03  0.00000000000E+00 0.  1.
         23    2    1    2    0    0  0.50291697884E+02  0.29629235982E+03  0.11489339735E+04  0.11911372089E+04  0.91870330105E+02 0.  0.
         11    1    3    3    0    0  0.53345041193E+02  0.16684479232E+03  0.51081616757E+03  0.54001484720E+03  0.00000000000E+00 0. -1.
        -11    1    3    3    0    0 -0.30533433092E+01  0.12944756749E+03  0.63811780591E+03  0.65112236166E+03  0.00000000000E+00 0.  1.
         22    1    1    2    0    0 -0.50291697884E+02 -0.29629235982E+03  0.38374759918E+02  0.30297036086E+03  0.00000000000E+00 0.  1.
<mgrwt>
<rscale>  0 0.90700353E+03</rscale>
<asrwt>0</asrwt>
<pdfrwt beam="1">  1        2 0.20626278E+00 0.90700353E+03</pdfrwt>
<pdfrwt beam="2">  1       -2 0.23599911E-01 0.90700353E+03</pdfrwt>
<totfact> 0.24955784E+02</totfact>
</mgrwt>
</event>
<event>
 6    1  0.9364335E-007  0.1012963E+04  0.7818608E-02  0.9294440E-01
         -1   -1    0    0    0  501 -0.00000000000E+00  0.00000000000E+00  0.15438214535E+03  0.15438214535E+03  0.00000000000E+00 0.  1.
          1   -1    0    0  501    0  0.00000000000E+00 -0.00000000000E+00 -0.16616150423E+04  0.16616150423E+04  0.00000000000E+00 0. -1.
         23    2    1    2    0    0  0.49240626041E+03 -0.90168132429E+02 -0.83632738812E+03  0.97891390675E+03  0.90745354274E+02 0.  0.
         13    1    3    3    0    0  0.11946395879E+03  0.16792393418E+02 -0.18884106420E+03  0.22408607599E+03  0.00000000000E+00 0. -1.
        -13    1    3    3    0    0  0.37294230162E+03 -0.10696052585E+03 -0.64748632392E+03  0.75482783076E+03  0.00000000000E+00 0.  1.
         22    1    1    2    0    0 -0.49240626041E+03  0.90168132429E+02 -0.67090550885E+03  0.83708328092E+03  0.00000000000E+00 0.  1.
<mgrwt>
<rscale>  0 0.10129634E+04</rscale>
<asrwt>0</asrwt>
<pdfrwt beam="1">  1        1 0.25563308E+00 0.10129634E+04</pdfrwt>
<pdfrwt beam="2">  1       -1 0.23751099E-01 0.10129634E+04</pdfrwt>
<totfact> 0.77645941E+01</totfact>
</mgrwt>
</event>
<event>
 6    1  0.9364335E-007  0.2290329E+04  0.7818608E-02  0.8481744E-01
          1   -1    0    0  501    0  0.00000000000E+00  0.00000000000E+00  0.10556212662E+04  0.10556212662E+04  0.00000000000E+00 0. -1.
         -1   -1    0    0    0  501 -0.00000000000E+00 -0.00000000000E+00 -0.12423028081E+04  0.12423028081E+04  0.00000000000E+00 0.  1.
         23    2    1    2    0    0 -0.46115994255E+03 -0.10140485535E+04 -0.35159562338E+03  0.11717981418E+04  0.92349559973E+02 0.  0.
         11    1    3    3    0    0 -0.25416939355E+03 -0.59077644257E+03 -0.24854086282E+03  0.68948636404E+03  0.00000000000E+00 0. -1.
        -11    1    3    3    0    0 -0.20699054900E+03 -0.42327211098E+03 -0.10305476057E+03  0.48231177778E+03  0.00000000000E+00 0.  1.
         22    1    1    2    0    0  0.46115994255E+03  0.10140485535E+04  0.16491408151E+03  0.11261259325E+04  0.00000000000E+00 0. -1.
<mgrwt>
<rscale>  0 0.22903286E+04</rscale>
<asrwt>0</asrwt>
<pdfrwt beam="1">  1        1 0.16240327E+00 0.22903286E+04</pdfrwt>
<pdfrwt beam="2">  1       -1 0.19112351E+00 0.22903286E+04</pdfrwt>
<totfact> 0.21509429E+00</totfact>
</mgrwt>
</event>
<event>
 6    1  0.9364335E-007  0.1804967E+04  0.7818608E-02  0.8703663E-01
         -2   -1    0    0    0  501 -0.00000000000E+00  0.00000000000E+00  0.56071175171E+03  0.56071175171E+03  0.00000000000E+00 0.  1.
          2   -1    0    0  501    0  0.00000000000E+00 -0.00000000000E+00 -0.14525757340E+04  0.14525757340E+04  0.00000000000E+00 0. -1.
         23    2    1    2    0    0  0.24992014342E+03 -0.41877698681E+03 -0.12898331810E+04  0.13838323834E+04  0.11613865808E+03 0.  0.
         11    1    3    3    0    0  0.17769350776E+03 -0.28013602097E+03 -0.71654617871E+03  0.78961357585E+03  0.00000000000E+00 0.  1.
        -11    1    3    3    0    0  0.72226635663E+02 -0.13864096584E+03 -0.57328700226E+03  0.59421880757E+03  0.00000000000E+00 0. -1.
         22    1    1    2    0    0 -0.24992014342E+03  0.41877698681E+03  0.39796919864E+03  0.62945510232E+03  0.00000000000E+00 0.  1.
<mgrwt>
<rscale>  0 0.18049668E+04</rscale>
<asrwt>0</asrwt>
<pdfrwt beam="1">  1        2 0.22347319E+00 0.18049668E+04</pdfrwt>
<pdfrwt beam="2">  1       -2 0.86263347E-01 0.18049668E+04</pdfrwt>
<totfact> 0.14847477E+01</totfact>
</mgrwt>
</event>
<event>
 6    1  0.9364335E-007  0.3135277E+04  0.7818608E-02  0.8206123E-01
          1   -1    0    0  501    0  0.00000000000E+00  0.00000000000E+00  0.20466797218E+04  0.20466797218E+04  0.00000000000E+00 0. -1.
         -1   -1    0    0    0  501 -0.00000000000E+00 -0.00000000000E+00 -0.12007206730E+04  0.12007206730E+04  0.00000000000E+00 0.  1.
         23    2    1    2    0    0  0.24133953083E+02  0.69651994829E+03 -0.10295470139E+04  0.12465891900E+04  0.91077267858E+02 0.  0.
         13    1    3    3    0    0  0.41078274872E+02  0.61533377097E+03 -0.86510708658E+03  0.10624186301E+04  0.00000000000E+00 0. -1.
        -13    1    3    3    0    0 -0.16944321789E+02  0.81186177318E+02 -0.16443992733E+03  0.18417055989E+03  0.00000000000E+00 0.  1.
         22    1    1    2    0    0 -0.24133953083E+02 -0.69651994829E+03  0.18755060627E+04  0.20008112048E+04  0.00000000000E+00 0. -1.
<mgrwt>
<rscale>  0 0.31352771E+04</rscale>
<asrwt>0</asrwt>
<pdfrwt beam="1">  1        1 0.31487380E+00 0.31352771E+04</pdfrwt>
<pdfrwt beam="2">  1       -1 0.18472626E+00 0.31352771E+04</pdfrwt>
<totfact> 0.44870854E-01</totfact>
</mgrwt>
</event>
<event>
 6    1  0.9364335E-007  0.2681287E+04  0.7818608E-02  0.8341102E-01
          2   -1    0    0  501    0  0.00000000000E+00  0.00000000000E+00  0.31808372998E+04  0.31808372998E+04  0.00000000000E+00 0. -1.
         -2   -1    0    0    0  501 -0.00000000000E+00 -0.00000000000E+00 -0.56504757434E+03  0.56504757434E+03  0.00000000000E+00 0.  1.
         23    2    1    2    0    0 -0.85096648911E+03  0.54461299498E+03  0.81524537772E+02  0.10176533368E+04  0.90690593184E+02 0.  0.
         13    1    3    3    0    0 -0.54348644190E+03  0.35220912615E+03  0.86631019624E+01  0.64769115357E+03  0.00000000000E+00 0. -1.
        -13    1    3    3    0    0 -0.30748004721E+03  0.19240386883E+03  0.72861435810E+02  0.36996218320E+03  0.00000000000E+00 0.  1.
         22    1    1    2    0    0  0.85096648911E+03 -0.54461299498E+03  0.25342651876E+04  0.27282315373E+04  0.00000000000E+00 0. -1.
<mgrwt>
<rscale>  0 0.26812866E+04</rscale>
<asrwt>0</asrwt>
<pdfrwt beam="1">  1        2 0.48935957E+00 0.26812866E+04</pdfrwt>
<pdfrwt beam="2">  1       -2 0.86930398E-01 0.26812866E+04</pdfrwt>
<totfact> 0.13420467E+00</totfact>
</mgrwt>
</event>
<event>
 6    1  0.9364335E-007  0.8533057E+03  0.7818608E-02  0.9485911E-01
          2   -1    0    0  501    0  0.00000000000E+00  0.00000000000E+00  0.34926421746E+03  0.34926421746E+03  0.00000000000E+00 0. -1.
         -2   -1    0    0    0  501 -0.00000000000E+00 -0.00000000000E+00 -0.52118899430E+03  0.52118899430E+03  0.00000000000E+00 0.  1.
         23    2    1    2    0    0 -0.17085880315E+03 -0.20034824740E+03  0.24937854347E+03  0.37363469503E+03  0.89894808171E+02 0.  0.
         13    1    3    3    0    0 -0.11180083448E+03 -0.16424259296E+03  0.13591667901E+03  0.24072473817E+03  0.00000000000E+00 0. -1.
        -13    1    3    3    0    0 -0.59057968672E+02 -0.36105654443E+02  0.11346186447E+03  0.13290995687E+03  0.00000000000E+00 0.  1.
         22    1    1    2    0    0  0.17085880315E+03  0.20034824740E+03 -0.42130332032E+03  0.49681851673E+03  0.00000000000E+00 0.  1.
<mgrwt>
<rscale>  0 0.85330573E+03</rscale>
<asrwt>0</asrwt>
<pdfrwt beam="1">  1        2 0.53732957E-01 0.85330573E+03</pdfrwt>
<pdfrwt beam="2">  1       -2 0.80182922E-01 0.85330573E+03</pdfrwt>
<totfact> 0.12812316E+02</totfact>
</mgrwt>
</event>
<event>
 6    1  0.9364335E-007  0.8167532E+03  0.7818608E-02  0.9536079E-01
          2   -1    0    0  501    0  0.00000000000E+00  0.00000000000E+00  0.25237874038E+04  0.25237874038E+04  0.00000000000E+00 0. -1.
         -2   -1    0    0    0  501 -0.00000000000E+00 -0.00000000000E+00 -0.66079833177E+02  0.66079833177E+02  0.00000000000E+00 0.  1.
         23    2    1    2    0    0  0.30702945240E+03  0.80364238958E+02  0.20331220539E+04  0.20597744559E+04  0.91433186389E+02 0.  0.
         11    1    3    3    0    0  0.92490652656E+02  0.68300628209E+02  0.75938668089E+03  0.76804142320E+03  0.00000000000E+00 0.  1.
        -11    1    3    3    0    0  0.21453879975E+03  0.12063610749E+02  0.12737353730E+04  0.12917330327E+04  0.00000000000E+00 0. -1.
         22    1    1    2    0    0 -0.30702945240E+03 -0.80364238958E+02  0.42458551675E+03  0.53009278110E+03  0.00000000000E+00 0.  1.
<mgrwt>
<rscale>  0 0.81675321E+03</rscale>
<asrwt>0</asrwt>
<pdfrwt beam="1">  1        2 0.38827491E+00 0.81675321E+03</pdfrwt>
<pdfrwt beam="2">  1       -2 0.10166130E-01 0.81675321E+03</pdfrwt>
<totfact> 0.23256309E+02</totfact>
</mgrwt>
</event>
<event>
 6    1  0.9364335E-007  0.1725649E+04  0.7818608E-02  0.8746869E-01
          1   -1    0    0  501    0  0.00000000000E+00  0.00000000000E+00  0.62527121634E+03  0.62527121634E+03  0.00000000000E+00 0. -1.
         -1   -1    0    0    0  501 -0.00000000000E+00 -0.00000000000E+00 -0.11906297869E+04  0.11906297869E+04  0.00000000000E+00 0.  1.
         23    2    1    2    0    0 -0.34448398619E+03 -0.73769391639E+03 -0.57622316311E+03  0.10016654289E+04  0.91863849330E+02 0.  0.
         13    1    3    3    0    0 -0.21411461984E+03 -0.36725323430E+03 -0.26915689500E+03  0.50315548557E+03  0.00000000000E+00 0.  1.
        -13    1    3    3    0    0 -0.13036936635E+03 -0.37044068209E+03 -0.30706626811E+03  0.49850994337E+03  0.00000000000E+00 0. -1.
         22    1    1    2    0    0  0.34448398619E+03  0.73769391639E+03  0.10864592592E+02  0.81423557426E+03  0.00000000000E+00 0. -1.
<mgrwt>
<rscale>  0 0.17256495E+04</rscale>
<asrwt>0</asrwt>
<pdfrwt beam="1">  1        1 0.96195572E-01 0.17256495E+04</pdfrwt>
<pdfrwt beam="2">  1       -1 0.18317381E+00 0.17256495E+04</pdfrwt>
<totfact> 0.60472747E+00</totfact>
</mgrwt>
</event>
<event>
 6    1  0.9364335E-007  0.2095111E+04  0.7818608E-02  0.8563400E-01
         -1   -1    0    0    0  501 -0.00000000000E+00  0.00000000000E+00  0.68123139264E+03  0.68123139264E+03  0.00000000000E+00 0.  1.
          1   -1    0    0  501    0  0.00000000000E+00 -0.00000000000E+00 -0.16108666849E+04  0.16108666849E+04  0.00000000000E+00 0. -1.
         23    2    1    2    0    0 -0.38518262790E+03  0.57394328856E+03  0.39255482753E+03  0.80013183522E+03  0.91296800593E+02 0.  0.
         13    1    3    3    0    0 -0.25267504790E+03  0.44397806788E+03  0.27112633409E+03  0.57833441332E+03  0.00000000000E+00 0. -1.
        -13    1    3    3    0    0 -0.13250758000E+03  0.12996522068E+03  0.12142849345E+03  0.22179742191E+03  0.00000000000E+00 0.  1.
         22    1    1    2    0    0  0.38518262790E+03 -0.57394328856E+03 -0.13221901198E+04  0.14919662423E+04  0.00000000000E+00 0. -1.
<mgrwt>
<rscale>  0 0.20951114E+04</rscale>
<asrwt>0</asrwt>
<pdfrwt beam="1">  1        1 0.24782564E+00 0.20951114E+04</pdfrwt>
<pdfrwt beam="2">  1       -1 0.10480483E+00 0.20951114E+04</pdfrwt>
<totfact> 0.43148450E+00</totfact>
</mgrwt>
</event>
<event>
 6    1  0.9364335E-007  0.1354253E+04  0.7818608E-02  0.8987615E-01
         -2   -1    0    0    0  501 -0.00000000000E+00  0.00000000000E+00  0.30753201863E+03  0.30753201863E+03  0.00000000000E+00 0.  1.
          2   -1    0    0  501    0  0.00000000000E+00 -0.00000000000E+00 -0.14909024934E+04  0.14909024934E+04  0.00000000000E+00 0. -1.
         23    2    1    2    0    0 -0.43476022797E+03 -0.26526441141E+03 -0.11807837774E+04  0.12891326813E+04  0.90725285026E+02 0.  0.
         11    1    3    3    0    0 -0.85405644954E+02 -0.54949689085E+02 -0.33721183650E+03  0.35217242254E+03  0.00000000000E+00 0.  1.
        -11    1    3    3    0    0 -0.34935458302E+03 -0.21031472233E+03 -0.84357194089E+03  0.93696025880E+03  0.00000000000E+00 0. -1.
         22    1    1    2    0    0  0.43476022797E+03  0.26526441141E+03 -0.25866974211E+01  0.50930183074E+03  0.00000000000E+00 0.  1.
<mgrwt>
<rscale>  0 0.13542529E+04</rscale>
<asrwt>0</asrwt>
<pdfrwt beam="1">  1        2 0.22936961E+00 0.13542529E+04</pdfrwt>
<pdfrwt beam="2">  1       -2 0.47312618E-01 0.13542529E+04</pdfrwt>
<totfact> 0.53091281E+01</totfact>
</mgrwt>
</event>
<event>
 6    1  0.9364335E-007  0.2684740E+04  0.7818608E-02  0.8339973E-01
          2   -1    0    0  501    0  0.00000000000E+00  0.00000000000E+00  0.29926062400E+04  0.29926062400E+04  0.00000000000E+00 0. -1.
         -2   -1    0    0    0  501 -0.00000000000E+00 -0.00000000000E+00 -0.60213654684E+03  0.60213654684E+03  0.00000000000E+00 0.  1.
         23    2    1    2    0    0  0.56438841875E+03 -0.77881241903E+03  0.24474509419E+04  0.26312439887E+04  0.91355045111E+02 0.  0.
         13    1    3    3    0    0  0.15657643362E+03 -0.15213359337E+03  0.57203908018E+03  0.61228222173E+03  0.00000000000E+00 0. -1.
        -13    1    3    3    0    0  0.40781198513E+03 -0.62667882566E+03  0.18754118617E+04  0.20189617670E+04  0.00000000000E+00 0.  1.
         22    1    1    2    0    0 -0.56438841875E+03  0.77881241903E+03 -0.56981248681E+02  0.96349879811E+03  0.00000000000E+00 0.  1.
<mgrwt>
<rscale>  0 0.26847403E+04</rscale>
<asrwt>0</asrwt>
<pdfrwt beam="1">  1        2 0.46040095E+00 0.26847403E+04</pdfrwt>
<pdfrwt beam="2">  1       -2 0.92636394E-01 0.26847403E+04</pdfrwt>
<totfact> 0.15275038E+00</totfact>
</mgrwt>
</event>
<event>
 6    1  0.9364335E-007  0.2218340E+04  0.7818608E-02  0.8510833E-01
          2   -1    0    0  501    0  0.00000000000E+00  0.00000000000E+00  0.30667894817E+04  0.30667894817E+04  0.00000000000E+00 0. -1.
         -2   -1    0    0    0  501 -0.00000000000E+00 -0.00000000000E+00 -0.40115491131E+03  0.40115491131E+03  0.00000000000E+00 0.  1.
         23    2    1    2    0    0  0.52942161835E+03  0.93065627300E+03  0.89396949298E+03  0.13978706033E+04  0.91937047307E+02 0.  0.
         11    1    3    3    0    0  0.30372116733E+03  0.47945214987E+03  0.42480960785E+03  0.70893167119E+03  0.00000000000E+00 0. -1.
        -11    1    3    3    0    0  0.22570045101E+03  0.45120412313E+03  0.46915988513E+03  0.68893893208E+03  0.00000000000E+00 0.  1.
         22    1    1    2    0    0 -0.52942161835E+03 -0.93065627300E+03  0.17716650774E+04  0.20700737898E+04  0.00000000000E+00 0. -1.
<mgrwt>
<rscale>  0 0.22183396E+04</rscale>
<asrwt>0</asrwt>
<pdfrwt beam="1">  1        2 0.47181375E+00 0.22183396E+04</pdfrwt>
<pdfrwt beam="2">  1       -2 0.61716142E-01 0.22183396E+04</pdfrwt>
<totfact> 0.35225448E+00</totfact>
</mgrwt>
</event>
<event>
 6    1  0.9364335E-007  0.1591274E+04  0.7818608E-02  0.8825927E-01
          2   -1    0    0  501    0  0.00000000000E+00  0.00000000000E+00  0.97439849196E+03  0.97439849196E+03  0.00000000000E+00 0. -1.
         -2   -1    0    0    0  501 -0.00000000000E+00 -0.00000000000E+00 -0.64967080976E+03  0.64967080976E+03  0.00000000000E+00 0.  1.
         23    2    1    2    0    0 -0.49086551158E+03 -0.61887632151E+03  0.23422494287E+03  0.82899220004E+03  0.91705463736E+02 0.  0.
         13    1    3    3    0    0 -0.42330927104E+03 -0.51929358312E+03  0.16431424004E+03  0.68982297287E+03  0.00000000000E+00 0. -1.
        -13    1    3    3    0    0 -0.67556240540E+02 -0.99582738389E+02  0.69910702827E+02  0.13916922717E+03  0.00000000000E+00 0.  1.
         22    1    1    2    0    0  0.49086551158E+03  0.61887632151E+03  0.90502739336E+02  0.79507710168E+03  0.00000000000E+00 0. -1.
<mgrwt>
<rscale>  0 0.15912740E+04</rscale>
<asrwt>0</asrwt>
<pdfrwt beam="1">  1        2 0.14990746E+00 0.15912740E+04</pdfrwt>
<pdfrwt beam="2">  1       -2 0.99949355E-01 0.15912740E+04</pdfrwt>
<totfact> 0.20770636E+01</totfact>
</mgrwt>
</event>
<event>
 6    1  0.9364335E-007  0.9222495E+03  0.7818608E-02  0.9398188E-01
         -1   -1    0    0    0  501 -0.00000000000E+00  0.00000000000E+00  0.26757512167E+03  0.26757512167E+03  0.00000000000E+00 0.  1.
          1   -1    0    0  501    0  0.00000000000E+00 -0.00000000000E+00 -0.79467794911E+03  0.79467794911E+03  0.00000000000E+00 0. -1.
         23    2    1    2    0    0 -0.41616444123E+03 -0.11443332125E+03 -0.43873520662E+03  0.62168904187E+03  0.87868402154E+02 0.  0.
         11    1    3    3    0    0 -0.15047613393E+03 -0.20275986984E+01 -0.17510199357E+03  0.23088500642E+03  0.00000000000E+00 0. -1.
        -11    1    3    3    0    0 -0.26568830730E+03 -0.11240572255E+03 -0.26363321305E+03  0.39080403544E+03  0.00000000000E+00 0.  1.
         22    1    1    2    0    0  0.41616444123E+03  0.11443332125E+03 -0.88367620831E+02  0.44056402891E+03  0.00000000000E+00 0. -1.
<mgrwt>
<rscale>  0 0.92224953E+03</rscale>
<asrwt>0</asrwt>
<pdfrwt beam="1">  1        1 0.12225814E+00 0.92224953E+03</pdfrwt>
<pdfrwt beam="2">  1       -1 0.41165404E-01 0.92224953E+03</pdfrwt>
<totfact> 0.12986906E+02</totfact>
</mgrwt>
</event>
<event>
 6    1  0.9364335E-007  0.2434798E+04  0.7818608E-02  0.8426589E-01
         -2   -1    0    0    0  501 -0.00000000000E+00  0.00000000000E+00  0.65059558030E+03  0.65059558030E+03  0.00000000000E+00 0.  1.
          2   -1    0    0  501    0  0.00000000000E+00 -0.00000000000E+00 -0.22780061576E+04  0.22780061576E+04  0.00000000000E+00 0. -1.
         23    2    1    2    0    0  0.63397831990E+03 -0.44283555595E+03  0.31352500422E+03  0.83928061100E+03  0.89789620848E+02 0.  0.
         11    1    3    3    0    0  0.31909389134E+03 -0.22880429942E+03  0.11103512203E+03  0.40804548429E+03  0.00000000000E+00 0.  1.
        -11    1    3    3    0    0  0.31488442855E+03 -0.21403125652E+03  0.20248988218E+03  0.43123512670E+03  0.00000000000E+00 0. -1.
         22    1    1    2    0    0 -0.63397831990E+03  0.44283555595E+03 -0.19409355815E+04  0.20893211269E+04  0.00000000000E+00 0. -1.
<mgrwt>
<rscale>  0 0.24347983E+04</rscale>
<asrwt>0</asrwt>
<pdfrwt beam="1">  1        2 0.35046249E+00 0.24347983E+04</pdfrwt>
<pdfrwt beam="2">  1       -2 0.10009163E+00 0.24347983E+04</pdfrwt>
<totfact> 0.34477176E+00</totfact>
</mgrwt>
</event>
<event>
 6    1  0.9364335E-007  0.3030521E+04  0.7818608E-02  0.8235069E-01
         -1   -1    0    0    0  501 -0.00000000000E+00  0.00000000000E+00  0.87221275666E+03  0.87221275666E+03  0.00000000000E+00 0.  1.
          1   -1    0    0  501    0  0.00000000000E+00 -0.00000000000E+00 -0.26324008916E+04  0.26324008916E+04  0.00000000000E+00 0. -1.
         23    2    1    2    0    0  0.11212771463E+04  0.43877529914E+03  0.18026194109E+03  0.12209471447E+04  0.91822441557E+02 0.  0.
         13    1    3    3    0    0  0.64245497991E+03  0.25361574582E+03  0.57458641744E+02  0.69308790442E+03  0.00000000000E+00 0. -1.
        -13    1    3    3    0    0  0.47882216639E+03  0.18515955332E+03  0.12280329934E+03  0.52785924028E+03  0.00000000000E+00 0.  1.
         22    1    1    2    0    0 -0.11212771463E+04 -0.43877529914E+03 -0.19404500760E+04  0.22836665035E+04  0.00000000000E+00 0. -1.
<mgrwt>
<rscale>  0 0.30305205E+04</rscale>
<asrwt>0</asrwt>
<pdfrwt beam="1">  1        1 0.40498475E+00 0.30305205E+04</pdfrwt>
<pdfrwt beam="2">  1       -1 0.13418658E+00 0.30305205E+04</pdfrwt>
<totfact> 0.43465166E-01</totfact>
</mgrwt>
</event>
<event>
 6    1  0.9364335E-007  0.2981556E+04  0.7818608E-02  0.8249017E-01
          3   -1    0    0  501    0  0.00000000000E+00  0.00000000000E+00  0.12236507472E+04  0.12236507472E+04  0.00000000000E+00 0. -1.
         -3   -1    0    0    0  501 -0.00000000000E+00 -0.00000000000E+00 -0.18162197695E+04  0.18162197695E+04  0.00000000000E+00 0.  1.
         23    2    1    2    0    0 -0.12560054207E+04 -0.42188889413E+03 -0.98995532067E+03  0.16565933478E+04  0.93542114711E+02 0.  0.
         11    1    3    3    0    0 -0.59833724707E+03 -0.17379747817E+03 -0.51383176159E+03  0.80761135694E+03  0.00000000000E+00 0.  1.
        -11    1    3    3    0    0 -0.65766817363E+03 -0.24809141596E+03 -0.47612355909E+03  0.84898199086E+03  0.00000000000E+00 0. -1.
         22    1    1    2    0    0  0.12560054207E+04  0.42188889413E+03  0.39738629838E+03  0.13832771689E+04  0.00000000000E+00 0. -1.
<mgrwt>
<rscale>  0 0.29815558E+04</rscale>
<asrwt>0</asrwt>
<pdfrwt beam="1">  1        3 0.18825396E+00 0.29815558E+04</pdfrwt>
<pdfrwt beam="2">  1       -3 0.27941843E+00 0.29815558E+04</pdfrwt>
<totfact> 0.19329491E-02</totfact>
</mgrwt>
</event>
<event>
 6    1  0.9364335E-007  0.2234565E+04  0.7818608E-02  0.8504178E-01
          2   -1    0    0  501    0  0.00000000000E+00  0.00000000000E+00  0.31845549758E+04  0.31845549758E+04  0.00000000000E+00 0. -1.
         -2   -1    0    0    0  501 -0.00000000000E+00 -0.00000000000E+00 -0.39199206795E+03  0.39199206795E+03  0.00000000000E+00 0.  1.
         23    2    1    2    0    0 -0.31294430300E+02 -0.27271074796E+03  0.31290014026E+04  0.31423335545E+04  0.90883975660E+02 0.  0.
         13    1    3    3    0    0 -0.40274579367E+02 -0.58983666869E+02  0.58230032562E+03  0.58666411507E+03  0.00000000000E+00 0.  1.
        -13    1    3    3    0    0  0.89801490678E+01 -0.21372708109E+03  0.25467010770E+04  0.25556694394E+04  0.00000000000E+00 0. -1.
         22    1    1    2    0    0  0.31294430300E+02  0.27271074796E+03 -0.33643849479E+03  0.43421348919E+03  0.00000000000E+00 0.  1.
<mgrwt>
<rscale>  0 0.22345651E+04</rscale>
<asrwt>0</asrwt>
<pdfrwt beam="1">  1        2 0.48993152E+00 0.22345651E+04</pdfrwt>
<pdfrwt beam="2">  1       -2 0.60306474E-01 0.22345651E+04</pdfrwt>
<totfact> 0.31046821E+00</totfact>
</mgrwt>
</event>
<event>
 6    1  0.9364335E-007  0.2919948E+04  0.7818608E-02  0.8266967E-01
         -2   -1    0    0    0  501 -0.00000000000E+00  0.00000000000E+00  0.65661609710E+03  0.65661609710E+03  0.00000000000E+00 0.  1.
          2   -1    0    0  501    0  0.00000000000E+00 -0.00000000000E+00 -0.32462258002E+04  0.32462258002E+04  0.00000000000E+00 0. -1.
         23    2    1    2    0    0 -0.94749673219E+03  0.74488161903E+03 -0.19850071156E+03  0.12251561627E+04  0.94902089832E+02 0.  0.
         11    1    3    3    0    0 -0.31680791528E+03  0.22600714761E+03 -0.10529658385E+03  0.40315487908E+03  0.00000000000E+00 0.  1.
        -11    1    3    3    0    0 -0.63068881691E+03  0.51887447141E+03 -0.93204127705E+02  0.82200128362E+03  0.00000000000E+00 0. -1.
         22    1    1    2    0    0  0.94749673219E+03 -0.74488161903E+03 -0.23911089916E+04  0.26776857346E+04  0.00000000000E+00 0. -1.
<mgrwt>
<rscale>  0 0.29199480E+04</rscale>
<asrwt>0</asrwt>
<pdfrwt beam="1">  1        2 0.49941935E+00 0.29199480E+04</pdfrwt>
<pdfrwt beam="2">  1       -2 0.10101786E+00 0.29199480E+04</pdfrwt>
<totfact> 0.83967435E-01</totfact>
</mgrwt>
</event>
<event>
 6    1  0.9364335E-007  0.3508345E+04  0.7818608E-02  0.8111815E-01
         -2   -1    0    0    0  501 -0.00000000000E+00  0.00000000000E+00  0.26125193364E+04  0.26125193364E+04  0.00000000000E+00 0.  1.
          2   -1    0    0  501    0  0.00000000000E+00 -0.00000000000E+00 -0.11778366108E+04  0.11778366108E+04  0.00000000000E+00 0. -1.
         23    2    1    2    0    0 -0.15647893678E+04  0.58470289215E+03  0.14381702380E+03  0.16792478264E+04  0.93523731703E+02 0.  0.
         13    1    3    3    0    0 -0.51504327551E+03  0.16318729258E+03  0.12320031864E+02  0.54041784879E+03  0.00000000000E+00 0. -1.
        -13    1    3    3    0    0 -0.10497460923E+04  0.42151559958E+03  0.13149699194E+03  0.11388299776E+04  0.00000000000E+00 0.  1.
         22    1    1    2    0    0  0.15647893678E+04 -0.58470289215E+03  0.12908657019E+04  0.21111081208E+04  0.00000000000E+00 0.  1.
<mgrwt>
<rscale>  0 0.35083449E+04</rscale>
<asrwt>0</asrwt>
<pdfrwt beam="1">  1        2 0.18120563E+00 0.35083449E+04</pdfrwt>
<pdfrwt beam="2">  1       -2 0.40192605E+00 0.35083449E+04</pdfrwt>
<totfact> 0.11552800E-01</totfact>
</mgrwt>
</event>
<event>
 6    1  0.9364335E-007  0.1753639E+04  0.7818608E-02  0.8731350E-01
         -2   -1    0    0    0  501 -0.00000000000E+00  0.00000000000E+00  0.22114698918E+03  0.22114698918E+03  0.00000000000E+00 0.  1.
          2   -1    0    0  501    0  0.00000000000E+00 -0.00000000000E+00 -0.34764788336E+04  0.34764788336E+04  0.00000000000E+00 0. -1.
         23    2    1    2    0    0  0.80498973758E+03  0.17127097177E+03 -0.10106491913E+04  0.13068221009E+04  0.95026270701E+02 0.  0.
         13    1    3    3    0    0  0.43632086176E+03  0.11595385784E+03 -0.61859023237E+03  0.76581660150E+03  0.00000000000E+00 0. -1.
        -13    1    3    3    0    0  0.36866887582E+03  0.55317113931E+02 -0.39205895895E+03  0.54100549940E+03  0.00000000000E+00 0.  1.
         22    1    1    2    0    0 -0.80498973758E+03 -0.17127097177E+03 -0.22446826531E+04  0.23908037219E+04  0.00000000000E+00 0. -1.
<mgrwt>
<rscale>  0 0.17536394E+04</rscale>
<asrwt>0</asrwt>
<pdfrwt beam="1">  1        2 0.53484290E+00 0.17536394E+04</pdfrwt>
<pdfrwt beam="2">  1       -2 0.34022613E-01 0.17536394E+04</pdfrwt>
<totfact> 0.65267042E+00</totfact>
</mgrwt>
</event>
<event>
 6    1  0.9364335E-007  0.1056897E+04  0.7818608E-02  0.9248253E-01
          1   -1    0    0  501    0  0.00000000000E+00  0.00000000000E+00  0.17846121035E+04  0.17846121035E+04  0.00000000000E+00 0. -1.
         -1   -1    0    0    0  501 -0.00000000000E+00 -0.00000000000E+00 -0.15648083634E+03  0.15648083634E+03  0.00000000000E+00 0.  1.
         23    2    1    2    0    0  0.26412653766E+03 -0.45217076312E+03  0.77206223607E+03  0.93756146904E+03  0.93381930459E+02 0.  0.
         13    1    3    3    0    0  0.21591187951E+02 -0.94730875865E+02  0.10697832217E+03  0.14451463474E+03  0.00000000000E+00 0. -1.
        -13    1    3    3    0    0  0.24253534971E+03 -0.35743988725E+03  0.66508391390E+03  0.79304683429E+03  0.00000000000E+00 0.  1.
         22    1    1    2    0    0 -0.26412653766E+03  0.45217076312E+03  0.85606903113E+03  0.10035314708E+04  0.00000000000E+00 0.  1.
<mgrwt>
<rscale>  0 0.10568966E+04</rscale>
<asrwt>0</asrwt>
<pdfrwt beam="1">  1        1 0.27455569E+00 0.10568966E+04</pdfrwt>
<pdfrwt beam="2">  1       -1 0.24073976E-01 0.10568966E+04</pdfrwt>
<totfact> 0.62413193E+01</totfact>
</mgrwt>
</event>
<event>
 6    1  0.9364335E-007  0.1279974E+04  0.7818608E-02  0.9045598E-01
          2   -1    0    0  501    0  0.00000000000E+00  0.00000000000E+00  0.29439504227E+04  0.29439504227E+04  0.00000000000E+00 0. -1.
         -2   -1    0    0    0  501 -0.00000000000E+00 -0.00000000000E+00 -0.13912717228E+03  0.13912717228E+03  0.00000000000E+00 0.  1.
         23    2    1    2    0    0  0.16510565239E+03  0.47425677380E+03  0.46754733449E+03  0.69246301477E+03  0.93408526850E+02 0.  0.
         11    1    3    3    0    0  0.97672517530E+02  0.26399200497E+03  0.19864576769E+03  0.34451682164E+03  0.00000000000E+00 0.  1.
        -11    1    3    3    0    0  0.67433134857E+02  0.21026476883E+03  0.26890156680E+03  0.34794619313E+03  0.00000000000E+00 0. -1.
         22    1    1    2    0    0 -0.16510565239E+03 -0.47425677380E+03  0.23372759159E+04  0.23906145802E+04  0.00000000000E+00 0. -1.
<mgrwt>
<rscale>  0 0.12799742E+04</rscale>
<asrwt>0</asrwt>
<pdfrwt beam="1">  1        2 0.45291540E+00 0.12799742E+04</pdfrwt>
<pdfrwt beam="2">  1       -2 0.21404182E-01 0.12799742E+04</pdfrwt>
<totfact> 0.35508233E+01</totfact>
</mgrwt>
</event>
<event>
 6    1  0.9364335E-007  0.1118543E+04  0.7818608E-02  0.9187304E-01
         -2   -1    0    0    0  501 -0.00000000000E+00  0.00000000000E+00  0.41733758336E+03  0.41733758336E+03  0.00000000000E+00 0.  1.
          2   -1    0    0  501    0  0.00000000000E+00 -0.00000000000E+00 -0.74947688305E+03  0.74947688305E+03  0.00000000000E+00 0. -1.
         23    2    1    2    0    0 -0.22824403047E+03  0.21852915084E+03 -0.64397731014E+03  0.72286258617E+03  0.89292862576E+02 0.  0.
         13    1    3    3    0    0 -0.18805239591E+03  0.14452852062E+03 -0.40320950215E+03  0.46779279548E+03  0.00000000000E+00 0. -1.
        -13    1    3    3    0    0 -0.40191634563E+02  0.74000630214E+02 -0.24076780799E+03  0.25506979069E+03  0.00000000000E+00 0.  1.
         22    1    1    2    0    0  0.22824403047E+03 -0.21852915084E+03  0.31183801044E+03  0.44395188024E+03  0.00000000000E+00 0.  1.
<mgrwt>
<rscale>  0 0.11185435E+04</rscale>
<asrwt>0</asrwt>
<pdfrwt beam="1">  1        2 0.11530413E+00 0.11185435E+04</pdfrwt>
<pdfrwt beam="2">  1       -2 0.64205783E-01 0.11185435E+04</pdfrwt>
<totfact> 0.83483715E+01</totfact>
</mgrwt>
</event>
<event>
 6    1  0.9364335E-007  0.1229977E+04  0.7818608E-02  0.9087015E-01
         -2   -1    0    0    0  501 -0.00000000000E+00  0.00000000000E+00  0.26966003935E+03  0.26966003935E+03  0.00000000000E+00 0.  1.
          2   -1    0    0  501    0  0.00000000000E+00 -0.00000000000E+00 -0.14025467599E+04  0.14025467599E+04  0.00000000000E+00 0. -1.
         23    2    1    2    0    0  0.30105185044E+03  0.26387097218E+03  0.59034758652E+02  0.41485365903E+03  0.91424007071E+02 0.  0.
         13    1    3    3    0    0  0.23181341342E+03  0.22060899310E+03  0.11147830594E+02  0.32020315520E+03  0.00000000000E+00 0. -1.
        -13    1    3    3    0    0  0.69238437028E+02  0.43261979077E+02  0.47886928058E+02  0.94650503826E+02  0.00000000000E+00 0.  1.
         22    1    1    2    0    0 -0.30105185044E+03 -0.26387097218E+03 -0.11919214792E+04  0.12573531402E+04  0.00000000000E+00 0. -1.
<mgrwt>
<rscale>  0 0.12299769E+04</rscale>
<asrwt>0</asrwt>
<pdfrwt beam="1">  1        2 0.21577642E+00 0.12299769E+04</pdfrwt>
<pdfrwt beam="2">  1       -2 0.41486160E-01 0.12299769E+04</pdfrwt>
<totfact> 0.78142889E+01</totfact>
</mgrwt>
</event>
<event>
 6    1  0.9364335E-007  0.2017928E+04  0.7818608E-02  0.8598284E-01
         -2   -1    0    0    0  501 -0.00000000000E+00  0.00000000000E+00  0.87390301061E+03  0.87390301061E+03  0.00000000000E+00 0.  1.
          2   -1    0    0  501    0  0.00000000000E+00 -0.00000000000E+00 -0.11648990653E+04  0.11648990653E+04  0.00000000000E+00 0. -1.
         23    2    1    2    0    0  0.79139403278E+03  0.82429462698E+02  0.47947047675E+03  0.93122914038E+03  0.64781497091E+02 0.  0.
         11    1    3    3    0    0  0.27108417872E+03  0.41008970080E+01  0.14093986995E+03  0.30556095341E+03  0.00000000000E+00 0.  1.
        -11    1    3    3    0    0  0.52030985406E+03  0.78328565690E+02  0.33853060681E+03  0.62566818697E+03  0.00000000000E+00 0. -1.
         22    1    1    2    0    0 -0.79139403278E+03 -0.82429462698E+02 -0.77046653142E+03  0.11075729355E+04  0.00000000000E+00 0. -1.
<mgrwt>
<rscale>  0 0.20179284E+04</rscale>
<asrwt>0</asrwt>
<pdfrwt beam="1">  1        2 0.17921524E+00 0.20179284E+04</pdfrwt>
<pdfrwt beam="2">  1       -2 0.13444662E+00 0.20179284E+04</pdfrwt>
<totfact> 0.73552863E+00</totfact>
</mgrwt>
</event>
<event>
 6    1  0.9364335E-007  0.2182160E+04  0.7818608E-02  0.8525890E-01
         -2   -1    0    0    0  501 -0.00000000000E+00  0.00000000000E+00  0.79707395382E+03  0.79707395382E+03  0.00000000000E+00 0.  1.
          2   -1    0    0  501    0  0.00000000000E+00 -0.00000000000E+00 -0.14935320157E+04  0.14935320157E+04  0.00000000000E+00 0. -1.
         23    2    1    2    0    0 -0.13092551842E+03  0.98074973218E+03  0.12909971607E+03  0.10019798898E+04  0.91024361563E+02 0.  0.
         13    1    3    3    0    0 -0.12230126378E+03  0.58138916708E+03  0.71755184823E+02  0.59843108982E+03  0.00000000000E+00 0.  1.
        -13    1    3    3    0    0 -0.86242546422E+01  0.39936056510E+03  0.57344531250E+02  0.40354880001E+03  0.00000000000E+00 0. -1.
         22    1    1    2    0    0  0.13092551842E+03 -0.98074973218E+03 -0.82555777798E+03  0.12886260797E+04  0.00000000000E+00 0.  1.
<mgrwt>
<rscale>  0 0.21821599E+04</rscale>
<asrwt>0</asrwt>
<pdfrwt beam="1">  1        2 0.22977416E+00 0.21821599E+04</pdfrwt>
<pdfrwt beam="2">  1       -2 0.12262676E+00 0.21821599E+04</pdfrwt>
<totfact> 0.58960780E+00</totfact>
</mgrwt>
</event>
<event>
 6    1  0.9364335E-007  0.3387020E+04  0.7818608E-02  0.8141099E-01
          2   -1    0    0  501    0  0.00000000000E+00  0.00000000000E+00  0.16235475094E+04  0.16235475094E+04  0.00000000000E+00 0. -1.
         -2   -1    0    0    0  501 -0.00000000000E+00 -0.00000000000E+00 -0.17664877741E+04  0.17664877741E+04  0.00000000000E+00 0.  1.
         23    2    1    2    0    0 -0.15719144410E+03  0.86203111692E+03  0.13770919210E+04  0.16355254824E+04  0.10370461931E+03 0.  0.
         11    1    3    3    0    0 -0.10804332536E+03  0.52916665028E+03  0.93750138317E+03  0.10819424880E+04  0.00000000000E+00 0. -1.
        -11    1    3    3    0    0 -0.49148118738E+02  0.33286446665E+03  0.43959053786E+03  0.55358299442E+03  0.00000000000E+00 0.  1.
         22    1    1    2    0    0  0.15719144410E+03 -0.86203111692E+03 -0.15200321857E+04  0.17545098011E+04  0.00000000000E+00 0.  1.
<mgrwt>
<rscale>  0 0.33870204E+04</rscale>
<asrwt>0</asrwt>
<pdfrwt beam="1">  1        2 0.24977654E+00 0.33870204E+04</pdfrwt>
<pdfrwt beam="2">  1       -2 0.27176735E+00 0.33870204E+04</pdfrwt>
<totfact> 0.42417261E-01</totfact>
</mgrwt>
</event>
<event>
 6    1  0.9364335E-007  0.2552191E+04  0.7818608E-02  0.8384625E-01
         -1   -1    0    0    0  501 -0.00000000000E+00  0.00000000000E+00  0.66309324828E+03  0.66309324828E+03  0.00000000000E+00 0.  1.
          1   -1    0    0  501    0  0.00000000000E+00 -0.00000000000E+00 -0.24557933024E+04  0.24557933024E+04  0.00000000000E+00 0. -1.
         23    2    1    2    0    0 -0.13972420893E+01 -0.12691287554E+04 -0.10392091700E+04  0.16429332105E+04  0.92650337854E+02 0.  0.
         13    1    3    3    0    0  0.41041405554E+02 -0.89133758425E+03 -0.73586350759E+03  0.11565734684E+04  0.00000000000E+00 0.  1.
        -13    1    3    3    0    0 -0.42438647643E+02 -0.37779117111E+03 -0.30334566239E+03  0.48635974204E+03  0.00000000000E+00 0. -1.
         22    1    1    2    0    0  0.13972420893E+01  0.12691287554E+04 -0.75349088409E+03  0.14759533402E+04  0.00000000000E+00 0.  1.
<mgrwt>
<rscale>  0 0.25521912E+04</rscale>
<asrwt>0</asrwt>
<pdfrwt beam="1">  1        1 0.37781435E+00 0.25521912E+04</pdfrwt>
<pdfrwt beam="2">  1       -1 0.10201435E+00 0.25521912E+04</pdfrwt>
<totfact> 0.11700301E+00</totfact>
</mgrwt>
</event>
<event>
 6    1  0.9364335E-007  0.2520252E+04  0.7818608E-02  0.8395806E-01
          1   -1    0    0  501    0  0.00000000000E+00  0.00000000000E+00  0.21919384707E+04  0.21919384707E+04  0.00000000000E+00 0. -1.
         -1   -1    0    0    0  501 -0.00000000000E+00 -0.00000000000E+00 -0.72443525780E+03  0.72443525780E+03  0.00000000000E+00 0.  1.
         23    2    1    2    0    0 -0.24437740481E+03 -0.11666009103E+04  0.12020117889E+04  0.16952415914E+04  0.91289171512E+02 0.  0.
         11    1    3    3    0    0 -0.30341030095E+02 -0.22979489033E+03  0.28016705856E+03  0.36362047582E+03  0.00000000000E+00 0.  1.
        -11    1    3    3    0    0 -0.21403637472E+03 -0.93680601997E+03  0.92184473031E+03  0.13316211156E+04  0.00000000000E+00 0. -1.
         22    1    1    2    0    0  0.24437740481E+03  0.11666009103E+04  0.26549142401E+03  0.12211321371E+04  0.00000000000E+00 0.  1.
<mgrwt>
<rscale>  0 0.25202520E+04</rscale>
<asrwt>0</asrwt>
<pdfrwt beam="1">  1        1 0.33722130E+00 0.25202520E+04</pdfrwt>
<pdfrwt beam="2">  1       -1 0.11145158E+00 0.25202520E+04</pdfrwt>
<totfact> 0.14471468E+00</totfact>
</mgrwt>
</event>
<event>
 6    1  0.9364335E-007  0.1969926E+04  0.7818608E-02  0.8620812E-01
          2   -1    0    0  501    0  0.00000000000E+00  0.00000000000E+00  0.20306930678E+04  0.20306930678E+04  0.00000000000E+00 0. -1.
         -2   -1    0    0    0  501 -0.00000000000E+00 -0.00000000000E+00 -0.47774423345E+03  0.47774423345E+03  0.00000000000E+00 0.  1.
         23    2    1    2    0    0 -0.52905017695E+03  0.80968462994E+03  0.55235636976E+03  0.11167949011E+04  0.81547545768E+02 0.  0.
         13    1    3    3    0    0 -0.32615009086E+03  0.55743916213E+03  0.34299569934E+03  0.73127173541E+03  0.00000000000E+00 0.  1.
        -13    1    3    3    0    0 -0.20290008609E+03  0.25224546781E+03  0.20936067042E+03  0.38552316569E+03  0.00000000000E+00 0. -1.
         22    1    1    2    0    0  0.52905017695E+03 -0.80968462994E+03  0.10005924646E+04  0.13916424001E+04  0.00000000000E+00 0. -1.
<mgrwt>
<rscale>  0 0.19699258E+04</rscale>
<asrwt>0</asrwt>
<pdfrwt beam="1">  1        2 0.31241431E+00 0.19699258E+04</pdfrwt>
<pdfrwt beam="2">  1       -2 0.73499114E-01 0.19699258E+04</pdfrwt>
<totfact> 0.99890688E+00</totfact>
</mgrwt>
</event>
<event>
 6    1  0.9364335E-007  0.3036125E+04  0.7818608E-02  0.8233490E-01
          2   -1    0    0  501    0  0.00000000000E+00  0.00000000000E+00  0.12407892876E+04  0.12407892876E+04  0.00000000000E+00 0. -1.
         -2   -1    0    0    0  501 -0.00000000000E+00 -0.00000000000E+00 -0.18572967478E+04  0.18572967478E+04  0.00000000000E+00 0.  1.
         23    2    1    2    0    0 -0.10587004723E+04  0.21330489280E+03  0.77895655185E+03  0.13335278822E+04  0.71955788746E+02 0.  0.
         13    1    3    3    0    0 -0.64359125448E+03  0.12160966917E+03  0.51422543546E+03  0.83272229041E+03  0.00000000000E+00 0. -1.
        -13    1    3    3    0    0 -0.41510921784E+03  0.91695223625E+02  0.26473111639E+03  0.50080559178E+03  0.00000000000E+00 0.  1.
         22    1    1    2    0    0  0.10587004723E+04 -0.21330489280E+03 -0.13954640120E+04  0.17645581532E+04  0.00000000000E+00 0.  1.
<mgrwt>
<rscale>  0 0.30361251E+04</rscale>
<asrwt>0</asrwt>
<pdfrwt beam="1">  1        2 0.19089066E+00 0.30361251E+04</pdfrwt>
<pdfrwt beam="2">  1       -2 0.28573796E+00 0.30361251E+04</pdfrwt>
<totfact> 0.59386466E-01</totfact>
</mgrwt>
</event>
<event>
 6    1  0.9364335E-007  0.1629671E+04  0.7818608E-02  0.8802525E-01
          2   -1    0    0  501    0  0.00000000000E+00  0.00000000000E+00  0.17792505864E+04  0.17792505864E+04  0.00000000000E+00 0. -1.
         -2   -1    0    0    0  501 -0.00000000000E+00 -0.00000000000E+00 -0.37316647423E+03  0.37316647423E+03  0.00000000000E+00 0.  1.
         23    2    1    2    0    0 -0.57281557270E+03  0.65111540698E+02  0.14610535684E+04  0.15732980451E+04  0.90730456798E+02 0.  0.
         11    1    3    3    0    0 -0.45638358395E+03  0.88376578320E+02  0.11663898715E+04  0.12556120928E+04  0.00000000000E+00 0.  1.
        -11    1    3    3    0    0 -0.11643198875E+03 -0.23265037621E+02  0.29466369691E+03  0.31768595225E+03  0.00000000000E+00 0. -1.
         22    1    1    2    0    0  0.57281557270E+03 -0.65111540698E+02 -0.54969456237E+02  0.57911901556E+03  0.00000000000E+00 0.  1.
<mgrwt>
<rscale>  0 0.16296707E+04</rscale>
<asrwt>0</asrwt>
<pdfrwt beam="1">  1        2 0.27373085E+00 0.16296707E+04</pdfrwt>
<pdfrwt beam="2">  1       -2 0.57410228E-01 0.16296707E+04</pdfrwt>
<totfact> 0.24094388E+01</totfact>
</mgrwt>
</event>
<event>
 6    1  0.9364335E-007  0.2103436E+04  0.7818608E-02  0.8559731E-01
          2   -1    0    0  501    0  0.00000000000E+00  0.00000000000E+00  0.25539035882E+04  0.25539035882E+04  0.00000000000E+00 0. -1.
         -2   -1    0    0    0  501 -0.00000000000E+00 -0.00000000000E+00 -0.43310596201E+03  0.43310596201E+03  0.00000000000E+00 0.  1.
         23    2    1    2    0    0 -0.32733237655E+03 -0.62836902543E+03 -0.37225947382E+02  0.71565315789E+03  0.93699276342E+02 0.  0.
         11    1    3    3    0    0 -0.19049871996E+03 -0.43079752972E+03  0.80029012689E+01  0.47110542381E+03  0.00000000000E+00 0. -1.
        -11    1    3    3    0    0 -0.13683365659E+03 -0.19757149571E+03 -0.45228848651E+02  0.24454773408E+03  0.00000000000E+00 0.  1.
         22    1    1    2    0    0  0.32733237655E+03  0.62836902543E+03  0.21580235735E+04  0.22713563923E+04  0.00000000000E+00 0. -1.
<mgrwt>
<rscale>  0 0.21034361E+04</rscale>
<asrwt>0</asrwt>
<pdfrwt beam="1">  1        2 0.39290823E+00 0.21034361E+04</pdfrwt>
<pdfrwt beam="2">  1       -2 0.66631688E-01 0.21034361E+04</pdfrwt>
<totfact> 0.61767424E+00</totfact>
</mgrwt>
</event>
<event>
 6    1  0.9364335E-007  0.7957775E+03  0.7818608E-02  0.9566149E-01
          2   -1    0    0  501    0  0.00000000000E+00  0.00000000000E+00  0.15697736748E+04  0.15697736748E+04  0.00000000000E+00 0. -1.
         -2   -1    0    0    0  501 -0.00000000000E+00 -0.00000000000E+00 -0.10085241906E+03  0.10085241906E+03  0.00000000000E+00 0.  1.
         23    2    1    2    0    0  0.14440309993E+03  0.26763295878E+03  0.12655874636E+04  0.13048060740E+04  0.91255722783E+02 0.  0.
         11    1    3    3    0    0  0.28893973274E+02  0.14834726647E+03  0.63236298867E+03  0.65017284055E+03  0.00000000000E+00 0. -1.
        -11    1    3    3    0    0  0.11550912665E+03  0.11928569231E+03  0.63322447490E+03  0.65463323345E+03  0.00000000000E+00 0.  1.
         22    1    1    2    0    0 -0.14440309993E+03 -0.26763295878E+03  0.20333379219E+03  0.36582001987E+03  0.00000000000E+00 0.  1.
<mgrwt>
<rscale>  0 0.79577754E+03</rscale>
<asrwt>0</asrwt>
<pdfrwt beam="1">  1        2 0.24150363E+00 0.79577754E+03</pdfrwt>
<pdfrwt beam="2">  1       -2 0.15515758E-01 0.79577754E+03</pdfrwt>
<totfact> 0.38788365E+02</totfact>
</mgrwt>
</event>
<event>
 6    1  0.1428154E-006  0.3455612E+04  0.7818608E-02  0.8124391E-01
          2   -1    0    0  501    0  0.00000000000E+00  0.00000000000E+00  0.23346765720E+04  0.23346765720E+04  0.00000000000E+00 0. -1.
         -2   -1    0    0    0  501 -0.00000000000E+00 -0.00000000000E+00 -0.12786841799E+04  0.12786841799E+04  0.00000000000E+00 0.  1.
         23    2    1    2    0    0 -0.46680405862E+03 -0.43732784364E+03 -0.11488634094E+04  0.13175927372E+04  0.83676852866E+02 0.  0.
         11    1    3    3    0    0 -0.20262010956E+03 -0.24369029107E+03 -0.59420629572E+03  0.67343966963E+03  0.00000000000E+00 0.  1.
        -11    1    3    3    0    0 -0.26418394907E+03 -0.19363755257E+03 -0.55465711371E+03  0.64415306760E+03  0.00000000000E+00 0. -1.
         22    1    1    2    0    0  0.46680405862E+03  0.43732784364E+03  0.22048558015E+04  0.22957680147E+04  0.00000000000E+00 0. -1.
<mgrwt>
<rscale>  0 0.34556122E+04</rscale>
<asrwt>0</asrwt>
<pdfrwt beam="1">  1        2 0.35918101E+00 0.34556122E+04</pdfrwt>
<pdfrwt beam="2">  1       -2 0.19672064E+00 0.34556122E+04</pdfrwt>
<totfact> 0.49944895E-01</totfact>
</mgrwt>
</event>
<event>
 6    1  0.9364335E-007  0.3409559E+04  0.7818608E-02  0.8135564E-01
         -2   -1    0    0    0  501 -0.00000000000E+00  0.00000000000E+00  0.14235773933E+04  0.14235773933E+04  0.00000000000E+00 0.  1.
          2   -1    0    0  501    0  0.00000000000E+00 -0.00000000000E+00 -0.20415285485E+04  0.20415285485E+04  0.00000000000E+00 0. -1.
         23    2    1    2    0    0  0.12993858546E+04 -0.74953624257E+03 -0.11296038812E+04  0.18801779655E+04  0.94106722713E+02 0.  0.
         11    1    3    3    0    0  0.11329410461E+04 -0.63037865746E+03 -0.10062813123E+04  0.16411991790E+04  0.00000000000E+00 0. -1.
        -11    1    3    3    0    0  0.16644480856E+03 -0.11915758511E+03 -0.12332256898E+03  0.23897878652E+03  0.00000000000E+00 0.  1.
         22    1    1    2    0    0 -0.12993858546E+04  0.74953624257E+03  0.51165272600E+03  0.15849279763E+04  0.00000000000E+00 0.  1.
<mgrwt>
<rscale>  0 0.34095594E+04</rscale>
<asrwt>0</asrwt>
<pdfrwt beam="1">  1        2 0.31408132E+00 0.34095594E+04</pdfrwt>
<pdfrwt beam="2">  1       -2 0.21901191E+00 0.34095594E+04</pdfrwt>
<totfact> 0.52583652E-01</totfact>
</mgrwt>
</event>
<event>
 6    1  0.9364335E-007  0.1439399E+04  0.7818608E-02  0.8925783E-01
         -2   -1    0    0    0  501 -0.00000000000E+00  0.00000000000E+00  0.34439674141E+03  0.34439674141E+03  0.00000000000E+00 0.  1.
          2   -1    0    0  501    0  0.00000000000E+00 -0.00000000000E+00 -0.15039837914E+04  0.15039837914E+04  0.00000000000E+00 0. -1.
         23    2    1    2    0    0 -0.19106308803E+03  0.68542098520E+03 -0.69128589595E+03  0.99655132372E+03  0.94505662781E+02 0.  0.
         11    1    3    3    0    0 -0.96184829696E+02  0.25699949192E+03 -0.32175603834E+03  0.42287966199E+03  0.00000000000E+00 0. -1.
        -11    1    3    3    0    0 -0.94878258333E+02  0.42842149328E+03 -0.36952985761E+03  0.57367166173E+03  0.00000000000E+00 0.  1.
         22    1    1    2    0    0  0.19106308803E+03 -0.68542098520E+03 -0.46830115400E+03  0.85182920906E+03  0.00000000000E+00 0.  1.
<mgrwt>
<rscale>  0 0.14393986E+04</rscale>
<asrwt>0</asrwt>
<pdfrwt beam="1">  1        2 0.23138212E+00 0.14393986E+04</pdfrwt>
<pdfrwt beam="2">  1       -2 0.52984115E-01 0.14393986E+04</pdfrwt>
<totfact> 0.41164105E+01</totfact>
</mgrwt>
</event>
<event>
 6    1  0.9364335E-007  0.3227457E+04  0.7818608E-02  0.8181603E-01
          1   -1    0    0  501    0  0.00000000000E+00  0.00000000000E+00  0.17483826183E+04  0.17483826183E+04  0.00000000000E+00 0. -1.
         -1   -1    0    0    0  501 -0.00000000000E+00 -0.00000000000E+00 -0.14894449713E+04  0.14894449713E+04  0.00000000000E+00 0.  1.
         23    2    1    2    0    0  0.11276187610E+04 -0.13574487880E+03  0.12777954847E+04  0.17120418787E+04  0.91516945490E+02 0.  0.
         11    1    3    3    0    0  0.58300693873E+03 -0.27600345557E+02  0.68106784603E+03  0.89694608566E+03  0.00000000000E+00 0. -1.
        -11    1    3    3    0    0  0.54461182231E+03 -0.10814453325E+03  0.59672763864E+03  0.81509579302E+03  0.00000000000E+00 0.  1.
         22    1    1    2    0    0 -0.11276187610E+04  0.13574487880E+03 -0.10188578376E+04  0.15257857109E+04  0.00000000000E+00 0.  1.
<mgrwt>
<rscale>  0 0.32274570E+04</rscale>
<asrwt>0</asrwt>
<pdfrwt beam="1">  1        1 0.26898194E+00 0.32274570E+04</pdfrwt>
<pdfrwt beam="2">  1       -1 0.22914538E+00 0.32274570E+04</pdfrwt>
<totfact> 0.35263215E-01</totfact>
</mgrwt>
</event>
<event>
 6    1  0.9364335E-007  0.1264495E+04  0.7818608E-02  0.9058204E-01
          2   -1    0    0  501    0  0.00000000000E+00  0.00000000000E+00  0.15145659164E+04  0.15145659164E+04  0.00000000000E+00 0. -1.
         -2   -1    0    0    0  501 -0.00000000000E+00 -0.00000000000E+00 -0.26392849424E+03  0.26392849424E+03  0.00000000000E+00 0.  1.
         23    2    1    2    0    0  0.19720808648E+03 -0.58720902161E+03  0.47521260770E+03  0.78602823624E+03  0.91147689048E+02 0.  0.
         13    1    3    3    0    0  0.36861853297E+02 -0.94428969684E+02  0.12330685847E+03  0.15962521069E+03  0.00000000000E+00 0. -1.
        -13    1    3    3    0    0  0.16034623318E+03 -0.49278005193E+03  0.35190574923E+03  0.62640302555E+03  0.00000000000E+00 0.  1.
         22    1    1    2    0    0 -0.19720808648E+03  0.58720902161E+03  0.77542481443E+03  0.99246617438E+03  0.00000000000E+00 0. -1.
<mgrwt>
<rscale>  0 0.12644953E+04</rscale>
<asrwt>0</asrwt>
<pdfrwt beam="1">  1        2 0.23301014E+00 0.12644953E+04</pdfrwt>
<pdfrwt beam="2">  1       -2 0.40604385E-01 0.12644953E+04</pdfrwt>
<totfact> 0.70249019E+01</totfact>
</mgrwt>
</event>
<event>
 6    1  0.9364335E-007  0.4087990E+04  0.7818608E-02  0.7987028E-01
          2   -1    0    0  501    0  0.00000000000E+00  0.00000000000E+00  0.47019396354E+04  0.47019396354E+04  0.00000000000E+00 0. -1.
         -2   -1    0    0    0  501 -0.00000000000E+00 -0.00000000000E+00 -0.88855164279E+03  0.88855164279E+03  0.00000000000E+00 0.  1.
         23    2    1    2    0    0  0.19339011333E+04 -0.60389355071E+03  0.22676273460E+04  0.30421512321E+04  0.88821870885E+02 0.  0.
         11    1    3    3    0    0  0.16415014884E+04 -0.52700221398E+03  0.18852711249E+04  0.25547026606E+04  0.00000000000E+00 0. -1.
        -11    1    3    3    0    0  0.29239964486E+03 -0.76891336727E+02  0.38235622114E+03  0.48744857147E+03  0.00000000000E+00 0.  1.
         22    1    1    2    0    0 -0.19339011333E+04  0.60389355071E+03  0.15457606466E+04  0.25483400461E+04  0.00000000000E+00 0.  1.
<mgrwt>
<rscale>  0 0.40879903E+04</rscale>
<asrwt>0</asrwt>
<pdfrwt beam="1">  1        2 0.72337532E+00 0.40879903E+04</pdfrwt>
<pdfrwt beam="2">  1       -2 0.13670025E+00 0.40879903E+04</pdfrwt>
<totfact> 0.22644838E-02</totfact>
</mgrwt>
</event>
<event>
 6    1  0.9364335E-007  0.3537733E+04  0.7818608E-02  0.8104906E-01
         -2   -1    0    0    0  501 -0.00000000000E+00  0.00000000000E+00  0.31313348931E+04  0.31313348931E+04  0.00000000000E+00 0.  1.
          2   -1    0    0  501    0  0.00000000000E+00 -0.00000000000E+00 -0.99921854129E+03  0.99921854129E+03  0.00000000000E+00 0. -1.
         23    2    1    2    0    0 -0.97737262280E+03  0.27783039718E+02 -0.65267984801E+03  0.11790929458E+04  0.90774720090E+02 0.  0.
         11    1    3    3    0    0 -0.73289220009E+03 -0.14869509308E+02 -0.50746497143E+03  0.89155637875E+03  0.00000000000E+00 0.  1.
        -11    1    3    3    0    0 -0.24448042272E+03  0.42652549026E+02 -0.14521487657E+03  0.28753656708E+03  0.00000000000E+00 0. -1.
         22    1    1    2    0    0  0.97737262280E+03 -0.27783039718E+02  0.27847961999E+04  0.29514604886E+04  0.00000000000E+00 0.  1.
<mgrwt>
<rscale>  0 0.35377325E+04</rscale>
<asrwt>0</asrwt>
<pdfrwt beam="1">  1        2 0.15372593E+00 0.35377325E+04</pdfrwt>
<pdfrwt beam="2">  1       -2 0.48174383E+00 0.35377325E+04</pdfrwt>
<totfact> 0.44408262E-02</totfact>
</mgrwt>
</event>
<event>
 6    1  0.9364335E-007  0.5488266E+03  0.7818608E-02  0.1001766E+00
         -2   -1    0    0    0  501 -0.00000000000E+00  0.00000000000E+00  0.76390197499E+02  0.76390197499E+02  0.00000000000E+00 0.  1.
          2   -1    0    0  501    0  0.00000000000E+00 -0.00000000000E+00 -0.98576334752E+03  0.98576334752E+03  0.00000000000E+00 0. -1.
         23    2    1    2    0    0 -0.16424146843E+03  0.14531644101E+03 -0.76213309189E+03  0.79801009404E+03  0.88775742439E+02 0.  0.
         13    1    3    3    0    0  0.25079869818E+01  0.38333582249E+02 -0.13013812418E+03  0.13568966391E+03  0.00000000000E+00 0. -1.
        -13    1    3    3    0    0 -0.16674945541E+03  0.10698285876E+03 -0.63199496772E+03  0.66232043013E+03  0.00000000000E+00 0.  1.
         22    1    1    2    0    0  0.16424146843E+03 -0.14531644101E+03 -0.14724005813E+03  0.26414345099E+03  0.00000000000E+00 0.  1.
<mgrwt>
<rscale>  0 0.54882659E+03</rscale>
<asrwt>0</asrwt>
<pdfrwt beam="1">  1        2 0.15165589E+00 0.54882659E+03</pdfrwt>
<pdfrwt beam="2">  1       -2 0.11752339E-01 0.54882659E+03</pdfrwt>
<totfact> 0.13652216E+03</totfact>
</mgrwt>
</event>
<event>
 6    1  0.9364335E-007  0.1396385E+04  0.7818608E-02  0.8956439E-01
         -2   -1    0    0    0  501 -0.00000000000E+00  0.00000000000E+00  0.21228325450E+03  0.21228325450E+03  0.00000000000E+00 0.  1.
          2   -1    0    0  501    0  0.00000000000E+00 -0.00000000000E+00 -0.22963317260E+04  0.22963317260E+04  0.00000000000E+00 0. -1.
         23    2    1    2    0    0 -0.19129464006E+03  0.64528060747E+03 -0.72390311270E+03  0.99105901819E+03  0.71983048437E+02 0.  0.
         11    1    3    3    0    0 -0.42520189331E+02  0.26744233942E+03 -0.28840502649E+03  0.39561449761E+03  0.00000000000E+00 0. -1.
        -11    1    3    3    0    0 -0.14877445073E+03  0.37783826805E+03 -0.43549808621E+03  0.59544452058E+03  0.00000000000E+00 0.  1.
         22    1    1    2    0    0  0.19129464006E+03 -0.64528060747E+03 -0.13601453588E+04  0.15175559623E+04  0.00000000000E+00 0. -1.
<mgrwt>
<rscale>  0 0.13963850E+04</rscale>
<asrwt>0</asrwt>
<pdfrwt beam="1">  1        2 0.35328178E+00 0.13963850E+04</pdfrwt>
<pdfrwt beam="2">  1       -2 0.32658964E-01 0.13963850E+04</pdfrwt>
<totfact> 0.38847825E+01</totfact>
</mgrwt>
</event>
<event>
 6    1  0.9364335E-007  0.1214690E+04  0.7818608E-02  0.9100095E-01
          2   -1    0    0  501    0  0.00000000000E+00  0.00000000000E+00  0.19226496420E+04  0.19226496420E+04  0.00000000000E+00 0. -1.
         -2   -1    0    0    0  501 -0.00000000000E+00 -0.00000000000E+00 -0.19185382485E+03  0.19185382485E+03  0.00000000000E+00 0.  1.
         23    2    1    2    0    0 -0.19241775018E+03 -0.38830941292E+03  0.13622322402E+03  0.46208991524E+03  0.84625836835E+02 0.  0.
         11    1    3    3    0    0 -0.23803097653E+02 -0.41410248030E+02  0.45260302584E+02  0.65801907950E+02  0.00000000000E+00 0. -1.
        -11    1    3    3    0    0 -0.16861465253E+03 -0.34689916489E+03  0.90962921435E+02  0.39628800729E+03  0.00000000000E+00 0.  1.
         22    1    1    2    0    0  0.19241775018E+03  0.38830941292E+03  0.15945725931E+04  0.16524135516E+04  0.00000000000E+00 0. -1.
<mgrwt>
<rscale>  0 0.12146896E+04</rscale>
<asrwt>0</asrwt>
<pdfrwt beam="1">  1        2 0.29579224E+00 0.12146896E+04</pdfrwt>
<pdfrwt beam="2">  1       -2 0.29515974E-01 0.12146896E+04</pdfrwt>
<totfact> 0.76929428E+01</totfact>
</mgrwt>
</event>
<event>
 6    1  0.9364335E-007  0.2798768E+04  0.7818608E-02  0.8303651E-01
          3   -1    0    0  501    0  0.00000000000E+00  0.00000000000E+00  0.10277332619E+04  0.10277332619E+04  0.00000000000E+00 0. -1.
         -3   -1    0    0    0  501 -0.00000000000E+00 -0.00000000000E+00 -0.19054317737E+04  0.19054317737E+04  0.00000000000E+00 0.  1.
         23    2    1    2    0    0 -0.73181557943E+03 -0.39420974393E+03 -0.16172374859E+04  0.18205675079E+04  0.89741854080E+02 0.  0.
         11    1    3    3    0    0 -0.49814910262E+03 -0.23749300539E+03 -0.99832523973E+03  0.11407053696E+04  0.00000000000E+00 0. -1.
        -11    1    3    3    0    0 -0.23366647681E+03 -0.15671673854E+03 -0.61891224618E+03  0.67986213823E+03  0.00000000000E+00 0.  1.
         22    1    1    2    0    0  0.73181557943E+03  0.39420974393E+03  0.73953897410E+03  0.11125975277E+04  0.00000000000E+00 0. -1.
<mgrwt>
<rscale>  0 0.27987680E+04</rscale>
<asrwt>0</asrwt>
<pdfrwt beam="1">  1        3 0.15811281E+00 0.27987680E+04</pdfrwt>
<pdfrwt beam="2">  1       -3 0.29314335E+00 0.27987680E+04</pdfrwt>
<totfact> 0.26465926E-02</totfact>
</mgrwt>
</event>
<event>
 6    1  0.9364335E-007  0.2882975E+04  0.7818608E-02  0.8277961E-01
         -2   -1    0    0    0  501 -0.00000000000E+00  0.00000000000E+00  0.13350526302E+04  0.13350526302E+04  0.00000000000E+00 0.  1.
          2   -1    0    0  501    0  0.00000000000E+00 -0.00000000000E+00 -0.15564078461E+04  0.15564078461E+04  0.00000000000E+00 0. -1.
         23    2    1    2    0    0 -0.81438442398E+03  0.10733838815E+04 -0.62055374347E+03  0.14862080394E+04  0.91391687568E+02 0.  0.
         13    1    3    3    0    0 -0.71145238451E+02  0.12921966414E+03 -0.89024429596E+02  0.17229252920E+03  0.00000000000E+00 0.  1.
        -13    1    3    3    0    0 -0.74323918553E+03  0.94416421739E+03 -0.53152931388E+03  0.13139155102E+04  0.00000000000E+00 0. -1.
         22    1    1    2    0    0  0.81438442398E+03 -0.10733838815E+04  0.39919852763E+03  0.14052524370E+04  0.00000000000E+00 0.  1.
<mgrwt>
<rscale>  0 0.28829751E+04</rscale>
<asrwt>0</asrwt>
<pdfrwt beam="1">  1        2 0.23944736E+00 0.28829751E+04</pdfrwt>
<pdfrwt beam="2">  1       -2 0.20539271E+00 0.28829751E+04</pdfrwt>
<totfact> 0.12505985E+00</totfact>
</mgrwt>
</event>
<event>
 6    1  0.9364335E-007  0.2729837E+04  0.7818608E-02  0.8325388E-01
          1   -1    0    0  501    0  0.00000000000E+00  0.00000000000E+00  0.17351123017E+04  0.17351123017E+04  0.00000000000E+00 0. -1.
         -1   -1    0    0    0  501 -0.00000000000E+00 -0.00000000000E+00 -0.10737068619E+04  0.10737068619E+04  0.00000000000E+00 0.  1.
         23    2    1    2    0    0 -0.28929314386E+03  0.97855552117E+03  0.12611858717E+04  0.16251815512E+04  0.96766938100E+02 0.  0.
         13    1    3    3    0    0 -0.16992108368E+03  0.50676081030E+03  0.73017522486E+03  0.90489532684E+03  0.00000000000E+00 0.  1.
        -13    1    3    3    0    0 -0.11937206017E+03  0.47179471087E+03  0.53101064684E+03  0.72028622437E+03  0.00000000000E+00 0. -1.
         22    1    1    2    0    0  0.28929314386E+03 -0.97855552117E+03 -0.59978043182E+03  0.11836376124E+04  0.00000000000E+00 0.  1.
<mgrwt>
<rscale>  0 0.27298366E+04</rscale>
<asrwt>0</asrwt>
<pdfrwt beam="1">  1        1 0.26694035E+00 0.27298366E+04</pdfrwt>
<pdfrwt beam="2">  1       -1 0.16518567E+00 0.27298366E+04</pdfrwt>
<totfact> 0.10493369E+00</totfact>
</mgrwt>
</event>
<event>
 6    1  0.9364335E-007  0.1636732E+04  0.7818608E-02  0.8798295E-01
         -2   -1    0    0    0  501 -0.00000000000E+00  0.00000000000E+00  0.17003890804E+03  0.17003890804E+03  0.00000000000E+00 0.  1.
          2   -1    0    0  501    0  0.00000000000E+00 -0.00000000000E+00 -0.39386450771E+04  0.39386450771E+04  0.00000000000E+00 0. -1.
         23    2    1    2    0    0 -0.10006185014E+03 -0.15067105520E+03 -0.38871712574E+04  0.38924160474E+04  0.89934201078E+02 0.  0.
         13    1    3    3    0    0 -0.14219465296E+02 -0.99668230250E+02 -0.21856443236E+04  0.21879618503E+04  0.00000000000E+00 0. -1.
        -13    1    3    3    0    0 -0.85842384845E+02 -0.51002824949E+02 -0.17015269339E+04  0.17044541971E+04  0.00000000000E+00 0.  1.
         22    1    1    2    0    0  0.10006185014E+03  0.15067105520E+03  0.11856508837E+03  0.21626793777E+03  0.00000000000E+00 0.  1.
<mgrwt>
<rscale>  0 0.16367320E+04</rscale>
<asrwt>0</asrwt>
<pdfrwt beam="1">  1        2 0.60594540E+00 0.16367320E+04</pdfrwt>
<pdfrwt beam="2">  1       -2 0.26159832E-01 0.16367320E+04</pdfrwt>
<totfact> 0.49275874E+00</totfact>
</mgrwt>
</event>
<event>
 6    1  0.9364335E-007  0.2499576E+04  0.7818608E-02  0.8403136E-01
          2   -1    0    0  501    0  0.00000000000E+00  0.00000000000E+00  0.27044942472E+04  0.27044942472E+04  0.00000000000E+00 0. -1.
         -2   -1    0    0    0  501 -0.00000000000E+00 -0.00000000000E+00 -0.57754628689E+03  0.57754628689E+03  0.00000000000E+00 0.  1.
         23    2    1    2    0    0 -0.85958526550E+03 -0.89797618828E+03  0.12123827645E+04  0.17387720672E+04  0.90599507539E+02 0.  0.
         13    1    3    3    0    0 -0.68552777073E+03 -0.74753586303E+03  0.10256128990E+04  0.14424423765E+04  0.00000000000E+00 0. -1.
        -13    1    3    3    0    0 -0.17405749478E+03 -0.15044032526E+03  0.18676986549E+03  0.29632969073E+03  0.00000000000E+00 0.  1.
         22    1    1    2    0    0  0.85958526550E+03  0.89797618828E+03  0.91456519586E+03  0.15432684669E+04  0.00000000000E+00 0. -1.
<mgrwt>
<rscale>  0 0.24995765E+04</rscale>
<asrwt>0</asrwt>
<pdfrwt beam="1">  1        2 0.41607603E+00 0.24995765E+04</pdfrwt>
<pdfrwt beam="2">  1       -2 0.88853277E-01 0.24995765E+04</pdfrwt>
<totfact> 0.25620091E+00</totfact>
</mgrwt>
</event>
<event>
 6    1  0.9364335E-007  0.2353228E+04  0.7818608E-02  0.8457225E-01
          2   -1    0    0  501    0  0.00000000000E+00  0.00000000000E+00  0.11403309033E+04  0.11403309033E+04  0.00000000000E+00 0. -1.
         -2   -1    0    0    0  501 -0.00000000000E+00 -0.00000000000E+00 -0.12140514667E+04  0.12140514667E+04  0.00000000000E+00 0.  1.
         23    2    1    2    0    0 -0.21978046734E+02  0.10631810457E+04 -0.53670002382E+03  0.11945604219E+04  0.89948404970E+02 0.  0.
         13    1    3    3    0    0  0.20725318655E+02  0.32242914025E+03 -0.12854632348E+03  0.34772725892E+03  0.00000000000E+00 0. -1.
        -13    1    3    3    0    0 -0.42703365389E+02  0.74075190548E+03 -0.40815370034E+03  0.84683316301E+03  0.00000000000E+00 0.  1.
         22    1    1    2    0    0  0.21978046734E+02 -0.10631810457E+04  0.46297946033E+03  0.11598219481E+04  0.00000000000E+00 0. -1.
<mgrwt>
<rscale>  0 0.23532279E+04</rscale>
<asrwt>0</asrwt>
<pdfrwt beam="1">  1        2 0.17543553E+00 0.23532279E+04</pdfrwt>
<pdfrwt beam="2">  1       -2 0.18677715E+00 0.23532279E+04</pdfrwt>
<totfact> 0.30270060E+00</totfact>
</mgrwt>
</event>
<event>
 6    1  0.1032969E-006  0.2918619E+04  0.7818608E-02  0.8267359E-01
          1   -1    0    0  501    0  0.00000000000E+00  0.00000000000E+00  0.11135012049E+04  0.11135012049E+04  0.00000000000E+00 0. -1.
         -1   -1    0    0    0  501 -0.00000000000E+00 -0.00000000000E+00 -0.19125117496E+04  0.19125117496E+04  0.00000000000E+00 0.  1.
         23    2    1    2    0    0 -0.14555847439E+04 -0.24330924635E+02 -0.31968537831E+03  0.14933448379E+04  0.92526337945E+02 0.  0.
         11    1    3    3    0    0 -0.74708629418E+03 -0.46785235385E+02 -0.19595254755E+03  0.77377269924E+03  0.00000000000E+00 0.  1.
        -11    1    3    3    0    0 -0.70849844970E+03  0.22454310750E+02 -0.12373283076E+03  0.71957213864E+03  0.00000000000E+00 0. -1.
         22    1    1    2    0    0  0.14555847439E+04  0.24330924635E+02 -0.47932516645E+03  0.15326681166E+04  0.00000000000E+00 0.  1.
<mgrwt>
<rscale>  0 0.29186189E+04</rscale>
<asrwt>0</asrwt>
<pdfrwt beam="1">  1        1 0.17130788E+00 0.29186189E+04</pdfrwt>
<pdfrwt beam="2">  1       -1 0.29423257E+00 0.29186189E+04</pdfrwt>
<totfact> 0.38201794E-01</totfact>
</mgrwt>
</event>
<event>
 6    1  0.9364335E-007  0.1692309E+04  0.7818608E-02  0.8765763E-01
          2   -1    0    0  501    0  0.00000000000E+00  0.00000000000E+00  0.96556865651E+03  0.96556865651E+03  0.00000000000E+00 0. -1.
         -2   -1    0    0    0  501 -0.00000000000E+00 -0.00000000000E+00 -0.74150847590E+03  0.74150847590E+03  0.00000000000E+00 0.  1.
         23    2    1    2    0    0  0.18591028247E+03  0.37803725838E+03  0.84977494645E+03  0.95276037530E+03  0.90333112881E+02 0.  0.
         13    1    3    3    0    0  0.50980018179E+02  0.19979673036E+03  0.37378470491E+03  0.42688722321E+03  0.00000000000E+00 0. -1.
        -13    1    3    3    0    0  0.13493026429E+03  0.17824052802E+03  0.47599024154E+03  0.52587315209E+03  0.00000000000E+00 0.  1.
         22    1    1    2    0    0 -0.18591028247E+03 -0.37803725838E+03 -0.62571476584E+03  0.75431675710E+03  0.00000000000E+00 0.  1.
<mgrwt>
<rscale>  0 0.16923089E+04</rscale>
<asrwt>0</asrwt>
<pdfrwt beam="1">  1        2 0.14854902E+00 0.16923089E+04</pdfrwt>
<pdfrwt beam="2">  1       -2 0.11407823E+00 0.16923089E+04</pdfrwt>
<totfact> 0.15184604E+01</totfact>
</mgrwt>
</event>
<event>
 6    1  0.9364335E-007  0.2347795E+04  0.7818608E-02  0.8459311E-01
          2   -1    0    0  501    0  0.00000000000E+00  0.00000000000E+00  0.19638507335E+04  0.19638507335E+04  0.00000000000E+00 0. -1.
         -2   -1    0    0    0  501 -0.00000000000E+00 -0.00000000000E+00 -0.70170085155E+03  0.70170085155E+03  0.00000000000E+00 0.  1.
         23    2    1    2    0    0  0.97534039290E+03  0.19554757230E+03  0.13359607362E+04  0.16680668597E+04  0.90156668561E+02 0.  0.
         13    1    3    3    0    0  0.73543505286E+03  0.18263173032E+03  0.10423836468E+04  0.12887135962E+04  0.00000000000E+00 0.  1.
        -13    1    3    3    0    0  0.23990534004E+03  0.12915841981E+02  0.29357708938E+03  0.37935326354E+03  0.00000000000E+00 0. -1.
         22    1    1    2    0    0 -0.97534039290E+03 -0.19554757230E+03 -0.73810854229E+02  0.99748472532E+03  0.00000000000E+00 0.  1.
<mgrwt>
<rscale>  0 0.23477953E+04</rscale>
<asrwt>0</asrwt>
<pdfrwt beam="1">  1        2 0.30213088E+00 0.23477953E+04</pdfrwt>
<pdfrwt beam="2">  1       -2 0.10795398E+00 0.23477953E+04</pdfrwt>
<totfact> 0.43449748E+00</totfact>
</mgrwt>
</event>
<event>
 6    1  0.9364335E-007  0.3587307E+04  0.7818608E-02  0.8093405E-01
         -1   -1    0    0    0  501 -0.00000000000E+00  0.00000000000E+00  0.20712299313E+04  0.20712299313E+04  0.00000000000E+00 0.  1.
          1   -1    0    0  501    0  0.00000000000E+00 -0.00000000000E+00 -0.15532767159E+04  0.15532767159E+04  0.00000000000E+00 0. -1.
         23    2    1    2    0    0 -0.11853811715E+04 -0.13443964342E+04  0.27979780107E+03  0.18164003740E+04  0.92158641385E+02 0.  0.
         11    1    3    3    0    0 -0.57961649715E+03 -0.63994170327E+03  0.17990671939E+03  0.88195640201E+03  0.00000000000E+00 0. -1.
        -11    1    3    3    0    0 -0.60576467432E+03 -0.70445473093E+03  0.99891081679E+02  0.93444397199E+03  0.00000000000E+00 0.  1.
         22    1    1    2    0    0  0.11853811715E+04  0.13443964342E+04  0.23815541435E+03  0.18081062732E+04  0.00000000000E+00 0. -1.
<mgrwt>
<rscale>  0 0.35873072E+04</rscale>
<asrwt>0</asrwt>
<pdfrwt beam="1">  1        1 0.23896565E+00 0.35873072E+04</pdfrwt>
<pdfrwt beam="2">  1       -1 0.31865076E+00 0.35873072E+04</pdfrwt>
<totfact> 0.12153266E-01</totfact>
</mgrwt>
</event>
<event>
 6    1  0.9364335E-007  0.1393528E+04  0.7818608E-02  0.8958517E-01
         -2   -1    0    0    0  501 -0.00000000000E+00  0.00000000000E+00  0.25131821336E+03  0.25131821336E+03  0.00000000000E+00 0.  1.
          2   -1    0    0  501    0  0.00000000000E+00 -0.00000000000E+00 -0.19317349745E+04  0.19317349745E+04  0.00000000000E+00 0. -1.
         23    2    1    2    0    0  0.18079643208E+03 -0.92240977693E+02 -0.18830332007E+04  0.18962620280E+04  0.93807760330E+02 0.  0.
         13    1    3    3    0    0  0.28303866331E+02 -0.43191691827E+02 -0.77390987589E+03  0.77563079303E+03  0.00000000000E+00 0.  1.
        -13    1    3    3    0    0  0.15249256575E+03 -0.49049285866E+02 -0.11091233249E+04  0.11206312350E+04  0.00000000000E+00 0. -1.
         22    1    1    2    0    0 -0.18079643208E+03  0.92240977693E+02  0.20261643956E+03  0.28679115990E+03  0.00000000000E+00 0.  1.
<mgrwt>
<rscale>  0 0.13935282E+04</rscale>
<asrwt>0</asrwt>
<pdfrwt beam="1">  1        2 0.29718999E+00 0.13935282E+04</pdfrwt>
<pdfrwt beam="2">  1       -2 0.38664341E-01 0.13935282E+04</pdfrwt>
<totfact> 0.44891380E+01</totfact>
</mgrwt>
</event>
<event>
 6    1  0.9364335E-007  0.1930362E+04  0.7818608E-02  0.8639889E-01
          2   -1    0    0  501    0  0.00000000000E+00  0.00000000000E+00  0.27080392048E+04  0.27080392048E+04  0.00000000000E+00 0. -1.
         -2   -1    0    0    0  501 -0.00000000000E+00 -0.00000000000E+00 -0.34400325583E+03  0.34400325583E+03  0.00000000000E+00 0.  1.
         23    2    1    2    0    0 -0.52886651938E+02  0.42926782057E+03 -0.17583557795E+03  0.47560786356E+03  0.90646730073E+02 0.  0.
         11    1    3    3    0    0 -0.50880114702E+02  0.15670977897E+03 -0.33568281405E+02  0.16814746627E+03  0.00000000000E+00 0. -1.
        -11    1    3    3    0    0 -0.20065372365E+01  0.27255804160E+03 -0.14226729654E+03  0.30746039729E+03  0.00000000000E+00 0.  1.
         22    1    1    2    0    0  0.52886651938E+02 -0.42926782057E+03  0.25398715269E+04  0.25764345971E+04  0.00000000000E+00 0. -1.
<mgrwt>
<rscale>  0 0.19303619E+04</rscale>
<asrwt>0</asrwt>
<pdfrwt beam="1">  1        2 0.41662140E+00 0.19303619E+04</pdfrwt>
<pdfrwt beam="2">  1       -2 0.52923579E-01 0.19303619E+04</pdfrwt>
<totfact> 0.82745129E+00</totfact>
</mgrwt>
</event>
<event>
 6    1  0.9364335E-007  0.1520265E+04  0.7818608E-02  0.8871088E-01
         -1   -1    0    0    0  501 -0.00000000000E+00  0.00000000000E+00  0.26723665817E+03  0.26723665817E+03  0.00000000000E+00 0.  1.
          1   -1    0    0  501    0  0.00000000000E+00 -0.00000000000E+00 -0.21621338049E+04  0.21621338049E+04  0.00000000000E+00 0. -1.
         23    2    1    2    0    0  0.31397595880E+03 -0.56719638040E+03 -0.15768264915E+04  0.17072474968E+04  0.89552188702E+02 0.  0.
         13    1    3    3    0    0  0.14981193490E+03 -0.28802606420E+03 -0.67464441559E+03  0.74869734672E+03  0.00000000000E+00 0. -1.
        -13    1    3    3    0    0  0.16416402389E+03 -0.27917031620E+03 -0.90218207590E+03  0.95855015010E+03  0.00000000000E+00 0.  1.
         22    1    1    2    0    0 -0.31397595880E+03  0.56719638040E+03 -0.31807065523E+03  0.72212296623E+03  0.00000000000E+00 0.  1.
<mgrwt>
<rscale>  0 0.15202650E+04</rscale>
<asrwt>0</asrwt>
<pdfrwt beam="1">  1        1 0.33263598E+00 0.15202650E+04</pdfrwt>
<pdfrwt beam="2">  1       -1 0.41113331E-01 0.15202650E+04</pdfrwt>
<totfact> 0.12944407E+01</totfact>
</mgrwt>
</event>
<event>
 6    1  0.9364335E-007  0.1584592E+04  0.7818608E-02  0.8830070E-01
         -2   -1    0    0    0  501 -0.00000000000E+00  0.00000000000E+00  0.75283680858E+03  0.75283680858E+03  0.00000000000E+00 0.  1.
          2   -1    0    0  501    0  0.00000000000E+00 -0.00000000000E+00 -0.83382306530E+03  0.83382306530E+03  0.00000000000E+00 0. -1.
         23    2    1    2    0    0  0.60670764036E+03 -0.47433406247E+03 -0.21479066585E+03  0.80500100737E+03  0.93832979522E+02 0.  0.
         11    1    3    3    0    0  0.17954454300E+03 -0.88845350648E+02 -0.61305409065E+02  0.20949485062E+03  0.00000000000E+00 0.  1.
        -11    1    3    3    0    0  0.42716309735E+03 -0.38548871182E+03 -0.15348525678E+03  0.59550615676E+03  0.00000000000E+00 0. -1.
         22    1    1    2    0    0 -0.60670764036E+03  0.47433406247E+03  0.13380440912E+03  0.78165886651E+03  0.00000000000E+00 0.  1.
<mgrwt>
<rscale>  0 0.15845917E+04</rscale>
<asrwt>0</asrwt>
<pdfrwt beam="1">  1        2 0.12828047E+00 0.15845917E+04</pdfrwt>
<pdfrwt beam="2">  1       -2 0.11582105E+00 0.15845917E+04</pdfrwt>
<totfact> 0.18125928E+01</totfact>
</mgrwt>
</event>
<event>
 6    1  0.9364335E-007  0.4512660E+04  0.7818608E-02  0.7908424E-01
          1   -1    0    0  501    0  0.00000000000E+00  0.00000000000E+00  0.29545452033E+04  0.29545452033E+04  0.00000000000E+00 0. -1.
         -1   -1    0    0    0  501 -0.00000000000E+00 -0.00000000000E+00 -0.17231165831E+04  0.17231165831E+04  0.00000000000E+00 0.  1.
         23    2    1    2    0    0  0.20574064778E+03  0.15020542433E+04 -0.11149452368E+04  0.18841037611E+04  0.90818157382E+02 0.  0.
         13    1    3    3    0    0  0.16127639751E+03  0.13459609183E+04 -0.10153256193E+04  0.16936667274E+04  0.00000000000E+00 0. -1.
        -13    1    3    3    0    0  0.44464250270E+02  0.15609332492E+03 -0.99619617413E+02  0.19043703372E+03  0.00000000000E+00 0.  1.
         22    1    1    2    0    0 -0.20574064778E+03 -0.15020542433E+04  0.23463738569E+04  0.27935580252E+04  0.00000000000E+00 0. -1.
<mgrwt>
<rscale>  0 0.45126603E+04</rscale>
<asrwt>0</asrwt>
<pdfrwt beam="1">  1        1 0.45454542E+00 0.45126603E+04</pdfrwt>
<pdfrwt beam="2">  1       -1 0.26509486E+00 0.45126603E+04</pdfrwt>
<totfact> 0.26918367E-02</totfact>
</mgrwt>
</event>
<event>
 6    1  0.9364335E-007  0.2181744E+04  0.7818608E-02  0.8526065E-01
         -2   -1    0    0    0  501 -0.00000000000E+00  0.00000000000E+00  0.48450517600E+03  0.48450517600E+03  0.00000000000E+00 0.  1.
          2   -1    0    0  501    0  0.00000000000E+00 -0.00000000000E+00 -0.24561168577E+04  0.24561168577E+04  0.00000000000E+00 0. -1.
         23    2    1    2    0    0  0.75093822070E+03 -0.78637294133E+03 -0.10678350814E+04  0.15267257301E+04  0.91263791694E+02 0.  0.
         13    1    3    3    0    0  0.35147070420E+03 -0.43393820410E+03 -0.54188817506E+03  0.77812390733E+03  0.00000000000E+00 0. -1.
        -13    1    3    3    0    0  0.39946751650E+03 -0.35243473723E+03 -0.52594690633E+03  0.74860182274E+03  0.00000000000E+00 0.  1.
         22    1    1    2    0    0 -0.75093822070E+03  0.78637294133E+03 -0.90377660033E+03  0.14138963036E+04  0.00000000000E+00 0.  1.
<mgrwt>
<rscale>  0 0.21817436E+04</rscale>
<asrwt>0</asrwt>
<pdfrwt beam="1">  1        2 0.37786413E+00 0.21817436E+04</pdfrwt>
<pdfrwt beam="2">  1       -2 0.74539258E-01 0.21817436E+04</pdfrwt>
<totfact> 0.54695011E+00</totfact>
</mgrwt>
</event>
<event>
 6    1  0.9364335E-007  0.4416441E+03  0.7818608E-02  0.1030244E+00
          2   -1    0    0  501    0  0.00000000000E+00  0.00000000000E+00  0.24244419440E+03  0.24244419440E+03  0.00000000000E+00 0. -1.
         -2   -1    0    0    0  501 -0.00000000000E+00 -0.00000000000E+00 -0.20112822562E+03  0.20112822562E+03  0.00000000000E+00 0.  1.
         23    2    1    2    0    0  0.40665732207E+02  0.34080817974E+02  0.22729589371E+03  0.25017196395E+03  0.90041014659E+02 0.  0.
         11    1    3    3    0    0  0.17093946490E+02  0.45943681249E+02  0.46854796785E+02  0.67811480113E+02  0.00000000000E+00 0. -1.
        -11    1    3    3    0    0  0.23571785717E+02 -0.11862863275E+02  0.18044109692E+03  0.18236048384E+03  0.00000000000E+00 0.  1.
         22    1    1    2    0    0 -0.40665732207E+02 -0.34080817974E+02 -0.18597992493E+03  0.19340045606E+03  0.00000000000E+00 0.  1.
<mgrwt>
<rscale>  0 0.44164407E+03</rscale>
<asrwt>0</asrwt>
<pdfrwt beam="1">  1        2 0.37299107E-01 0.44164407E+03</pdfrwt>
<pdfrwt beam="2">  1       -2 0.30942804E-01 0.44164407E+03</pdfrwt>
<totfact> 0.13423517E+03</totfact>
</mgrwt>
</event>
<event>
 6    1  0.9364335E-007  0.2398420E+04  0.7818608E-02  0.8440095E-01
         -2   -1    0    0    0  501 -0.00000000000E+00  0.00000000000E+00  0.46200401534E+03  0.46200401534E+03  0.00000000000E+00 0.  1.
          2   -1    0    0  501    0  0.00000000000E+00 -0.00000000000E+00 -0.31127524774E+04  0.31127524774E+04  0.00000000000E+00 0. -1.
         23    2    1    2    0    0  0.44329072542E+03 -0.11058222487E+04 -0.11454321249E+04  0.16550359954E+04  0.88203630979E+02 0.  0.
         13    1    3    3    0    0  0.22805792336E+03 -0.52702400732E+03 -0.49490763973E+03  0.75808857831E+03  0.00000000000E+00 0.  1.
        -13    1    3    3    0    0  0.21523280206E+03 -0.57879824134E+03 -0.65052448520E+03  0.89694741714E+03  0.00000000000E+00 0. -1.
         22    1    1    2    0    0 -0.44329072542E+03  0.11058222487E+04 -0.15053163371E+04  0.19197204973E+04  0.00000000000E+00 0.  1.
<mgrwt>
<rscale>  0 0.23984196E+04</rscale>
<asrwt>0</asrwt>
<pdfrwt beam="1">  1        2 0.47888501E+00 0.23984196E+04</pdfrwt>
<pdfrwt beam="2">  1       -2 0.71077539E-01 0.23984196E+04</pdfrwt>
<totfact> 0.23894363E+00</totfact>
</mgrwt>
</event>
<event>
 6    1  0.9364335E-007  0.1772113E+04  0.7818608E-02  0.8721272E-01
         -1   -1    0    0    0  501 -0.00000000000E+00  0.00000000000E+00  0.63585345820E+03  0.63585345820E+03  0.00000000000E+00 0.  1.
          1   -1    0    0  501    0  0.00000000000E+00 -0.00000000000E+00 -0.12347116830E+04  0.12347116830E+04  0.00000000000E+00 0. -1.
         23    2    1    2    0    0 -0.15914155154E+03 -0.45239541588E+03  0.48347938192E+03  0.68673984130E+03  0.88722326039E+02 0.  0.
         11    1    3    3    0    0 -0.99270418531E+02 -0.36646623058E+03  0.34413781469E+03  0.51242848248E+03  0.00000000000E+00 0. -1.
        -11    1    3    3    0    0 -0.59871133013E+02 -0.85929185301E+02  0.13934156723E+03  0.17431135882E+03  0.00000000000E+00 0.  1.
         22    1    1    2    0    0  0.15914155154E+03  0.45239541588E+03 -0.10823376067E+04  0.11838252999E+04  0.00000000000E+00 0.  1.
<mgrwt>
<rscale>  0 0.17721125E+04</rscale>
<asrwt>0</asrwt>
<pdfrwt beam="1">  1        1 0.18995564E+00 0.17721125E+04</pdfrwt>
<pdfrwt beam="2">  1       -1 0.97823609E-01 0.17721125E+04</pdfrwt>
<totfact> 0.95563738E+00</totfact>
</mgrwt>
</event>
<event>
 6    1  0.1237254E-006  0.5016534E+04  0.7818608E-02  0.7825962E-01
         -2   -1    0    0    0  501 -0.00000000000E+00  0.00000000000E+00  0.16623732918E+04  0.16623732918E+04  0.00000000000E+00 0.  1.
          2   -1    0    0  501    0  0.00000000000E+00 -0.00000000000E+00 -0.37845913596E+04  0.37845913596E+04  0.00000000000E+00 0. -1.
         23    2    1    2    0    0  0.25403379555E+02 -0.13426164764E+04 -0.33607443630E+04  0.36201609623E+04  0.87740441290E+02 0.  0.
         13    1    3    3    0    0 -0.21543788163E+02 -0.83702077804E+03 -0.21462492691E+04  0.23037911890E+04  0.00000000000E+00 0.  1.
        -13    1    3    3    0    0  0.46947167718E+02 -0.50559569841E+03 -0.12144950939E+04  0.13163697733E+04  0.00000000000E+00 0. -1.
         22    1    1    2    0    0 -0.25403379555E+02  0.13426164764E+04  0.12385262952E+04  0.18268036891E+04  0.00000000000E+00 0.  1.
<mgrwt>
<rscale>  0 0.50165341E+04</rscale>
<asrwt>0</asrwt>
<pdfrwt beam="1">  1        2 0.58224482E+00 0.50165341E+04</pdfrwt>
<pdfrwt beam="2">  1       -2 0.25574974E+00 0.50165341E+04</pdfrwt>
<totfact> 0.21658998E-02</totfact>
</mgrwt>
</event>
<event>
 6    1  0.9364335E-007  0.2262526E+04  0.7818608E-02  0.8492845E-01
          2   -1    0    0  501    0  0.00000000000E+00  0.00000000000E+00  0.68867342126E+03  0.68867342126E+03  0.00000000000E+00 0. -1.
         -2   -1    0    0    0  501 -0.00000000000E+00 -0.00000000000E+00 -0.18582914659E+04  0.18582914659E+04  0.00000000000E+00 0.  1.
         23    2    1    2    0    0  0.81529827110E+03  0.59429379652E+03 -0.13868538716E+02  0.10128028006E+04  0.87640111054E+02 0.  0.
         11    1    3    3    0    0  0.35097189661E+03  0.25233832085E+03 -0.49233676308E+02  0.43506304746E+03  0.00000000000E+00 0. -1.
        -11    1    3    3    0    0  0.46432637449E+03  0.34195547567E+03  0.35365137592E+02  0.57773975313E+03  0.00000000000E+00 0.  1.
         22    1    1    2    0    0 -0.81529827110E+03 -0.59429379652E+03 -0.11557495060E+04  0.15341620866E+04  0.00000000000E+00 0.  1.
<mgrwt>
<rscale>  0 0.22625260E+04</rscale>
<asrwt>0</asrwt>
<pdfrwt beam="1">  1        2 0.10594976E+00 0.22625260E+04</pdfrwt>
<pdfrwt beam="2">  1       -2 0.28589099E+00 0.22625260E+04</pdfrwt>
<totfact> 0.14749321E+00</totfact>
</mgrwt>
</event>
<event>
 6    1  0.9364335E-007  0.7112422E+03  0.7818608E-02  0.9698197E-01
         -1   -1    0    0    0  501 -0.00000000000E+00  0.00000000000E+00  0.12479420887E+03  0.12479420887E+03  0.00000000000E+00 0.  1.
          1   -1    0    0  501    0  0.00000000000E+00 -0.00000000000E+00 -0.10133993012E+04  0.10133993012E+04  0.00000000000E+00 0. -1.
         23    2    1    2    0    0  0.24635214731E+03 -0.13978326258E+02 -0.84696297377E+03  0.88795594273E+03  0.10116670990E+03 0.  0.
         13    1    3    3    0    0  0.21966164681E+03 -0.18310630822E+01 -0.59432903402E+03  0.63362575118E+03  0.00000000000E+00 0.  1.
        -13    1    3    3    0    0  0.26690500492E+02 -0.12147263176E+02 -0.25263393975E+03  0.25433019155E+03  0.00000000000E+00 0. -1.
         22    1    1    2    0    0 -0.24635214731E+03  0.13978326258E+02 -0.41642118587E+02  0.25023756738E+03  0.00000000000E+00 0.  1.
<mgrwt>
<rscale>  0 0.71124219E+03</rscale>
<asrwt>0</asrwt>
<pdfrwt beam="1">  1        1 0.15590758E+00 0.71124219E+03</pdfrwt>
<pdfrwt beam="2">  1       -1 0.19199109E-01 0.71124219E+03</pdfrwt>
<totfact> 0.32748994E+02</totfact>
</mgrwt>
</event>
<event>
 6    1  0.9364335E-007  0.3338377E+04  0.7818608E-02  0.8153198E-01
          1   -1    0    0  501    0  0.00000000000E+00  0.00000000000E+00  0.12410781959E+04  0.12410781959E+04  0.00000000000E+00 0. -1.
         -1   -1    0    0    0  501 -0.00000000000E+00 -0.00000000000E+00 -0.22449753364E+04  0.22449753364E+04  0.00000000000E+00 0.  1.
         23    2    1    2    0    0 -0.15939155296E+04  0.31371876989E+03 -0.10739483899E+03  0.16306014152E+04  0.91329851360E+02 0.  0.
         11    1    3    3    0    0 -0.30129599968E+03  0.24689259958E+02 -0.96260599986E+01  0.30245908816E+03  0.00000000000E+00 0. -1.
        -11    1    3    3    0    0 -0.12926195299E+04  0.28902950993E+03 -0.97768778994E+02  0.13281423271E+04  0.00000000000E+00 0.  1.
         22    1    1    2    0    0  0.15939155296E+04 -0.31371876989E+03 -0.89650230150E+03  0.18554521171E+04  0.00000000000E+00 0. -1.
<mgrwt>
<rscale>  0 0.33383768E+04</rscale>
<asrwt>0</asrwt>
<pdfrwt beam="1">  1        1 0.19093511E+00 0.33383768E+04</pdfrwt>
<pdfrwt beam="2">  1       -1 0.34538082E+00 0.33383768E+04</pdfrwt>
<totfact> 0.13745600E-01</totfact>
</mgrwt>
</event>
<event>
 6    1  0.9364335E-007  0.1287933E+04  0.7818608E-02  0.9039189E-01
          2   -1    0    0  501    0  0.00000000000E+00  0.00000000000E+00  0.79271770953E+03  0.79271770953E+03  0.00000000000E+00 0. -1.
         -2   -1    0    0    0  501 -0.00000000000E+00 -0.00000000000E+00 -0.52312806232E+03  0.52312806232E+03  0.00000000000E+00 0.  1.
         23    2    1    2    0    0 -0.10341769531E+03 -0.13071532578E+03 -0.49659472420E+03  0.53174105492E+03  0.91435842461E+02 0.  0.
         11    1    3    3    0    0 -0.10888425846E+03 -0.10393247863E+03 -0.32730516628E+03  0.36025881492E+03  0.00000000000E+00 0.  1.
        -11    1    3    3    0    0  0.54665631495E+01 -0.26782847151E+02 -0.16928955792E+03  0.17148224000E+03  0.00000000000E+00 0. -1.
         22    1    1    2    0    0  0.10341769531E+03  0.13071532578E+03  0.76618437142E+03  0.78410471693E+03  0.00000000000E+00 0. -1.
<mgrwt>
<rscale>  0 0.12879330E+04</rscale>
<asrwt>0</asrwt>
<pdfrwt beam="1">  1        2 0.12195657E+00 0.12879330E+04</pdfrwt>
<pdfrwt beam="2">  1       -2 0.80481240E-01 0.12879330E+04</pdfrwt>
<totfact> 0.46666630E+01</totfact>
</mgrwt>
</event>
<event>
 6    1  0.9364335E-007  0.2941447E+04  0.7818608E-02  0.8260651E-01
         -2   -1    0    0    0  501 -0.00000000000E+00  0.00000000000E+00  0.15795036091E+04  0.15795036091E+04  0.00000000000E+00 0.  1.
          2   -1    0    0  501    0  0.00000000000E+00 -0.00000000000E+00 -0.13694351742E+04  0.13694351742E+04  0.00000000000E+00 0. -1.
         23    2    1    2    0    0 -0.85852287799E+03 -0.10363565258E+04  0.69635300183E+03  0.15180058497E+04  0.91311970578E+02 0.  0.
         13    1    3    3    0    0 -0.51750348662E+03 -0.55672579326E+03  0.37777625655E+03  0.84880408079E+03  0.00000000000E+00 0. -1.
        -13    1    3    3    0    0 -0.34101939137E+03 -0.47963073256E+03  0.31857674528E+03  0.66920176893E+03  0.00000000000E+00 0.  1.
         22    1    1    2    0    0  0.85852287799E+03  0.10363565258E+04 -0.48628456693E+03  0.14309329337E+04  0.00000000000E+00 0. -1.
<mgrwt>
<rscale>  0 0.29414471E+04</rscale>
<asrwt>0</asrwt>
<pdfrwt beam="1">  1        2 0.21068234E+00 0.29414471E+04</pdfrwt>
<pdfrwt beam="2">  1       -2 0.24300055E+00 0.29414471E+04</pdfrwt>
<totfact> 0.91988557E-01</totfact>
</mgrwt>
</event>
<event>
 6    1  0.9364335E-007  0.3493376E+04  0.7818608E-02  0.8115362E-01
         -2   -1    0    0    0  501 -0.00000000000E+00  0.00000000000E+00  0.18506411180E+04  0.18506411180E+04  0.00000000000E+00 0.  1.
          2   -1    0    0  501    0  0.00000000000E+00 -0.00000000000E+00 -0.16485738783E+04  0.16485738783E+04  0.00000000000E+00 0. -1.
         23    2    1    2    0    0 -0.13863597072E+04 -0.47387415360E+03  0.10513896220E+04  0.18057279252E+04  0.93183964427E+02 0.  0.
         11    1    3    3    0    0 -0.97376046035E+03 -0.31796262411E+03  0.68452986384E+03  0.12320271097E+04  0.00000000000E+00 0.  1.
        -11    1    3    3    0    0 -0.41259924687E+03 -0.15591152949E+03  0.36685975816E+03  0.57370081550E+03  0.00000000000E+00 0. -1.
         22    1    1    2    0    0  0.13863597072E+04  0.47387415360E+03 -0.84932238226E+03  0.16934870712E+04  0.00000000000E+00 0. -1.
<mgrwt>
<rscale>  0 0.34933758E+04</rscale>
<asrwt>0</asrwt>
<pdfrwt beam="1">  1        2 0.25362675E+00 0.34933758E+04</pdfrwt>
<pdfrwt beam="2">  1       -2 0.28471402E+00 0.34933758E+04</pdfrwt>
<totfact> 0.33945753E-01</totfact>
</mgrwt>
</event>
<event>
 6    1  0.9364335E-007  0.4036767E+04  0.7818608E-02  0.7997170E-01
         -2   -1    0    0    0  501 -0.00000000000E+00  0.00000000000E+00  0.12711657948E+04  0.12711657948E+04  0.00000000000E+00 0.  1.
          2   -1    0    0  501    0  0.00000000000E+00 -0.00000000000E+00 -0.32048312459E+04  0.32048312459E+04  0.00000000000E+00 0. -1.
         23    2    1    2    0    0 -0.40452087780E+03 -0.15718534815E+04 -0.22958139344E+04  0.28130141690E+04  0.89031374180E+02 0.  0.
         13    1    3    3    0    0 -0.26796335479E+03 -0.89895574450E+03 -0.13703889047E+04  0.16606900795E+04  0.00000000000E+00 0.  1.
        -13    1    3    3    0    0 -0.13655752300E+03 -0.67289773702E+03 -0.92542502973E+03  0.11523240895E+04  0.00000000000E+00 0. -1.
         22    1    1    2    0    0  0.40452087780E+03  0.15718534815E+04  0.36214848330E+03  0.16629828718E+04  0.00000000000E+00 0.  1.
<mgrwt>
<rscale>  0 0.40367670E+04</rscale>
<asrwt>0</asrwt>
<pdfrwt beam="1">  1        2 0.49305096E+00 0.40367670E+04</pdfrwt>
<pdfrwt beam="2">  1       -2 0.19556397E+00 0.40367670E+04</pdfrwt>
<totfact> 0.14392779E-01</totfact>
</mgrwt>
</event>
<event>
 6    1  0.9364335E-007  0.3753832E+04  0.7818608E-02  0.8056136E-01
          2   -1    0    0  501    0  0.00000000000E+00  0.00000000000E+00  0.32996748756E+04  0.32996748756E+04  0.00000000000E+00 0. -1.
         -2   -1    0    0    0  501 -0.00000000000E+00 -0.00000000000E+00 -0.10676243966E+04  0.10676243966E+04  0.00000000000E+00 0.  1.
         23    2    1    2    0    0 -0.13996093637E+04 -0.59712186309E+03 -0.15959438826E+03  0.15326165631E+04  0.89343553408E+02 0.  0.
         11    1    3    3    0    0 -0.44790460190E+03 -0.14621684413E+03 -0.49138983955E+02  0.47372200461E+03  0.00000000000E+00 0. -1.
        -11    1    3    3    0    0 -0.95170476179E+03 -0.45090501895E+03 -0.11045540431E+03  0.10588945585E+04  0.00000000000E+00 0.  1.
         22    1    1    2    0    0  0.13996093637E+04  0.59712186309E+03  0.23916448672E+04  0.28346827091E+04  0.00000000000E+00 0. -1.
<mgrwt>
<rscale>  0 0.37538319E+04</rscale>
<asrwt>0</asrwt>
<pdfrwt beam="1">  1        2 0.50764228E+00 0.37538319E+04</pdfrwt>
<pdfrwt beam="2">  1       -2 0.16424991E+00 0.37538319E+04</pdfrwt>
<totfact> 0.21001196E-01</totfact>
</mgrwt>
</event>
<event>
 6    1  0.9364335E-007  0.1976773E+04  0.7818608E-02  0.8617558E-01
          2   -1    0    0  501    0  0.00000000000E+00  0.00000000000E+00  0.18061139809E+04  0.18061139809E+04  0.00000000000E+00 0. -1.
         -2   -1    0    0    0  501 -0.00000000000E+00 -0.00000000000E+00 -0.54088924311E+03  0.54088924311E+03  0.00000000000E+00 0.  1.
         23    2    1    2    0    0  0.17813728472E+03 -0.65885080832E+03 -0.21130888623E+03  0.72035980190E+03  0.91921264968E+02 0.  0.
         13    1    3    3    0    0  0.65819201277E+02 -0.14704047650E+03 -0.19092729883E+02  0.16222700553E+03  0.00000000000E+00 0. -1.
        -13    1    3    3    0    0  0.11231808345E+03 -0.51181033182E+03 -0.19221615634E+03  0.55813279637E+03  0.00000000000E+00 0.  1.
         22    1    1    2    0    0 -0.17813728472E+03  0.65885080832E+03  0.14765336240E+04  0.16266434221E+04  0.00000000000E+00 0. -1.
<mgrwt>
<rscale>  0 0.19767727E+04</rscale>
<asrwt>0</asrwt>
<pdfrwt beam="1">  1        2 0.27786369E+00 0.19767727E+04</pdfrwt>
<pdfrwt beam="2">  1       -2 0.83213731E-01 0.19767727E+04</pdfrwt>
<totfact> 0.10076653E+01</totfact>
</mgrwt>
</event>
<event>
 6    1  0.9364335E-007  0.2157243E+04  0.7818608E-02  0.8536438E-01
         -2   -1    0    0    0  501 -0.00000000000E+00  0.00000000000E+00  0.75955409379E+03  0.75955409379E+03  0.00000000000E+00 0.  1.
          2   -1    0    0  501    0  0.00000000000E+00 -0.00000000000E+00 -0.15317197201E+04  0.15317197201E+04  0.00000000000E+00 0. -1.
         23    2    1    2    0    0  0.70832435056E+02  0.79036415930E+03 -0.11597445773E+04  0.14081485784E+04  0.90455492921E+02 0.  0.
         11    1    3    3    0    0  0.46063572716E+02  0.17146699705E+03 -0.29836751607E+03  0.34719729039E+03  0.00000000000E+00 0.  1.
        -11    1    3    3    0    0  0.24768862340E+02  0.61889716225E+03 -0.86137706124E+03  0.10609512881E+04  0.00000000000E+00 0. -1.
         22    1    1    2    0    0 -0.70832435056E+02 -0.79036415930E+03  0.38757895102E+03  0.88312523542E+03  0.00000000000E+00 0.  1.
<mgrwt>
<rscale>  0 0.21572427E+04</rscale>
<asrwt>0</asrwt>
<pdfrwt beam="1">  1        2 0.23564919E+00 0.21572427E+04</pdfrwt>
<pdfrwt beam="2">  1       -2 0.11685448E+00 0.21572427E+04</pdfrwt>
<totfact> 0.63363038E+00</totfact>
</mgrwt>
</event>
<event>
 6    1  0.9364335E-007  0.6053198E+03  0.7818608E-02  0.9894430E-01
          2   -1    0    0  501    0  0.00000000000E+00  0.00000000000E+00  0.33150576314E+03  0.33150576314E+03  0.00000000000E+00 0. -1.
         -2   -1    0    0    0  501 -0.00000000000E+00 -0.00000000000E+00 -0.27632407860E+03  0.27632407860E+03  0.00000000000E+00 0.  1.
         23    2    1    2    0    0 -0.76215192209E+02 -0.24245052788E+03  0.18092700546E+03  0.32427579094E+03  0.88482728781E+02 0.  0.
         13    1    3    3    0    0 -0.30392328153E+02 -0.16531955746E+03  0.71219347704E+02  0.18255532086E+03  0.00000000000E+00 0. -1.
        -13    1    3    3    0    0 -0.45822864057E+02 -0.77130970426E+02  0.10970765775E+03  0.14172047008E+03  0.00000000000E+00 0.  1.
         22    1    1    2    0    0  0.76215192209E+02  0.24245052788E+03 -0.12574532092E+03  0.28355405080E+03  0.00000000000E+00 0.  1.
<mgrwt>
<rscale>  0 0.60531983E+03</rscale>
<asrwt>0</asrwt>
<pdfrwt beam="1">  1        2 0.51000886E-01 0.60531983E+03</pdfrwt>
<pdfrwt beam="2">  1       -2 0.42511397E-01 0.60531983E+03</pdfrwt>
<totfact> 0.51924240E+02</totfact>
</mgrwt>
</event>
<event>
 6    1  0.9364335E-007  0.4577144E+03  0.7818608E-02  0.1025446E+00
         -1   -1    0    0    0  501 -0.00000000000E+00  0.00000000000E+00  0.78907369320E+02  0.78907369320E+02  0.00000000000E+00 0.  1.
          1   -1    0    0  501    0  0.00000000000E+00 -0.00000000000E+00 -0.66376072584E+03  0.66376072584E+03  0.00000000000E+00 0. -1.
         23    2    1    2    0    0 -0.52409497775E+02 -0.20538337124E+03 -0.39784647360E+03  0.46000104915E+03  0.91597292658E+02 0.  0.
         13    1    3    3    0    0 -0.11867219773E+02 -0.15536750635E+03 -0.33760396573E+03  0.37182836176E+03  0.00000000000E+00 0. -1.
        -13    1    3    3    0    0 -0.40542278001E+02 -0.50015864894E+02 -0.60242507872E+02  0.88172687389E+02  0.00000000000E+00 0.  1.
         22    1    1    2    0    0  0.52409497775E+02  0.20538337124E+03 -0.18700688292E+03  0.28266704601E+03  0.00000000000E+00 0. -1.
<mgrwt>
<rscale>  0 0.45771438E+03</rscale>
<asrwt>0</asrwt>
<pdfrwt beam="1">  1        1 0.10211703E+00 0.45771438E+03</pdfrwt>
<pdfrwt beam="2">  1       -1 0.12139596E-01 0.45771438E+03</pdfrwt>
<totfact> 0.13723799E+03</totfact>
</mgrwt>
</event>
<event>
 6    1  0.9364335E-007  0.5442732E+04  0.7818608E-02  0.7763619E-01
         -2   -1    0    0    0  501 -0.00000000000E+00  0.00000000000E+00  0.37122411290E+04  0.37122411290E+04  0.00000000000E+00 0.  1.
          2   -1    0    0  501    0  0.00000000000E+00 -0.00000000000E+00 -0.19949765214E+04  0.19949765214E+04  0.00000000000E+00 0. -1.
         23    2    1    2    0    0 -0.22445620059E+04  0.15137607450E+04  0.11405507560E+04  0.29391625466E+04  0.91050847824E+02 0.  0.
         11    1    3    3    0    0 -0.65821301405E+03  0.44580136582E+03  0.38014207085E+03  0.88118739418E+03  0.00000000000E+00 0. -1.
        -11    1    3    3    0    0 -0.15863489918E+04  0.10679593791E+04  0.76040868510E+03  0.20579751524E+04  0.00000000000E+00 0.  1.
         22    1    1    2    0    0  0.22445620059E+04 -0.15137607450E+04  0.57671385163E+03  0.27680551039E+04  0.00000000000E+00 0. -1.
<mgrwt>
<rscale>  0 0.54427324E+04</rscale>
<asrwt>0</asrwt>
<pdfrwt beam="1">  1        2 0.30691947E+00 0.54427324E+04</pdfrwt>
<pdfrwt beam="2">  1       -2 0.57111402E+00 0.54427324E+04</pdfrwt>
<totfact> 0.32322611E-03</totfact>
</mgrwt>
</event>
<event>
 6    1  0.9364335E-007  0.5584264E+04  0.7818608E-02  0.7744200E-01
          1   -1    0    0  501    0  0.00000000000E+00  0.00000000000E+00  0.36608886013E+04  0.36608886013E+04  0.00000000000E+00 0. -1.
         -1   -1    0    0    0  501 -0.00000000000E+00 -0.00000000000E+00 -0.21295376289E+04  0.21295376289E+04  0.00000000000E+00 0.  1.
         23    2    1    2    0    0 -0.29881924815E+03 -0.81886393238E+03 -0.19838347069E+04  0.21687744740E+04  0.90285612455E+02 0.  0.
         11    1    3    3    0    0 -0.42311774525E+02 -0.49294635355E+02 -0.15931156244E+03  0.17204772961E+03  0.00000000000E+00 0.  1.
        -11    1    3    3    0    0 -0.25650747363E+03 -0.76956929702E+03 -0.18245231445E+04  0.19967267444E+04  0.00000000000E+00 0. -1.
         22    1    1    2    0    0  0.29881924815E+03  0.81886393238E+03  0.35151856793E+04  0.36216517562E+04  0.00000000000E+00 0. -1.
<mgrwt>
<rscale>  0 0.55842636E+04</rscale>
<asrwt>0</asrwt>
<pdfrwt beam="1">  1        1 0.56321363E+00 0.55842636E+04</pdfrwt>
<pdfrwt beam="2">  1       -1 0.32762117E+00 0.55842636E+04</pdfrwt>
<totfact> 0.27898429E-03</totfact>
</mgrwt>
</event>
<event>
 6    1  0.9364335E-007  0.1178307E+04  0.7818608E-02  0.9132059E-01
          1   -1    0    0  501    0  0.00000000000E+00  0.00000000000E+00  0.18457629051E+03  0.18457629051E+03  0.00000000000E+00 0. -1.
         -1   -1    0    0    0  501 -0.00000000000E+00 -0.00000000000E+00 -0.18805341807E+04  0.18805341807E+04  0.00000000000E+00 0.  1.
         23    2    1    2    0    0  0.36253235493E+03  0.11872424394E+03 -0.72910193014E+02  0.39783455470E+03  0.86204884993E+02 0.  0.
         13    1    3    3    0    0  0.44465526173E+02  0.44253892555E+02  0.16864776564E+01  0.62756945680E+02  0.00000000000E+00 0. -1.
        -13    1    3    3    0    0  0.31806682875E+03  0.74470351384E+02 -0.74596670670E+02  0.33507760902E+03  0.00000000000E+00 0.  1.
         22    1    1    2    0    0 -0.36253235493E+03 -0.11872424394E+03 -0.16230476972E+04  0.16672759165E+04  0.00000000000E+00 0.  1.
<mgrwt>
<rscale>  0 0.11783073E+04</rscale>
<asrwt>0</asrwt>
<pdfrwt beam="1">  1        1 0.28396353E-01 0.11783073E+04</pdfrwt>
<pdfrwt beam="2">  1       -1 0.28931294E+00 0.11783073E+04</pdfrwt>
<totfact> 0.63827875E+00</totfact>
</mgrwt>
</event>
<event>
 6    1  0.9364335E-007  0.1252004E+04  0.7818608E-02  0.9068517E-01
         -2   -1    0    0    0  501 -0.00000000000E+00  0.00000000000E+00  0.20257966973E+03  0.20257966973E+03  0.00000000000E+00 0.  1.
          2   -1    0    0  501    0  0.00000000000E+00 -0.00000000000E+00 -0.19344399476E+04  0.19344399476E+04  0.00000000000E+00 0. -1.
         23    2    1    2    0    0  0.34584925515E+03 -0.15907623056E+03 -0.29014533758E+02  0.39214123113E+03  0.89531824290E+02 0.  0.
         11    1    3    3    0    0  0.20375421628E+03 -0.44731927846E+02 -0.11749813950E+02  0.20893727324E+03  0.00000000000E+00 0.  1.
        -11    1    3    3    0    0  0.14209503888E+03 -0.11434430272E+03 -0.17264719808E+02  0.18320395789E+03  0.00000000000E+00 0. -1.
         22    1    1    2    0    0 -0.34584925515E+03  0.15907623056E+03 -0.17028457441E+04  0.17448783862E+04  0.00000000000E+00 0. -1.
<mgrwt>
<rscale>  0 0.12520035E+04</rscale>
<asrwt>0</asrwt>
<pdfrwt beam="1">  1        2 0.29760614E+00 0.12520035E+04</pdfrwt>
<pdfrwt beam="2">  1       -2 0.31166103E-01 0.12520035E+04</pdfrwt>
<totfact> 0.68268190E+01</totfact>
</mgrwt>
</event>
<event>
 6    1  0.9364335E-007  0.1699661E+04  0.7818608E-02  0.8761558E-01
          2   -1    0    0  501    0  0.00000000000E+00  0.00000000000E+00  0.20754959903E+04  0.20754959903E+04  0.00000000000E+00 0. -1.
         -2   -1    0    0    0  501 -0.00000000000E+00 -0.00000000000E+00 -0.34797067503E+03  0.34797067503E+03  0.00000000000E+00 0.  1.
         23    2    1    2    0    0 -0.34504417887E+03 -0.66248241389E+03  0.14368708393E+04  0.16219565540E+04  0.90591501441E+02 0.  0.
         13    1    3    3    0    0 -0.15502064967E+03 -0.39390647281E+03  0.79459238640E+03  0.90031703953E+03  0.00000000000E+00 0.  1.
        -13    1    3    3    0    0 -0.19002352920E+03 -0.26857594108E+03  0.64227845293E+03  0.72163951449E+03  0.00000000000E+00 0. -1.
         22    1    1    2    0    0  0.34504417887E+03  0.66248241389E+03  0.29065447590E+03  0.80151011126E+03  0.00000000000E+00 0.  1.
<mgrwt>
<rscale>  0 0.16996608E+04</rscale>
<asrwt>0</asrwt>
<pdfrwt beam="1">  1        2 0.31930707E+00 0.16996608E+04</pdfrwt>
<pdfrwt beam="2">  1       -2 0.53533951E-01 0.16996608E+04</pdfrwt>
<totfact> 0.18979586E+01</totfact>
</mgrwt>
</event>
<event>
 6    1  0.9364335E-007  0.4926976E+03  0.7818608E-02  0.1015703E+00
          1   -1    0    0  501    0  0.00000000000E+00  0.00000000000E+00  0.48961140492E+03  0.48961140492E+03  0.00000000000E+00 0. -1.
         -1   -1    0    0    0  501 -0.00000000000E+00 -0.00000000000E+00 -0.12395081065E+03  0.12395081065E+03  0.00000000000E+00 0.  1.
         23    2    1    2    0    0  0.33984041162E+02 -0.23359384838E+03  0.15304826805E+03  0.29587525909E+03  0.91637304275E+02 0.  0.
         13    1    3    3    0    0 -0.20533434686E+02 -0.11020381646E+03  0.37352016307E+02  0.11815953717E+03  0.00000000000E+00 0.  1.
        -13    1    3    3    0    0  0.54517475848E+02 -0.12339003191E+03  0.11569625174E+03  0.17771572191E+03  0.00000000000E+00 0. -1.
         22    1    1    2    0    0 -0.33984041162E+02  0.23359384838E+03  0.21261232623E+03  0.31768695648E+03  0.00000000000E+00 0. -1.
<mgrwt>
<rscale>  0 0.49269760E+03</rscale>
<asrwt>0</asrwt>
<pdfrwt beam="1">  1        1 0.75324831E-01 0.49269760E+03</pdfrwt>
<pdfrwt beam="2">  1       -1 0.19069356E-01 0.49269760E+03</pdfrwt>
<totfact> 0.10140714E+03</totfact>
</mgrwt>
</event>
<event>
 6    1  0.9364335E-007  0.3782961E+04  0.7818608E-02  0.8049821E-01
         -1   -1    0    0    0  501 -0.00000000000E+00  0.00000000000E+00  0.12008721478E+04  0.12008721478E+04  0.00000000000E+00 0.  1.
          1   -1    0    0  501    0  0.00000000000E+00 -0.00000000000E+00 -0.29792494831E+04  0.29792494831E+04  0.00000000000E+00 0. -1.
         23    2    1    2    0    0 -0.14474188562E+04  0.10754088500E+04 -0.26206630066E+03  0.18241240303E+04  0.84995245948E+02 0.  0.
         11    1    3    3    0    0 -0.67548745829E+03  0.45231080572E+03 -0.10355597829E+03  0.81950729827E+03  0.00000000000E+00 0. -1.
        -11    1    3    3    0    0 -0.77193139792E+03  0.62309804431E+03 -0.15851032237E+03  0.10046167320E+04  0.00000000000E+00 0.  1.
         22    1    1    2    0    0  0.14474188562E+04 -0.10754088500E+04 -0.15163110347E+04  0.23559976006E+04  0.00000000000E+00 0. -1.
<mgrwt>
<rscale>  0 0.37829606E+04</rscale>
<asrwt>0</asrwt>
<pdfrwt beam="1">  1        1 0.45834607E+00 0.37829606E+04</pdfrwt>
<pdfrwt beam="2">  1       -1 0.18474956E+00 0.37829606E+04</pdfrwt>
<totfact> 0.94858748E-02</totfact>
</mgrwt>
</event>
<event>
 6    1  0.9364335E-007  0.3479237E+04  0.7818608E-02  0.8118728E-01
          2   -1    0    0  501    0  0.00000000000E+00  0.00000000000E+00  0.26436559953E+04  0.26436559953E+04  0.00000000000E+00 0. -1.
         -2   -1    0    0    0  501 -0.00000000000E+00 -0.00000000000E+00 -0.11447303149E+04  0.11447303149E+04  0.00000000000E+00 0.  1.
         23    2    1    2    0    0 -0.20330714566E+02  0.13290423057E+04  0.19700628924E+04  0.23781604201E+04  0.87934040452E+02 0.  0.
         11    1    3    3    0    0  0.10984721467E+02  0.22069478941E+03  0.38226498023E+03  0.44153524127E+03  0.00000000000E+00 0. -1.
        -11    1    3    3    0    0 -0.31315436033E+02  0.11083475163E+04  0.15877979122E+04  0.19366251788E+04  0.00000000000E+00 0.  1.
         22    1    1    2    0    0  0.20330714566E+02 -0.13290423057E+04 -0.47113721198E+03  0.14102258900E+04  0.00000000000E+00 0.  1.
<mgrwt>
<rscale>  0 0.34792374E+04</rscale>
<asrwt>0</asrwt>
<pdfrwt beam="1">  1        2 0.40671631E+00 0.34792374E+04</pdfrwt>
<pdfrwt beam="2">  1       -2 0.17611236E+00 0.34792374E+04</pdfrwt>
<totfact> 0.45547163E-01</totfact>
</mgrwt>
</event>
<event>
 6    1  0.9364335E-007  0.1732916E+04  0.7818608E-02  0.8742810E-01
          2   -1    0    0  501    0  0.00000000000E+00  0.00000000000E+00  0.17171635505E+04  0.17171635505E+04  0.00000000000E+00 0. -1.
         -2   -1    0    0    0  501 -0.00000000000E+00 -0.00000000000E+00 -0.43720341254E+03  0.43720341254E+03  0.00000000000E+00 0.  1.
         23    2    1    2    0    0 -0.15627431043E+03  0.45801931133E+03  0.15317590254E+04  0.16088341690E+04  0.88647175969E+02 0.  0.
         13    1    3    3    0    0 -0.15835810936E+02  0.16310630327E+03  0.45442629257E+03  0.48307110703E+03  0.00000000000E+00 0. -1.
        -13    1    3    3    0    0 -0.14043849950E+03  0.29491300806E+03  0.10773327328E+04  0.11257630619E+04  0.00000000000E+00 0.  1.
         22    1    1    2    0    0  0.15627431043E+03 -0.45801931133E+03 -0.25179888744E+03  0.54553279404E+03  0.00000000000E+00 0.  1.
<mgrwt>
<rscale>  0 0.17329163E+04</rscale>
<asrwt>0</asrwt>
<pdfrwt beam="1">  1        2 0.26417901E+00 0.17329163E+04</pdfrwt>
<pdfrwt beam="2">  1       -2 0.67262064E-01 0.17329163E+04</pdfrwt>
<totfact> 0.18460038E+01</totfact>
</mgrwt>
</event>
<event>
 6    1  0.9364335E-007  0.1151965E+04  0.7818608E-02  0.9155973E-01
          2   -1    0    0  501    0  0.00000000000E+00  0.00000000000E+00  0.92563941325E+03  0.92563941325E+03  0.00000000000E+00 0. -1.
         -2   -1    0    0    0  501 -0.00000000000E+00 -0.00000000000E+00 -0.35840717633E+03  0.35840717633E+03  0.00000000000E+00 0.  1.
         23    2    1    2    0    0 -0.36333064667E+02 -0.26550284035E+03 -0.27854773253E+03  0.39682868707E+03  0.89846078174E+02 0.  0.
         11    1    3    3    0    0 -0.33861723758E+02 -0.77560540388E+02 -0.13897552644E+03  0.16271585881E+03  0.00000000000E+00 0.  1.
        -11    1    3    3    0    0 -0.24713409093E+01 -0.18794229996E+03 -0.13957220609E+03  0.23411282826E+03  0.00000000000E+00 0. -1.
         22    1    1    2    0    0  0.36333064667E+02  0.26550284035E+03  0.84577996944E+03  0.88721790251E+03  0.00000000000E+00 0. -1.
<mgrwt>
<rscale>  0 0.11519649E+04</rscale>
<asrwt>0</asrwt>
<pdfrwt beam="1">  1        2 0.14240606E+00 0.11519649E+04</pdfrwt>
<pdfrwt beam="2">  1       -2 0.55139566E-01 0.11519649E+04</pdfrwt>
<totfact> 0.86261120E+01</totfact>
</mgrwt>
</event>
<event>
 6    1  0.9364335E-007  0.2061193E+04  0.7818608E-02  0.8578533E-01
         -1   -1    0    0    0  501 -0.00000000000E+00  0.00000000000E+00  0.22578635912E+04  0.22578635912E+04  0.00000000000E+00 0.  1.
          1   -1    0    0  501    0  0.00000000000E+00 -0.00000000000E+00 -0.47041346548E+03  0.47041346548E+03  0.00000000000E+00 0. -1.
         23    2    1    2    0    0 -0.84352773957E+02 -0.88204934059E+02  0.22472759718E+04  0.22525299498E+04  0.93522085836E+02 0.  0.
         13    1    3    3    0    0 -0.10250136849E+03 -0.56126830284E+02  0.17303321501E+04  0.17342739407E+04  0.00000000000E+00 0. -1.
        -13    1    3    3    0    0  0.18148594533E+02 -0.32078103776E+02  0.51694382170E+03  0.51825600915E+03  0.00000000000E+00 0.  1.
         22    1    1    2    0    0  0.84352773957E+02  0.88204934059E+02 -0.45982584614E+03  0.47574710681E+03  0.00000000000E+00 0. -1.
<mgrwt>
<rscale>  0 0.20611933E+04</rscale>
<asrwt>0</asrwt>
<pdfrwt beam="1">  1        1 0.72371304E-01 0.20611933E+04</pdfrwt>
<pdfrwt beam="2">  1       -1 0.34736362E+00 0.20611933E+04</pdfrwt>
<totfact> 0.72040998E-01</totfact>
</mgrwt>
</event>
<event>
 6    1  0.9364335E-007  0.2227501E+04  0.7818608E-02  0.8507068E-01
         -2   -1    0    0    0  501 -0.00000000000E+00  0.00000000000E+00  0.16116277782E+04  0.16116277782E+04  0.00000000000E+00 0.  1.
          2   -1    0    0  501    0  0.00000000000E+00 -0.00000000000E+00 -0.76968156949E+03  0.76968156949E+03  0.00000000000E+00 0. -1.
         23    2    1    2    0    0 -0.29754125162E+02 -0.31347465893E+03 -0.71824996670E+03  0.78965493309E+03  0.92305086188E+02 0.  0.
         11    1    3    3    0    0 -0.33261138683E+02 -0.31920716797E+02 -0.87247773618E+02  0.98678313264E+02  0.00000000000E+00 0. -1.
        -11    1    3    3    0    0  0.35070135208E+01 -0.28155394214E+03 -0.63100219308E+03  0.69097661983E+03  0.00000000000E+00 0.  1.
         22    1    1    2    0    0  0.29754125162E+02  0.31347465893E+03  0.15601961754E+04  0.15916544146E+04  0.00000000000E+00 0.  1.
<mgrwt>
<rscale>  0 0.22275010E+04</rscale>
<asrwt>0</asrwt>
<pdfrwt beam="1">  1        2 0.11841255E+00 0.22275010E+04</pdfrwt>
<pdfrwt beam="2">  1       -2 0.24794274E+00 0.22275010E+04</pdfrwt>
<totfact> 0.21870391E+00</totfact>
</mgrwt>
</event>
<event>
 6    1  0.9364335E-007  0.4146213E+04  0.7818608E-02  0.7975683E-01
          1   -1    0    0  501    0  0.00000000000E+00  0.00000000000E+00  0.18603813880E+04  0.18603813880E+04  0.00000000000E+00 0. -1.
         -1   -1    0    0    0  501 -0.00000000000E+00 -0.00000000000E+00 -0.23101551849E+04  0.23101551849E+04  0.00000000000E+00 0.  1.
         23    2    1    2    0    0 -0.37934937944E+03  0.20355092088E+04 -0.14434449578E+03  0.20775743781E+04  0.90974020794E+02 0.  0.
         13    1    3    3    0    0 -0.19185766557E+03  0.92974134362E+03 -0.24595122055E+02  0.94964901406E+03  0.00000000000E+00 0. -1.
        -13    1    3    3    0    0 -0.18749171387E+03  0.11057678652E+04 -0.11974937372E+03  0.11279253641E+04  0.00000000000E+00 0.  1.
         22    1    1    2    0    0  0.37934937944E+03 -0.20355092088E+04 -0.30542930109E+03  0.20929621948E+04  0.00000000000E+00 0.  1.
<mgrwt>
<rscale>  0 0.41462126E+04</rscale>
<asrwt>0</asrwt>
<pdfrwt beam="1">  1        1 0.28621252E+00 0.41462126E+04</pdfrwt>
<pdfrwt beam="2">  1       -1 0.35540849E+00 0.41462126E+04</pdfrwt>
<totfact> 0.40991799E-02</totfact>
</mgrwt>
</event>
<event>
 6    1  0.9364335E-007  0.8408785E+03  0.7818608E-02  0.9502662E-01
          2   -1    0    0  501    0  0.00000000000E+00  0.00000000000E+00  0.69149942698E+03  0.69149942698E+03  0.00000000000E+00 0. -1.
         -2   -1    0    0    0  501 -0.00000000000E+00 -0.00000000000E+00 -0.25563165876E+03  0.25563165876E+03  0.00000000000E+00 0.  1.
         23    2    1    2    0    0  0.27611374785E+03 -0.19650283621E+02 -0.12838782540E+03  0.31863342439E+03  0.91754509560E+02 0.  0.
         11    1    3    3    0    0  0.44941931999E+02  0.31449831921E+02 -0.25513018508E+02  0.60496142795E+02  0.00000000000E+00 0. -1.
        -11    1    3    3    0    0  0.23117181586E+03 -0.51100115542E+02 -0.10287480689E+03  0.25813728159E+03  0.00000000000E+00 0.  1.
         22    1    1    2    0    0 -0.27611374785E+03  0.19650283621E+02  0.56425559361E+03  0.62849766135E+03  0.00000000000E+00 0. -1.
<mgrwt>
<rscale>  0 0.84087846E+03</rscale>
<asrwt>0</asrwt>
<pdfrwt beam="1">  1        2 0.10638453E+00 0.84087846E+03</pdfrwt>
<pdfrwt beam="2">  1       -2 0.39327948E-01 0.84087846E+03</pdfrwt>
<totfact> 0.25554852E+02</totfact>
</mgrwt>
</event>
<event>
 6    1  0.9364335E-007  0.2641075E+04  0.7818608E-02  0.8354381E-01
          2   -1    0    0  501    0  0.00000000000E+00  0.00000000000E+00  0.11465265430E+04  0.11465265430E+04  0.00000000000E+00 0. -1.
         -2   -1    0    0    0  501 -0.00000000000E+00 -0.00000000000E+00 -0.15209589497E+04  0.15209589497E+04  0.00000000000E+00 0.  1.
         23    2    1    2    0    0  0.10000705534E+04 -0.81252482448E+03  0.97147134352E+02  0.12953612397E+04  0.90473605089E+02 0.  0.
         13    1    3    3    0    0  0.46381681032E+02 -0.18810693601E+02  0.13170904137E+02  0.51754953820E+02  0.00000000000E+00 0. -1.
        -13    1    3    3    0    0  0.95368887242E+03 -0.79371413088E+03  0.83976230214E+02  0.12436062858E+04  0.00000000000E+00 0.  1.
         22    1    1    2    0    0 -0.10000705534E+04  0.81252482448E+03 -0.47157954104E+03  0.13721242530E+04  0.00000000000E+00 0.  1.
<mgrwt>
<rscale>  0 0.26410754E+04</rscale>
<asrwt>0</asrwt>
<pdfrwt beam="1">  1        2 0.17638870E+00 0.26410754E+04</pdfrwt>
<pdfrwt beam="2">  1       -2 0.23399369E+00 0.26410754E+04</pdfrwt>
<totfact> 0.14517537E+00</totfact>
</mgrwt>
</event>
<event>
 6    1  0.9364335E-007  0.1481559E+04  0.7818608E-02  0.8896810E-01
          2   -1    0    0  501    0  0.00000000000E+00  0.00000000000E+00  0.17831009523E+04  0.17831009523E+04  0.00000000000E+00 0. -1.
         -2   -1    0    0    0  501 -0.00000000000E+00 -0.00000000000E+00 -0.30775260060E+03  0.30775260060E+03  0.00000000000E+00 0.  1.
         23    2    1    2    0    0  0.18326306193E+03 -0.56895338926E+03  0.13510775565E+04  0.14803320221E+04  0.93161273931E+02 0.  0.
         11    1    3    3    0    0  0.32147064188E+02 -0.24633709053E+03  0.53318412475E+03  0.58821824758E+03  0.00000000000E+00 0. -1.
        -11    1    3    3    0    0  0.15111599775E+03 -0.32261629872E+03  0.81789343175E+03  0.89211377452E+03  0.00000000000E+00 0.  1.
         22    1    1    2    0    0 -0.18326306193E+03  0.56895338926E+03  0.12427079517E+03  0.61052153078E+03  0.00000000000E+00 0.  1.
<mgrwt>
<rscale>  0 0.14815586E+04</rscale>
<asrwt>0</asrwt>
<pdfrwt beam="1">  1        2 0.27432322E+00 0.14815586E+04</pdfrwt>
<pdfrwt beam="2">  1       -2 0.47346555E-01 0.14815586E+04</pdfrwt>
<totfact> 0.36065566E+01</totfact>
</mgrwt>
</event>
<event>
 6    1  0.9364335E-007  0.5019140E+04  0.7818608E-02  0.7825561E-01
          3   -1    0    0  501    0  0.00000000000E+00  0.00000000000E+00  0.19610343043E+04  0.19610343043E+04  0.00000000000E+00 0. -1.
         -3   -1    0    0    0  501 -0.00000000000E+00 -0.00000000000E+00 -0.32115409845E+04  0.32115409845E+04  0.00000000000E+00 0.  1.
         23    2    1    2    0    0 -0.84848562160E+03  0.23539625394E+04 -0.81143195312E+03  0.26321316065E+04  0.92884296851E+02 0.  0.
         11    1    3    3    0    0 -0.75343183249E+03  0.19955247957E+04 -0.69905848230E+03  0.22446517543E+04  0.00000000000E+00 0. -1.
        -11    1    3    3    0    0 -0.95053789113E+02  0.35843774367E+03 -0.11237347082E+03  0.38747985220E+03  0.00000000000E+00 0.  1.
         22    1    1    2    0    0  0.84848562160E+03 -0.23539625394E+04 -0.43907472712E+03  0.25404436823E+04  0.00000000000E+00 0.  1.
<mgrwt>
<rscale>  0 0.50191402E+04</rscale>
<asrwt>0</asrwt>
<pdfrwt beam="1">  1        3 0.30169759E+00 0.50191402E+04</pdfrwt>
<pdfrwt beam="2">  1       -3 0.49408323E+00 0.50191402E+04</pdfrwt>
<totfact> 0.23024496E-04</totfact>
</mgrwt>
</event>
<event>
 6    1  0.9364335E-007  0.4143710E+04  0.7818608E-02  0.7976167E-01
         -2   -1    0    0    0  501 -0.00000000000E+00  0.00000000000E+00  0.11386944777E+04  0.11386944777E+04  0.00000000000E+00 0.  1.
          2   -1    0    0  501    0  0.00000000000E+00 -0.00000000000E+00 -0.37697416003E+04  0.37697416003E+04  0.00000000000E+00 0. -1.
         23    2    1    2    0    0  0.61113154973E+03  0.93445741993E+03 -0.33820611958E+04  0.35628081284E+04  0.92581784583E+02 0.  0.
         11    1    3    3    0    0  0.88745551207E+02  0.20284274129E+03 -0.67398179306E+03  0.70941694928E+03  0.00000000000E+00 0. -1.
        -11    1    3    3    0    0  0.52238599852E+03  0.73161467864E+03 -0.27080794027E+04  0.28533911791E+04  0.00000000000E+00 0.  1.
         22    1    1    2    0    0 -0.61113154973E+03 -0.93445741993E+03  0.75101407319E+03  0.13456279496E+04  0.00000000000E+00 0.  1.
<mgrwt>
<rscale>  0 0.41437104E+04</rscale>
<asrwt>0</asrwt>
<pdfrwt beam="1">  1        2 0.57996025E+00 0.41437104E+04</pdfrwt>
<pdfrwt beam="2">  1       -2 0.17518376E+00 0.41437104E+04</pdfrwt>
<totfact> 0.78867642E-02</totfact>
</mgrwt>
</event>
<event>
 6    1  0.9364335E-007  0.1441633E+04  0.7818608E-02  0.8924222E-01
         -2   -1    0    0    0  501 -0.00000000000E+00  0.00000000000E+00  0.23833641237E+03  0.23833641237E+03  0.00000000000E+00 0.  1.
          2   -1    0    0  501    0  0.00000000000E+00 -0.00000000000E+00 -0.21800125238E+04  0.21800125238E+04  0.00000000000E+00 0. -1.
         23    2    1    2    0    0 -0.36332113902E+03 -0.53374853845E+03 -0.15018793608E+04  0.16371249387E+04  0.87445401266E+02 0.  0.
         11    1    3    3    0    0 -0.20169722876E+03 -0.24089647200E+03 -0.65070722813E+03  0.72258755805E+03  0.00000000000E+00 0. -1.
        -11    1    3    3    0    0 -0.16162391026E+03 -0.29285206645E+03 -0.85117213264E+03  0.91453738063E+03  0.00000000000E+00 0.  1.
         22    1    1    2    0    0  0.36332113902E+03  0.53374853845E+03 -0.43979675066E+03  0.78122399749E+03  0.00000000000E+00 0.  1.
<mgrwt>
<rscale>  0 0.14416329E+04</rscale>
<asrwt>0</asrwt>
<pdfrwt beam="1">  1        2 0.33538654E+00 0.14416329E+04</pdfrwt>
<pdfrwt beam="2">  1       -2 0.36667141E-01 0.14416329E+04</pdfrwt>
<totfact> 0.36066246E+01</totfact>
</mgrwt>
</event>
<event>
 6    1  0.9364335E-007  0.1143655E+04  0.7818608E-02  0.9163657E-01
         -2   -1    0    0    0  501 -0.00000000000E+00  0.00000000000E+00  0.26326672067E+03  0.26326672067E+03  0.00000000000E+00 0.  1.
          2   -1    0    0  501    0  0.00000000000E+00 -0.00000000000E+00 -0.12420364793E+04  0.12420364793E+04  0.00000000000E+00 0. -1.
         23    2    1    2    0    0 -0.47092622993E+03 -0.17679773914E+03 -0.14459093857E+03  0.53119681028E+03  0.90744460646E+02 0.  0.
         13    1    3    3    0    0 -0.33921183678E+03 -0.12058526177E+03 -0.60296909537E+02  0.36502218133E+03  0.00000000000E+00 0.  1.
        -13    1    3    3    0    0 -0.13171439315E+03 -0.56212477369E+02 -0.84294029038E+02  0.16617462895E+03  0.00000000000E+00 0. -1.
         22    1    1    2    0    0  0.47092622993E+03  0.17679773914E+03 -0.83417882009E+03  0.97410638972E+03  0.00000000000E+00 0. -1.
<mgrwt>
<rscale>  0 0.11436553E+04</rscale>
<asrwt>0</asrwt>
<pdfrwt beam="1">  1        2 0.19108253E+00 0.11436553E+04</pdfrwt>
<pdfrwt beam="2">  1       -2 0.40502573E-01 0.11436553E+04</pdfrwt>
<totfact> 0.10211247E+02</totfact>
</mgrwt>
</event>
<event>
 6    1  0.9364335E-007  0.3166397E+04  0.7818608E-02  0.8197748E-01
          2   -1    0    0  501    0  0.00000000000E+00  0.00000000000E+00  0.20856887641E+04  0.20856887641E+04  0.00000000000E+00 0. -1.
         -2   -1    0    0    0  501 -0.00000000000E+00 -0.00000000000E+00 -0.12017696293E+04  0.12017696293E+04  0.00000000000E+00 0.  1.
         23    2    1    2    0    0 -0.74102222250E+01 -0.13393662967E+04 -0.43128752324E+03  0.14102994920E+04  0.94756219299E+02 0.  0.
         13    1    3    3    0    0 -0.19449075178E+02 -0.10939740502E+04 -0.38751365996E+03  0.11607430059E+04  0.00000000000E+00 0.  1.
        -13    1    3    3    0    0  0.12038852953E+02 -0.24539224651E+03 -0.43773863279E+02  0.24955648606E+03  0.00000000000E+00 0. -1.
         22    1    1    2    0    0  0.74102222250E+01  0.13393662967E+04  0.13152066580E+04  0.18771589015E+04  0.00000000000E+00 0. -1.
<mgrwt>
<rscale>  0 0.31663970E+04</rscale>
<asrwt>0</asrwt>
<pdfrwt beam="1">  1        2 0.32087519E+00 0.31663970E+04</pdfrwt>
<pdfrwt beam="2">  1       -2 0.18488764E+00 0.31663970E+04</pdfrwt>
<totfact> 0.84830927E-01</totfact>
</mgrwt>
</event>
<event>
 6    1  0.9364335E-007  0.1842889E+04  0.7818608E-02  0.8683818E-01
          2   -1    0    0  501    0  0.00000000000E+00  0.00000000000E+00  0.29475782370E+04  0.29475782370E+04  0.00000000000E+00 0. -1.
         -2   -1    0    0    0  501 -0.00000000000E+00 -0.00000000000E+00 -0.28805345686E+03  0.28805345686E+03  0.00000000000E+00 0.  1.
         23    2    1    2    0    0 -0.73084474677E+02  0.88065284993E+03  0.88890504448E+03  0.12567468991E+04  0.91486653926E+02 0.  0.
         11    1    3    3    0    0  0.29621608157E+01  0.47613148822E+03  0.50078091502E+03  0.69100759281E+03  0.00000000000E+00 0. -1.
        -11    1    3    3    0    0 -0.76046635493E+02  0.40452136171E+03  0.38812412946E+03  0.56573930633E+03  0.00000000000E+00 0.  1.
         22    1    1    2    0    0  0.73084474677E+02 -0.88065284993E+03  0.17706197357E+04  0.19788847948E+04  0.00000000000E+00 0.  1.
<mgrwt>
<rscale>  0 0.18428891E+04</rscale>
<asrwt>0</asrwt>
<pdfrwt beam="1">  1        2 0.45347355E+00 0.18428891E+04</pdfrwt>
<pdfrwt beam="2">  1       -2 0.44315919E-01 0.18428891E+04</pdfrwt>
<totfact> 0.85563657E+00</totfact>
</mgrwt>
</event>
<event>
 6    1  0.9364335E-007  0.1932836E+04  0.7818608E-02  0.8638682E-01
         -2   -1    0    0    0  501 -0.00000000000E+00  0.00000000000E+00  0.12331644206E+04  0.12331644206E+04  0.00000000000E+00 0.  1.
          2   -1    0    0  501    0  0.00000000000E+00 -0.00000000000E+00 -0.75737195697E+03  0.75737195697E+03  0.00000000000E+00 0. -1.
         23    2    1    2    0    0  0.29846394645E+03 -0.59132441941E+03  0.96007084472E+03  0.11700055453E+04  0.91824031846E+02 0.  0.
         13    1    3    3    0    0  0.53566435257E+02 -0.18170216924E+03  0.23292293416E+03  0.30023013597E+03  0.00000000000E+00 0. -1.
        -13    1    3    3    0    0  0.24489751119E+03 -0.40962225017E+03  0.72714791056E+03  0.86977540932E+03  0.00000000000E+00 0.  1.
         22    1    1    2    0    0 -0.29846394645E+03  0.59132441941E+03 -0.48427838108E+03  0.82053083227E+03  0.00000000000E+00 0. -1.
<mgrwt>
<rscale>  0 0.19328364E+04</rscale>
<asrwt>0</asrwt>
<pdfrwt beam="1">  1        2 0.11651876E+00 0.19328364E+04</pdfrwt>
<pdfrwt beam="2">  1       -2 0.18971760E+00 0.19328364E+04</pdfrwt>
<totfact> 0.53810059E+00</totfact>
</mgrwt>
</event>
<event>
 6    1  0.9364335E-007  0.9995358E+04  0.7818608E-02  0.7328842E-01
         -2   -1    0    0    0  501 -0.00000000000E+00  0.00000000000E+00  0.60897001193E+04  0.60897001193E+04  0.00000000000E+00 0.  1.
          2   -1    0    0  501    0  0.00000000000E+00 -0.00000000000E+00 -0.41014822418E+04  0.41014822418E+04  0.00000000000E+00 0. -1.
         23    2    1    2    0    0 -0.41927800692E+04  0.11360930670E+04 -0.15245291648E+04  0.46046356685E+04  0.91478411779E+02 0.  0.
         13    1    3    3    0    0 -0.33416589924E+04  0.89391067880E+03 -0.12510093814E+04  0.36784216174E+04  0.00000000000E+00 0.  1.
        -13    1    3    3    0    0 -0.85112107680E+03  0.24218238818E+03 -0.27351978346E+03  0.92621405110E+03  0.00000000000E+00 0. -1.
         22    1    1    2    0    0  0.41927800692E+04 -0.11360930670E+04  0.35127470424E+04  0.55865466926E+04  0.00000000000E+00 0.  1.
<mgrwt>
<rscale>  0 0.99953583E+04</rscale>
<asrwt>0</asrwt>
<pdfrwt beam="1">  1        2 0.63099727E+00 0.99953583E+04</pdfrwt>
<pdfrwt beam="2">  1       -2 0.93687694E+00 0.99953583E+04</pdfrwt>
<totfact> 0.23619546E-07</totfact>
</mgrwt>
</event>
<event>
 6    1  0.9364335E-007  0.4610337E+04  0.7818608E-02  0.7891600E-01
         -2   -1    0    0    0  501 -0.00000000000E+00  0.00000000000E+00  0.22005696199E+04  0.22005696199E+04  0.00000000000E+00 0.  1.
          2   -1    0    0  501    0  0.00000000000E+00 -0.00000000000E+00 -0.24147396525E+04  0.24147396525E+04  0.00000000000E+00 0. -1.
         23    2    1    2    0    0 -0.83591353028E+03  0.18166620637E+03 -0.22491622965E+04  0.24078338920E+04  0.84728832655E+02 0.  0.
         11    1    3    3    0    0 -0.59907217645E+03  0.10709403362E+03 -0.16815824200E+04  0.17883165380E+04  0.00000000000E+00 0.  1.
        -11    1    3    3    0    0 -0.23684135383E+03  0.74572172752E+02 -0.56757987644E+03  0.61951735405E+03  0.00000000000E+00 0. -1.
         22    1    1    2    0    0  0.83591353028E+03 -0.18166620637E+03  0.20349922639E+04  0.22074753803E+04  0.00000000000E+00 0.  1.
<mgrwt>
<rscale>  0 0.46103374E+04</rscale>
<asrwt>0</asrwt>
<pdfrwt beam="1">  1        2 0.37149841E+00 0.46103374E+04</pdfrwt>
<pdfrwt beam="2">  1       -2 0.33854917E+00 0.46103374E+04</pdfrwt>
<totfact> 0.53760840E-02</totfact>
</mgrwt>
</event>
<event>
 6    1  0.9364335E-007  0.2777815E+04  0.7818608E-02  0.8310189E-01
         -2   -1    0    0    0  501 -0.00000000000E+00  0.00000000000E+00  0.83501542665E+03  0.83501542665E+03  0.00000000000E+00 0.  1.
          2   -1    0    0  501    0  0.00000000000E+00 -0.00000000000E+00 -0.23102143308E+04  0.23102143308E+04  0.00000000000E+00 0. -1.
         23    2    1    2    0    0 -0.13322829983E+03 -0.13780672685E+04 -0.63548419636E+03  0.15259892050E+04  0.89351628441E+02 0.  0.
         11    1    3    3    0    0 -0.50651154516E+02 -0.68820317327E+03 -0.27070231696E+03  0.74126168898E+03  0.00000000000E+00 0. -1.
        -11    1    3    3    0    0 -0.82577145315E+02 -0.68986409521E+03 -0.36478187941E+03  0.78472751597E+03  0.00000000000E+00 0.  1.
         22    1    1    2    0    0  0.13322829983E+03  0.13780672685E+04 -0.83971470774E+03  0.16192405525E+04  0.00000000000E+00 0. -1.
<mgrwt>
<rscale>  0 0.27778154E+04</rscale>
<asrwt>0</asrwt>
<pdfrwt beam="1">  1        2 0.35541759E+00 0.27778154E+04</pdfrwt>
<pdfrwt beam="2">  1       -2 0.12846391E+00 0.27778154E+04</pdfrwt>
<totfact> 0.17451404E+00</totfact>
</mgrwt>
</event>
<event>
 6    1  0.9364335E-007  0.1700531E+04  0.7818608E-02  0.8761062E-01
          2   -1    0    0  501    0  0.00000000000E+00  0.00000000000E+00  0.11865628407E+04  0.11865628407E+04  0.00000000000E+00 0. -1.
         -2   -1    0    0    0  501 -0.00000000000E+00 -0.00000000000E+00 -0.60928168604E+03  0.60928168604E+03  0.00000000000E+00 0.  1.
         23    2    1    2    0    0  0.43310391196E+03  0.56778362497E+03 -0.19270308456E+03  0.74568598060E+03  0.94635403145E+02 0.  0.
         13    1    3    3    0    0  0.35263164581E+03  0.49213998616E+03 -0.13198989403E+03  0.61965488437E+03  0.00000000000E+00 0.  1.
        -13    1    3    3    0    0  0.80472266157E+02  0.75643638816E+02 -0.60713190533E+02  0.12603109624E+03  0.00000000000E+00 0. -1.
         22    1    1    2    0    0 -0.43310391196E+03 -0.56778362497E+03  0.76998423918E+03  0.10501585461E+04  0.00000000000E+00 0. -1.
<mgrwt>
<rscale>  0 0.17005305E+04</rscale>
<asrwt>0</asrwt>
<pdfrwt beam="1">  1        2 0.18254813E+00 0.17005305E+04</pdfrwt>
<pdfrwt beam="2">  1       -2 0.93735644E-01 0.17005305E+04</pdfrwt>
<totfact> 0.17658513E+01</totfact>
</mgrwt>
</event>
<event>
 6    1  0.9364335E-007  0.1425637E+04  0.7818608E-02  0.8935467E-01
         -2   -1    0    0    0  501 -0.00000000000E+00  0.00000000000E+00  0.22949186266E+03  0.22949186266E+03  0.00000000000E+00 0.  1.
          2   -1    0    0  501    0  0.00000000000E+00 -0.00000000000E+00 -0.22140670513E+04  0.22140670513E+04  0.00000000000E+00 0. -1.
         23    2    1    2    0    0  0.24705600699E+03  0.53583269856E+02 -0.21333304107E+04  0.21502400541E+04  0.92335320975E+02 0.  0.
         11    1    3    3    0    0  0.19181970833E+03  0.80053799173E+02 -0.16343378759E+04  0.16475022621E+04  0.00000000000E+00 0. -1.
        -11    1    3    3    0    0  0.55236298664E+02 -0.26470529317E+02 -0.49899253489E+03  0.50273779198E+03  0.00000000000E+00 0.  1.
         22    1    1    2    0    0 -0.24705600699E+03 -0.53583269856E+02  0.14875522215E+03  0.29331885981E+03  0.00000000000E+00 0.  1.
<mgrwt>
<rscale>  0 0.14256372E+04</rscale>
<asrwt>0</asrwt>
<pdfrwt beam="1">  1        2 0.34062570E+00 0.14256372E+04</pdfrwt>
<pdfrwt beam="2">  1       -2 0.35306441E-01 0.14256372E+04</pdfrwt>
<totfact> 0.37166983E+01</totfact>
</mgrwt>
</event>
<event>
 6    1  0.9364335E-007  0.3538528E+04  0.7818608E-02  0.8104720E-01
         -2   -1    0    0    0  501 -0.00000000000E+00  0.00000000000E+00  0.16191600735E+04  0.16191600735E+04  0.00000000000E+00 0.  1.
          2   -1    0    0  501    0  0.00000000000E+00 -0.00000000000E+00 -0.19332829310E+04  0.19332829310E+04  0.00000000000E+00 0. -1.
         23    2    1    2    0    0 -0.12959456778E+04  0.95274535030E+03 -0.89467395134E+03  0.18424025152E+04  0.82502403196E+02 0.  0.
         13    1    3    3    0    0 -0.10902654790E+04  0.78566410044E+03 -0.71483303715E+03  0.15221475501E+04  0.00000000000E+00 0.  1.
        -13    1    3    3    0    0 -0.20568019880E+03  0.16708124986E+03 -0.17984091418E+03  0.32025496506E+03  0.00000000000E+00 0. -1.
         22    1    1    2    0    0  0.12959456778E+04 -0.95274535030E+03  0.58055109386E+03  0.17100404892E+04  0.00000000000E+00 0. -1.
<mgrwt>
<rscale>  0 0.35385277E+04</rscale>
<asrwt>0</asrwt>
<pdfrwt beam="1">  1        2 0.29742814E+00 0.35385277E+04</pdfrwt>
<pdfrwt beam="2">  1       -2 0.24910155E+00 0.35385277E+04</pdfrwt>
<totfact> 0.38798953E-01</totfact>
</mgrwt>
</event>
<event>
 6    1  0.9364335E-007  0.2059975E+04  0.7818608E-02  0.8579083E-01
          2   -1    0    0  501    0  0.00000000000E+00  0.00000000000E+00  0.35302188710E+04  0.35302188710E+04  0.00000000000E+00 0. -1.
         -2   -1    0    0    0  501 -0.00000000000E+00 -0.00000000000E+00 -0.30051228060E+03  0.30051228060E+03  0.00000000000E+00 0.  1.
         23    2    1    2    0    0  0.79637681947E+03  0.61875824954E+03  0.12471697116E+04  0.16064267017E+04  0.89981378409E+02 0.  0.
         11    1    3    3    0    0  0.52990107804E+03  0.41280882442E+03  0.76169924022E+03  0.10155747193E+04  0.00000000000E+00 0.  1.
        -11    1    3    3    0    0  0.26647574143E+03  0.20594942512E+03  0.48547047133E+03  0.59085198232E+03  0.00000000000E+00 0. -1.
         22    1    1    2    0    0 -0.79637681947E+03 -0.61875824954E+03  0.19825368788E+04  0.22243044499E+04  0.00000000000E+00 0. -1.
<mgrwt>
<rscale>  0 0.20599749E+04</rscale>
<asrwt>0</asrwt>
<pdfrwt beam="1">  1        2 0.54311057E+00 0.20599749E+04</pdfrwt>
<pdfrwt beam="2">  1       -2 0.46232661E-01 0.20599749E+04</pdfrwt>
<totfact> 0.31914517E+00</totfact>
</mgrwt>
</event>
<event>
 6    1  0.9364335E-007  0.3413673E+04  0.7818608E-02  0.8134559E-01
          2   -1    0    0  501    0  0.00000000000E+00  0.00000000000E+00  0.31275848081E+04  0.31275848081E+04  0.00000000000E+00 0. -1.
         -2   -1    0    0    0  501 -0.00000000000E+00 -0.00000000000E+00 -0.93148240208E+03  0.93148240208E+03  0.00000000000E+00 0.  1.
         23    2    1    2    0    0 -0.14867530565E+04  0.19497947210E+03  0.13232521641E+03  0.15080619311E+04  0.91044931151E+02 0.  0.
         13    1    3    3    0    0 -0.35543366271E+03  0.68413305905E+02  0.64553741048E+02  0.36766921886E+03  0.00000000000E+00 0. -1.
        -13    1    3    3    0    0 -0.11313193938E+04  0.12656616619E+03  0.67771475366E+02  0.11403927122E+04  0.00000000000E+00 0.  1.
         22    1    1    2    0    0  0.14867530565E+04 -0.19497947210E+03  0.20637771896E+04  0.25510052791E+04  0.00000000000E+00 0. -1.
<mgrwt>
<rscale>  0 0.34136726E+04</rscale>
<asrwt>0</asrwt>
<pdfrwt beam="1">  1        2 0.48116689E+00 0.34136726E+04</pdfrwt>
<pdfrwt beam="2">  1       -2 0.14330499E+00 0.34136726E+04</pdfrwt>
<totfact> 0.40366211E-01</totfact>
</mgrwt>
</event>
<event>
 6    1  0.9364335E-007  0.2069560E+04  0.7818608E-02  0.8574772E-01
          1   -1    0    0  501    0  0.00000000000E+00  0.00000000000E+00  0.25110478034E+04  0.25110478034E+04  0.00000000000E+00 0. -1.
         -1   -1    0    0    0  501 -0.00000000000E+00 -0.00000000000E+00 -0.42642329546E+03  0.42642329546E+03  0.00000000000E+00 0.  1.
         23    2    1    2    0    0  0.78507562470E+03 -0.66376300031E+03  0.11843099982E+04  0.15709092549E+04  0.90778069998E+02 0.  0.
         13    1    3    3    0    0  0.51495765969E+03 -0.46972316304E+03  0.74991862871E+03  0.10238159946E+04  0.00000000000E+00 0. -1.
        -13    1    3    3    0    0  0.27011796501E+03 -0.19403983727E+03  0.43439136952E+03  0.54709326023E+03  0.00000000000E+00 0.  1.
         22    1    1    2    0    0 -0.78507562470E+03  0.66376300031E+03  0.90031450967E+03  0.13665618440E+04  0.00000000000E+00 0. -1.
<mgrwt>
<rscale>  0 0.20695596E+04</rscale>
<asrwt>0</asrwt>
<pdfrwt beam="1">  1        1 0.38631504E+00 0.20695596E+04</pdfrwt>
<pdfrwt beam="2">  1       -1 0.65603586E-01 0.20695596E+04</pdfrwt>
<totfact> 0.28916248E+00</totfact>
</mgrwt>
</event>
<event>
 6    1  0.9364335E-007  0.2362241E+04  0.7818608E-02  0.8453777E-01
         -1   -1    0    0    0  501 -0.00000000000E+00  0.00000000000E+00  0.82996296055E+03  0.82996296055E+03  0.00000000000E+00 0.  1.
          1   -1    0    0  501    0  0.00000000000E+00 -0.00000000000E+00 -0.16808533837E+04  0.16808533837E+04  0.00000000000E+00 0. -1.
         23    2    1    2    0    0  0.93821324928E+03 -0.48499167207E+03  0.13006019407E+03  0.10693847168E+04  0.10586309735E+03 0.  0.
         13    1    3    3    0    0  0.53764535255E+03 -0.32639887567E+03  0.47790658480E+02  0.63077943704E+03  0.00000000000E+00 0. -1.
        -13    1    3    3    0    0  0.40056789673E+03 -0.15859279640E+03  0.82269535589E+02  0.43860527978E+03  0.00000000000E+00 0.  1.
         22    1    1    2    0    0 -0.93821324928E+03  0.48499167207E+03 -0.98095061721E+03  0.14414316274E+04  0.00000000000E+00 0. -1.
<mgrwt>
<rscale>  0 0.23622414E+04</rscale>
<asrwt>0</asrwt>
<pdfrwt beam="1">  1        1 0.25859283E+00 0.23622414E+04</pdfrwt>
<pdfrwt beam="2">  1       -1 0.12768661E+00 0.23622414E+04</pdfrwt>
<totfact> 0.23430691E+00</totfact>
</mgrwt>
</event>
<event>
 6    1  0.9364335E-007  0.2559031E+04  0.7818608E-02  0.8382252E-01
         -1   -1    0    0    0  501 -0.00000000000E+00  0.00000000000E+00  0.44315908221E+03  0.44315908221E+03  0.00000000000E+00 0.  1.
          1   -1    0    0  501    0  0.00000000000E+00 -0.00000000000E+00 -0.36942953001E+04  0.36942953001E+04  0.00000000000E+00 0. -1.
         23    2    1    2    0    0 -0.53988544280E+03 -0.18077953530E+03 -0.34773699428E+04  0.35248050290E+04  0.89393744685E+02 0.  0.
         11    1    3    3    0    0 -0.10780342953E+03 -0.73177435794E+02 -0.71434467510E+03  0.72613003751E+03  0.00000000000E+00 0. -1.
        -11    1    3    3    0    0 -0.43208201327E+03 -0.10760209951E+03 -0.27630252677E+04  0.27986749915E+04  0.00000000000E+00 0.  1.
         22    1    1    2    0    0  0.53988544280E+03  0.18077953530E+03  0.22623372497E+03  0.61264935326E+03  0.00000000000E+00 0.  1.
<mgrwt>
<rscale>  0 0.25590315E+04</rscale>
<asrwt>0</asrwt>
<pdfrwt beam="1">  1        1 0.56835313E+00 0.25590315E+04</pdfrwt>
<pdfrwt beam="2">  1       -1 0.68178319E-01 0.25590315E+04</pdfrwt>
<totfact> 0.33608478E-01</totfact>
</mgrwt>
</event>
<event>
 6    1  0.9364335E-007  0.1853671E+04  0.7818608E-02  0.8678267E-01
         -2   -1    0    0    0  501 -0.00000000000E+00  0.00000000000E+00  0.29864553672E+03  0.29864553672E+03  0.00000000000E+00 0.  1.
          2   -1    0    0  501    0  0.00000000000E+00 -0.00000000000E+00 -0.28764015726E+04  0.28764015726E+04  0.00000000000E+00 0. -1.
         23    2    1    2    0    0  0.32030602306E+02  0.86029048096E+03 -0.18697729000E+04  0.20604324711E+04  0.90584762227E+02 0.  0.
         13    1    3    3    0    0 -0.19133621545E+01  0.73292201659E+03 -0.16172174749E+04  0.17755480012E+04  0.00000000000E+00 0.  1.
        -13    1    3    3    0    0  0.33943964460E+02  0.12736846437E+03 -0.25255542512E+03  0.28488446991E+03  0.00000000000E+00 0. -1.
         22    1    1    2    0    0 -0.32030602306E+02 -0.86029048096E+03 -0.70798313587E+03  0.11146146382E+04  0.00000000000E+00 0.  1.
<mgrwt>
<rscale>  0 0.18536715E+04</rscale>
<asrwt>0</asrwt>
<pdfrwt beam="1">  1        2 0.44252334E+00 0.18536715E+04</pdfrwt>
<pdfrwt beam="2">  1       -2 0.45945465E-01 0.18536715E+04</pdfrwt>
<totfact> 0.87945938E+00</totfact>
</mgrwt>
</event>
<event>
 6    1  0.9364335E-007  0.3981164E+04  0.7818608E-02  0.8008357E-01
          2   -1    0    0  501    0  0.00000000000E+00  0.00000000000E+00  0.35672914238E+04  0.35672914238E+04  0.00000000000E+00 0. -1.
         -2   -1    0    0    0  501 -0.00000000000E+00 -0.00000000000E+00 -0.11107635356E+04  0.11107635356E+04  0.00000000000E+00 0.  1.
         23    2    1    2    0    0  0.11559372045E+04 -0.61299183347E+03  0.29900378853E+04  0.32650501024E+04  0.90971463639E+02 0.  0.
         13    1    3    3    0    0  0.20249442053E+03 -0.10787845215E+03  0.44272666528E+03  0.49864681984E+03  0.00000000000E+00 0.  1.
        -13    1    3    3    0    0  0.95344278393E+03 -0.50511338132E+03  0.25473112200E+04  0.27664032826E+04  0.00000000000E+00 0. -1.
         22    1    1    2    0    0 -0.11559372045E+04  0.61299183347E+03 -0.53350999717E+03  0.14130048569E+04  0.00000000000E+00 0.  1.
<mgrwt>
<rscale>  0 0.39811643E+04</rscale>
<asrwt>0</asrwt>
<pdfrwt beam="1">  1        2 0.54881406E+00 0.39811643E+04</pdfrwt>
<pdfrwt beam="2">  1       -2 0.17088670E+00 0.39811643E+04</pdfrwt>
<totfact> 0.12068605E-01</totfact>
</mgrwt>
</event>
<event>
 6    1  0.9364335E-007  0.6460463E+03  0.7818608E-02  0.9814226E-01
          1   -1    0    0  501    0  0.00000000000E+00  0.00000000000E+00  0.22061359828E+04  0.22061359828E+04  0.00000000000E+00 0. -1.
         -1   -1    0    0    0  501 -0.00000000000E+00 -0.00000000000E+00 -0.47297160621E+02  0.47297160621E+02  0.00000000000E+00 0.  1.
         23    2    1    2    0    0  0.94465752502E+02 -0.81473660164E+02  0.21168825581E+04  0.21218198319E+04  0.73252292003E+02 0.  0.
         11    1    3    3    0    0  0.86730068883E+02 -0.65771099934E+02  0.12415590244E+04  0.12463212882E+04  0.00000000000E+00 0. -1.
        -11    1    3    3    0    0  0.77356836191E+01 -0.15702560230E+02  0.87532353375E+03  0.87549854366E+03  0.00000000000E+00 0.  1.
         22    1    1    2    0    0 -0.94465752502E+02  0.81473660164E+02  0.41956264108E+02  0.13161331161E+03  0.00000000000E+00 0.  1.
<mgrwt>
<rscale>  0 0.64604634E+03</rscale>
<asrwt>0</asrwt>
<pdfrwt beam="1">  1        1 0.33940546E+00 0.64604634E+03</pdfrwt>
<pdfrwt beam="2">  1       -1 0.72764880E-02 0.64604634E+03</pdfrwt>
<totfact> 0.23426156E+02</totfact>
</mgrwt>
</event>
<event>
 6    1  0.9364335E-007  0.2372385E+04  0.7818608E-02  0.8449915E-01
         -1   -1    0    0    0  501 -0.00000000000E+00  0.00000000000E+00  0.16998013421E+04  0.16998013421E+04  0.00000000000E+00 0.  1.
          1   -1    0    0  501    0  0.00000000000E+00 -0.00000000000E+00 -0.82777477921E+03  0.82777477921E+03  0.00000000000E+00 0. -1.
         23    2    1    2    0    0 -0.91674938303E+03  0.73469551852E+03  0.27583230752E+03  0.12101337027E+04  0.90184146769E+02 0.  0.
         13    1    3    3    0    0 -0.60747684338E+03  0.45209698256E+03  0.21197231588E+03  0.78635364790E+03  0.00000000000E+00 0. -1.
        -13    1    3    3    0    0 -0.30927253965E+03  0.28259853597E+03  0.63859991645E+02  0.42378005480E+03  0.00000000000E+00 0.  1.
         22    1    1    2    0    0  0.91674938303E+03 -0.73469551852E+03  0.59619425538E+03  0.13174424186E+04  0.00000000000E+00 0.  1.
<mgrwt>
<rscale>  0 0.23723850E+04</rscale>
<asrwt>0</asrwt>
<pdfrwt beam="1">  1        1 0.12734997E+00 0.23723850E+04</pdfrwt>
<pdfrwt beam="2">  1       -1 0.26150790E+00 0.23723850E+04</pdfrwt>
<totfact> 0.11023114E+00</totfact>
</mgrwt>
</event>
<event>
 6    1  0.9364335E-007  0.1710354E+04  0.7818608E-02  0.8755481E-01
         -2   -1    0    0    0  501 -0.00000000000E+00  0.00000000000E+00  0.53893792039E+03  0.53893792039E+03  0.00000000000E+00 0.  1.
          2   -1    0    0  501    0  0.00000000000E+00 -0.00000000000E+00 -0.13569790687E+04  0.13569790687E+04  0.00000000000E+00 0. -1.
         23    2    1    2    0    0 -0.38177217756E+03 -0.75988306906E+03 -0.48053034047E+03  0.98099304712E+03  0.90915764182E+02 0.  0.
         13    1    3    3    0    0 -0.46719817688E+02 -0.16078686606E+03 -0.11685165735E+03  0.20417998797E+03  0.00000000000E+00 0. -1.
        -13    1    3    3    0    0 -0.33505235988E+03 -0.59909620300E+03 -0.36367868313E+03  0.77681305915E+03  0.00000000000E+00 0.  1.
         22    1    1    2    0    0  0.38177217756E+03  0.75988306906E+03 -0.33751080787E+03  0.91492394199E+03  0.00000000000E+00 0.  1.
<mgrwt>
<rscale>  0 0.17103537E+04</rscale>
<asrwt>0</asrwt>
<pdfrwt beam="1">  1        2 0.20876601E+00 0.17103537E+04</pdfrwt>
<pdfrwt beam="2">  1       -2 0.82913528E-01 0.17103537E+04</pdfrwt>
<totfact> 0.18570786E+01</totfact>
</mgrwt>
</event>
<event>
 6    1  0.9364335E-007  0.2801458E+04  0.7818608E-02  0.8302816E-01
          2   -1    0    0  501    0  0.00000000000E+00  0.00000000000E+00  0.23831656947E+04  0.23831656947E+04  0.00000000000E+00 0. -1.
         -2   -1    0    0    0  501 -0.00000000000E+00 -0.00000000000E+00 -0.82329219457E+03  0.82329219457E+03  0.00000000000E+00 0.  1.
         23    2    1    2    0    0 -0.36118750139E+03  0.30856375200E+03 -0.72635611960E+03  0.87139603262E+03  0.77909132826E+02 0.  0.
         11    1    3    3    0    0 -0.14608618524E+03  0.15966651085E+03 -0.27808155531E+03  0.35236901056E+03  0.00000000000E+00 0. -1.
        -11    1    3    3    0    0 -0.21510131615E+03  0.14889724115E+03 -0.44827456430E+03  0.51902702206E+03  0.00000000000E+00 0.  1.
         22    1    1    2    0    0  0.36118750139E+03 -0.30856375200E+03  0.22862296197E+04  0.23350618566E+04  0.00000000000E+00 0. -1.
<mgrwt>
<rscale>  0 0.28014580E+04</rscale>
<asrwt>0</asrwt>
<pdfrwt beam="1">  1        2 0.36664087E+00 0.28014580E+04</pdfrwt>
<pdfrwt beam="2">  1       -2 0.12666034E+00 0.28014580E+04</pdfrwt>
<totfact> 0.16400811E+00</totfact>
</mgrwt>
</event>
<event>
 6    1  0.9364335E-007  0.2530817E+04  0.7818608E-02  0.8392088E-01
         -2   -1    0    0    0  501 -0.00000000000E+00  0.00000000000E+00  0.14549666012E+04  0.14549666012E+04  0.00000000000E+00 0.  1.
          2   -1    0    0  501    0  0.00000000000E+00 -0.00000000000E+00 -0.11005470409E+04  0.11005470409E+04  0.00000000000E+00 0. -1.
         23    2    1    2    0    0 -0.85188654563E+03 -0.20480326294E+03 -0.74222003732E+03  0.11518493411E+04  0.90615989789E+02 0.  0.
         11    1    3    3    0    0 -0.16263395985E+03 -0.83192381633E+01 -0.11401018572E+03  0.19878968049E+03  0.00000000000E+00 0. -1.
        -11    1    3    3    0    0 -0.68925258577E+03 -0.19648402477E+03 -0.62820985160E+03  0.95305966059E+03  0.00000000000E+00 0.  1.
         22    1    1    2    0    0  0.85188654563E+03  0.20480326294E+03  0.10966395976E+04  0.14036643011E+04  0.00000000000E+00 0.  1.
<mgrwt>
<rscale>  0 0.25308174E+04</rscale>
<asrwt>0</asrwt>
<pdfrwt beam="1">  1        2 0.16931493E+00 0.25308174E+04</pdfrwt>
<pdfrwt beam="2">  1       -2 0.22384102E+00 0.25308174E+04</pdfrwt>
<totfact> 0.18098187E+00</totfact>
</mgrwt>
</event>
<event>
 6    1  0.9364335E-007  0.1837171E+04  0.7818608E-02  0.8686778E-01
         -2   -1    0    0    0  501 -0.00000000000E+00  0.00000000000E+00  0.95757577372E+03  0.95757577372E+03  0.00000000000E+00 0.  1.
          2   -1    0    0  501    0  0.00000000000E+00 -0.00000000000E+00 -0.88118271977E+03  0.88118271977E+03  0.00000000000E+00 0. -1.
         23    2    1    2    0    0 -0.84498007071E+03 -0.13176292209E+03 -0.29109509445E+03  0.90795221571E+03  0.91038917235E+02 0.  0.
         13    1    3    3    0    0 -0.73206519846E+03 -0.11239860728E+03 -0.21801424442E+03  0.77206418936E+03  0.00000000000E+00 0. -1.
        -13    1    3    3    0    0 -0.11291487225E+03 -0.19364314802E+02 -0.73080850033E+02  0.13588802635E+03  0.00000000000E+00 0.  1.
         22    1    1    2    0    0  0.84498007071E+03  0.13176292209E+03  0.36748814840E+03  0.93080627778E+03  0.00000000000E+00 0.  1.
<mgrwt>
<rscale>  0 0.18371709E+04</rscale>
<asrwt>0</asrwt>
<pdfrwt beam="1">  1        2 0.13556657E+00 0.18371709E+04</pdfrwt>
<pdfrwt beam="2">  1       -2 0.14731935E+00 0.18371709E+04</pdfrwt>
<totfact> 0.89313081E+00</totfact>
</mgrwt>
</event>
<event>
 6    1  0.9364335E-007  0.2647058E+04  0.7818608E-02  0.8352390E-01
         -1   -1    0    0    0  501 -0.00000000000E+00  0.00000000000E+00  0.94789127944E+03  0.94789127944E+03  0.00000000000E+00 0.  1.
          1   -1    0    0  501    0  0.00000000000E+00 -0.00000000000E+00 -0.18480273580E+04  0.18480273580E+04  0.00000000000E+00 0. -1.
         23    2    1    2    0    0  0.32354512689E+03  0.91482374230E+03 -0.13988472738E+04  0.17049114033E+04  0.91461845531E+02 0.  0.
         11    1    3    3    0    0  0.13757958987E+03  0.51754156708E+03 -0.79564198897E+03  0.95907434113E+03  0.00000000000E+00 0.  1.
        -11    1    3    3    0    0  0.18596553702E+03  0.39728217522E+03 -0.60320528479E+03  0.74583706217E+03  0.00000000000E+00 0. -1.
         22    1    1    2    0    0 -0.32354512689E+03 -0.91482374230E+03  0.49871119523E+03  0.10910072341E+04  0.00000000000E+00 0.  1.
<mgrwt>
<rscale>  0 0.26470580E+04</rscale>
<asrwt>0</asrwt>
<pdfrwt beam="1">  1        1 0.28431190E+00 0.26470580E+04</pdfrwt>
<pdfrwt beam="2">  1       -1 0.14582943E+00 0.26470580E+04</pdfrwt>
<totfact> 0.12473537E+00</totfact>
</mgrwt>
</event>
<event>
 6    1  0.9364335E-007  0.1657766E+04  0.7818608E-02  0.8785825E-01
          1   -1    0    0  501    0  0.00000000000E+00  0.00000000000E+00  0.29448376836E+04  0.29448376836E+04  0.00000000000E+00 0. -1.
         -1   -1    0    0    0  501 -0.00000000000E+00 -0.00000000000E+00 -0.23330561290E+03  0.23330561290E+03  0.00000000000E+00 0.  1.
         23    2    1    2    0    0  0.37390778155E+03  0.34519975331E+03  0.11157647664E+03  0.52885301610E+03  0.90919215276E+02 0.  0.
         11    1    3    3    0    0  0.33193834320E+03  0.25892095141E+03  0.92887882712E+02  0.43110472222E+03  0.00000000000E+00 0.  1.
        -11    1    3    3    0    0  0.41969438346E+02  0.86278801899E+02  0.18688593933E+02  0.97748293875E+02  0.00000000000E+00 0. -1.
         22    1    1    2    0    0 -0.37390778155E+03 -0.34519975331E+03  0.25999555941E+04  0.26492902804E+04  0.00000000000E+00 0. -1.
<mgrwt>
<rscale>  0 0.16577662E+04</rscale>
<asrwt>0</asrwt>
<pdfrwt beam="1">  1        1 0.45305192E+00 0.16577662E+04</pdfrwt>
<pdfrwt beam="2">  1       -1 0.35893173E-01 0.16577662E+04</pdfrwt>
<totfact> 0.46620427E+00</totfact>
</mgrwt>
</event>
<event>
 6    1  0.9364335E-007  0.9489274E+03  0.7818608E-02  0.9366405E-01
         -2   -1    0    0    0  501 -0.00000000000E+00  0.00000000000E+00  0.32048796364E+03  0.32048796364E+03  0.00000000000E+00 0.  1.
          2   -1    0    0  501    0  0.00000000000E+00 -0.00000000000E+00 -0.70241572508E+03  0.70241572508E+03  0.00000000000E+00 0. -1.
         23    2    1    2    0    0  0.67415691117E+02 -0.41992301061E+02 -0.69249258574E+03  0.70234364934E+03  0.86211320078E+02 0.  0.
         13    1    3    3    0    0  0.25386703366E+01 -0.46299690214E+02 -0.40188527771E+03  0.40455145854E+03  0.00000000000E+00 0.  1.
        -13    1    3    3    0    0  0.64877020781E+02  0.43073891529E+01 -0.29060730802E+03  0.29779219080E+03  0.00000000000E+00 0. -1.
         22    1    1    2    0    0 -0.67415691117E+02  0.41992301061E+02  0.31056482430E+03  0.32056003939E+03  0.00000000000E+00 0.  1.
<mgrwt>
<rscale>  0 0.94892736E+03</rscale>
<asrwt>0</asrwt>
<pdfrwt beam="1">  1        2 0.10806396E+00 0.94892736E+03</pdfrwt>
<pdfrwt beam="2">  1       -2 0.49305842E-01 0.94892736E+03</pdfrwt>
<totfact> 0.15899847E+02</totfact>
</mgrwt>
</event>
<event>
 6    1  0.9364335E-007  0.2379738E+04  0.7818608E-02  0.8447129E-01
          2   -1    0    0  501    0  0.00000000000E+00  0.00000000000E+00  0.14575680115E+04  0.14575680115E+04  0.00000000000E+00 0. -1.
         -2   -1    0    0    0  501 -0.00000000000E+00 -0.00000000000E+00 -0.97133566970E+03  0.97133566970E+03  0.00000000000E+00 0.  1.
         23    2    1    2    0    0  0.16824764013E+03  0.61706800534E+03  0.12653822414E+04  0.14208586635E+04  0.92557729414E+02 0.  0.
         11    1    3    3    0    0  0.96473868346E+02  0.46315757186E+03  0.86442081028E+03  0.98541639975E+03  0.00000000000E+00 0.  1.
        -11    1    3    3    0    0  0.71773771785E+02  0.15391043348E+03  0.40096143107E+03  0.43544226375E+03  0.00000000000E+00 0. -1.
         22    1    1    2    0    0 -0.16824764013E+03 -0.61706800534E+03 -0.77914989959E+03  0.10080450177E+04  0.00000000000E+00 0.  1.
<mgrwt>
<rscale>  0 0.23797376E+04</rscale>
<asrwt>0</asrwt>
<pdfrwt beam="1">  1        2 0.22424123E+00 0.23797376E+04</pdfrwt>
<pdfrwt beam="2">  1       -2 0.14943626E+00 0.23797376E+04</pdfrwt>
<totfact> 0.36577134E+00</totfact>
</mgrwt>
</event>
<event>
 6    1  0.9364335E-007  0.1034905E+04  0.7818608E-02  0.9271069E-01
         -2   -1    0    0    0  501 -0.00000000000E+00  0.00000000000E+00  0.91637097448E+03  0.91637097448E+03  0.00000000000E+00 0.  1.
          2   -1    0    0  501    0  0.00000000000E+00 -0.00000000000E+00 -0.29219293767E+03  0.29219293767E+03  0.00000000000E+00 0. -1.
         23    2    1    2    0    0 -0.46250179727E+03  0.17103622987E+03  0.15007860070E+03  0.52450866604E+03  0.97079606292E+02 0.  0.
         13    1    3    3    0    0 -0.36479670611E+03  0.17341276460E+03  0.10803475994E+03  0.41811497590E+03  0.00000000000E+00 0. -1.
        -13    1    3    3    0    0 -0.97705091161E+02 -0.23765347344E+01  0.42043840762E+02  0.10639369014E+03  0.00000000000E+00 0.  1.
         22    1    1    2    0    0  0.46250179727E+03 -0.17103622987E+03  0.47409943610E+03  0.68405524610E+03  0.00000000000E+00 0.  1.
<mgrwt>
<rscale>  0 0.10349051E+04</rscale>
<asrwt>0</asrwt>
<pdfrwt beam="1">  1        2 0.44952760E-01 0.10349051E+04</pdfrwt>
<pdfrwt beam="2">  1       -2 0.14098015E+00 0.10349051E+04</pdfrwt>
<totfact> 0.39704624E+01</totfact>
</mgrwt>
</event>
<event>
 6    1  0.9364335E-007  0.5424507E+04  0.7818608E-02  0.7766163E-01
          2   -1    0    0  501    0  0.00000000000E+00  0.00000000000E+00  0.28395013133E+04  0.28395013133E+04  0.00000000000E+00 0. -1.
         -2   -1    0    0    0  501 -0.00000000000E+00 -0.00000000000E+00 -0.25907080158E+04  0.25907080158E+04  0.00000000000E+00 0.  1.
         23    2    1    2    0    0 -0.44223369833E+03 -0.21013755700E+04  0.17816853714E+04  0.27918181450E+04  0.92173000574E+02 0.  0.
         13    1    3    3    0    0 -0.44421713644E+02 -0.28803619002E+03  0.27812500226E+03  0.40285438099E+03  0.00000000000E+00 0. -1.
        -13    1    3    3    0    0 -0.39781198469E+03 -0.18133393800E+04  0.15035603691E+04  0.23889637640E+04  0.00000000000E+00 0.  1.
         22    1    1    2    0    0  0.44223369833E+03  0.21013755700E+04 -0.15328920739E+04  0.26383911841E+04  0.00000000000E+00 0.  1.
<mgrwt>
<rscale>  0 0.54245069E+04</rscale>
<asrwt>0</asrwt>
<pdfrwt beam="1">  1        2 0.43684635E+00 0.54245069E+04</pdfrwt>
<pdfrwt beam="2">  1       -2 0.39857047E+00 0.54245069E+04</pdfrwt>
<totfact> 0.11690890E-02</totfact>
</mgrwt>
</event>
<event>
 6    1  0.9364335E-007  0.4338022E+04  0.7818608E-02  0.7939625E-01
          2   -1    0    0  501    0  0.00000000000E+00  0.00000000000E+00  0.24893410085E+04  0.24893410085E+04  0.00000000000E+00 0. -1.
         -2   -1    0    0    0  501 -0.00000000000E+00 -0.00000000000E+00 -0.18899016963E+04  0.18899016963E+04  0.00000000000E+00 0.  1.
         23    2    1    2    0    0  0.68208799851E+03 -0.15540670737E+04 -0.10620960055E+04  0.20041494184E+04  0.90545342346E+02 0.  0.
         13    1    3    3    0    0  0.57915166528E+03 -0.12715936271E+04 -0.83950816518E+03  0.16300739135E+04  0.00000000000E+00 0. -1.
        -13    1    3    3    0    0  0.10293633323E+03 -0.28247344652E+03 -0.22258784036E+03  0.37407550489E+03  0.00000000000E+00 0.  1.
         22    1    1    2    0    0 -0.68208799851E+03  0.15540670737E+04  0.16615353178E+04  0.23750932864E+04  0.00000000000E+00 0. -1.
<mgrwt>
<rscale>  0 0.43380225E+04</rscale>
<asrwt>0</asrwt>
<pdfrwt beam="1">  1        2 0.38297554E+00 0.43380225E+04</pdfrwt>
<pdfrwt beam="2">  1       -2 0.29075411E+00 0.43380225E+04</pdfrwt>
<totfact> 0.98137031E-02</totfact>
</mgrwt>
</event>
<event>
 6    1  0.9364335E-007  0.2899936E+04  0.7818608E-02  0.8272897E-01
          2   -1    0    0  501    0  0.00000000000E+00  0.00000000000E+00  0.29933086482E+04  0.29933086482E+04  0.00000000000E+00 0. -1.
         -2   -1    0    0    0  501 -0.00000000000E+00 -0.00000000000E+00 -0.70236889139E+03  0.70236889139E+03  0.00000000000E+00 0.  1.
         23    2    1    2    0    0  0.11520361955E+04 -0.87655746687E+03  0.11999922551E+04  0.18830256591E+04  0.10131057157E+03 0.  0.
         13    1    3    3    0    0  0.83376125882E+03 -0.68356711501E+03  0.91846558968E+03  0.14163336037E+04  0.00000000000E+00 0.  1.
        -13    1    3    3    0    0  0.31827493670E+03 -0.19299035187E+03  0.28152666543E+03  0.46669205543E+03  0.00000000000E+00 0. -1.
         22    1    1    2    0    0 -0.11520361955E+04  0.87655746687E+03  0.10909475017E+04  0.18126518806E+04  0.00000000000E+00 0.  1.
<mgrwt>
<rscale>  0 0.28999358E+04</rscale>
<asrwt>0</asrwt>
<pdfrwt beam="1">  1        2 0.46050902E+00 0.28999358E+04</pdfrwt>
<pdfrwt beam="2">  1       -2 0.10805675E+00 0.28999358E+04</pdfrwt>
<totfact> 0.10403035E+00</totfact>
</mgrwt>
</event>
<event>
 6    1  0.9364335E-007  0.9806898E+03  0.7818608E-02  0.9329981E-01
         -2   -1    0    0    0  501 -0.00000000000E+00  0.00000000000E+00  0.12137603854E+03  0.12137603854E+03  0.00000000000E+00 0.  1.
          2   -1    0    0  501    0  0.00000000000E+00 -0.00000000000E+00 -0.19809357431E+04  0.19809357431E+04  0.00000000000E+00 0. -1.
         23    2    1    2    0    0  0.27662028750E+03  0.39500161747E+03 -0.10673667449E+04  0.11748880670E+04  0.92439928803E+02 0.  0.
         13    1    3    3    0    0  0.79507323923E+02  0.94872367347E+02 -0.37578754170E+03  0.39564941190E+03  0.00000000000E+00 0. -1.
        -13    1    3    3    0    0  0.19711296358E+03  0.30012925013E+03 -0.69157920325E+03  0.77923865507E+03  0.00000000000E+00 0.  1.
         22    1    1    2    0    0 -0.27662028750E+03 -0.39500161747E+03 -0.79219295967E+03  0.92742371471E+03  0.00000000000E+00 0.  1.
<mgrwt>
<rscale>  0 0.98068982E+03</rscale>
<asrwt>0</asrwt>
<pdfrwt beam="1">  1        2 0.30475932E+00 0.98068982E+03</pdfrwt>
<pdfrwt beam="2">  1       -2 0.18673238E-01 0.98068982E+03</pdfrwt>
<totfact> 0.16556114E+02</totfact>
</mgrwt>
</event>
<event>
 6    1  0.9364335E-007  0.1458312E+04  0.7818608E-02  0.8912658E-01
          2   -1    0    0  501    0  0.00000000000E+00  0.00000000000E+00  0.11891192867E+04  0.11891192867E+04  0.00000000000E+00 0. -1.
         -2   -1    0    0    0  501 -0.00000000000E+00 -0.00000000000E+00 -0.44711121816E+03  0.44711121816E+03  0.00000000000E+00 0.  1.
         23    2    1    2    0    0 -0.51579960887E+03  0.26405023997E+03 -0.12199459721E+03  0.59590729923E+03  0.66716278320E+02 0.  0.
         11    1    3    3    0    0 -0.31205724921E+03  0.19039960231E+03 -0.94093893648E+02  0.37747237802E+03  0.00000000000E+00 0. -1.
        -11    1    3    3    0    0 -0.20374235966E+03  0.73650637664E+02 -0.27900703558E+02  0.21843492122E+03  0.00000000000E+00 0.  1.
         22    1    1    2    0    0  0.51579960887E+03 -0.26405023997E+03  0.86400266570E+03  0.10403232056E+04  0.00000000000E+00 0.  1.
<mgrwt>
<rscale>  0 0.14583121E+04</rscale>
<asrwt>0</asrwt>
<pdfrwt beam="1">  1        2 0.18294143E+00 0.14583121E+04</pdfrwt>
<pdfrwt beam="2">  1       -2 0.68786342E-01 0.14583121E+04</pdfrwt>
<totfact> 0.35991915E+01</totfact>
</mgrwt>
</event>
<event>
 6    1  0.9364335E-007  0.3308989E+04  0.7818608E-02  0.8160612E-01
          1   -1    0    0  501    0  0.00000000000E+00  0.00000000000E+00  0.18820707697E+04  0.18820707697E+04  0.00000000000E+00 0. -1.
         -1   -1    0    0    0  501 -0.00000000000E+00 -0.00000000000E+00 -0.14544359016E+04  0.14544359016E+04  0.00000000000E+00 0.  1.
         23    2    1    2    0    0 -0.12834579570E+04 -0.20499672312E+03 -0.81627474974E+03  0.15374516080E+04  0.90360366677E+02 0.  0.
         13    1    3    3    0    0 -0.10719650155E+03 -0.59537453989E+01 -0.95124184080E+02  0.14344039677E+03  0.00000000000E+00 0. -1.
        -13    1    3    3    0    0 -0.11762614555E+04 -0.19904297772E+03 -0.72115056566E+03  0.13940112112E+04  0.00000000000E+00 0.  1.
         22    1    1    2    0    0  0.12834579570E+04  0.20499672312E+03  0.12439096178E+04  0.17990550634E+04  0.00000000000E+00 0. -1.
<mgrwt>
<rscale>  0 0.33089885E+04</rscale>
<asrwt>0</asrwt>
<pdfrwt beam="1">  1        1 0.28954935E+00 0.33089885E+04</pdfrwt>
<pdfrwt beam="2">  1       -1 0.22375937E+00 0.33089885E+04</pdfrwt>
<totfact> 0.30852581E-01</totfact>
</mgrwt>
</event>
<event>
 6    1  0.9364335E-007  0.2936739E+04  0.7818608E-02  0.8262030E-01
         -1   -1    0    0    0  501 -0.00000000000E+00  0.00000000000E+00  0.26313556628E+04  0.26313556628E+04  0.00000000000E+00 0.  1.
          1   -1    0    0  501    0  0.00000000000E+00 -0.00000000000E+00 -0.81939097897E+03  0.81939097897E+03  0.00000000000E+00 0. -1.
         23    2    1    2    0    0  0.11119423392E+03 -0.13335181156E+04  0.20393111825E+03  0.13587603439E+04  0.11835137951E+03 0.  0.
         11    1    3    3    0    0  0.13588144751E+03 -0.10564843797E+04  0.16650901690E+03  0.10781225650E+04  0.00000000000E+00 0.  1.
        -11    1    3    3    0    0 -0.24687213594E+02 -0.27703373587E+03  0.37422101343E+02  0.28063777899E+03  0.00000000000E+00 0. -1.
         22    1    1    2    0    0 -0.11119423392E+03  0.13335181156E+04  0.16080335656E+04  0.20919862978E+04  0.00000000000E+00 0.  1.
<mgrwt>
<rscale>  0 0.29367391E+04</rscale>
<asrwt>0</asrwt>
<pdfrwt beam="1">  1        1 0.12606015E+00 0.29367391E+04</pdfrwt>
<pdfrwt beam="2">  1       -1 0.40482394E+00 0.29367391E+04</pdfrwt>
<totfact> 0.12057913E-01</totfact>
</mgrwt>
</event>
<event>
 6    1  0.9364335E-007  0.2651920E+04  0.7818608E-02  0.8350776E-01
         -1   -1    0    0    0  501 -0.00000000000E+00  0.00000000000E+00  0.95236078740E+03  0.95236078740E+03  0.00000000000E+00 0.  1.
          1   -1    0    0  501    0  0.00000000000E+00 -0.00000000000E+00 -0.18461168952E+04  0.18461168952E+04  0.00000000000E+00 0. -1.
         23    2    1    2    0    0 -0.46518883810E+03  0.11574361790E+04  0.21109565361E+02  0.12515328343E+04  0.99144632404E+02 0.  0.
         13    1    3    3    0    0 -0.35836650042E+03  0.77206939540E+03  0.22244712729E+01  0.85118896151E+03  0.00000000000E+00 0. -1.
        -13    1    3    3    0    0 -0.10682233769E+03  0.38536678360E+03  0.18885094088E+02  0.40034387283E+03  0.00000000000E+00 0.  1.
         22    1    1    2    0    0  0.46518883810E+03 -0.11574361790E+04 -0.91486567312E+03  0.15469448482E+04  0.00000000000E+00 0.  1.
<mgrwt>
<rscale>  0 0.26519196E+04</rscale>
<asrwt>0</asrwt>
<pdfrwt beam="1">  1        1 0.28401798E+00 0.26519196E+04</pdfrwt>
<pdfrwt beam="2">  1       -1 0.14651705E+00 0.26519196E+04</pdfrwt>
<totfact> 0.12349584E+00</totfact>
</mgrwt>
</event>
<event>
 6    1  0.9364335E-007  0.1065972E+04  0.7818608E-02  0.9239007E-01
          2   -1    0    0  501    0  0.00000000000E+00  0.00000000000E+00  0.67245332966E+03  0.67245332966E+03  0.00000000000E+00 0. -1.
         -2   -1    0    0    0  501 -0.00000000000E+00 -0.00000000000E+00 -0.42244450680E+03  0.42244450680E+03  0.00000000000E+00 0.  1.
         23    2    1    2    0    0 -0.19559446920E+03  0.51784386590E+02 -0.37625349219E+03  0.43676159955E+03  0.90858050701E+02 0.  0.
         13    1    3    3    0    0 -0.18744737174E+03  0.60980596077E+02 -0.29635075532E+03  0.35591982306E+03  0.00000000000E+00 0. -1.
        -13    1    3    3    0    0 -0.81470974619E+01 -0.91962094871E+01 -0.79902736870E+02  0.80841776485E+02  0.00000000000E+00 0.  1.
         22    1    1    2    0    0  0.19559446920E+03 -0.51784386590E+02  0.62626231505E+03  0.65813623691E+03  0.00000000000E+00 0. -1.
<mgrwt>
<rscale>  0 0.10659723E+04</rscale>
<asrwt>0</asrwt>
<pdfrwt beam="1">  1        2 0.10345436E+00 0.10659723E+04</pdfrwt>
<pdfrwt beam="2">  1       -2 0.64991463E-01 0.10659723E+04</pdfrwt>
<totfact> 0.93687898E+01</totfact>
</mgrwt>
</event>
<event>
 6    1  0.9364335E-007  0.4115244E+04  0.7818608E-02  0.7981693E-01
         -2   -1    0    0    0  501 -0.00000000000E+00  0.00000000000E+00  0.12556044581E+04  0.12556044581E+04  0.00000000000E+00 0.  1.
          2   -1    0    0  501    0  0.00000000000E+00 -0.00000000000E+00 -0.33719285593E+04  0.33719285593E+04  0.00000000000E+00 0. -1.
         23    2    1    2    0    0  0.37049695146E+03 -0.15080973843E+04  0.45766975332E+03  0.16213610205E+04  0.87887679840E+02 0.  0.
         13    1    3    3    0    0  0.11424871657E+03 -0.38619373300E+03  0.83871282062E+02  0.41137909597E+03  0.00000000000E+00 0.  1.
        -13    1    3    3    0    0  0.25624823488E+03 -0.11219036513E+04  0.37379847126E+03  0.12099819245E+04  0.00000000000E+00 0. -1.
         22    1    1    2    0    0 -0.37049695146E+03  0.15080973843E+04 -0.25739938546E+04  0.30061719969E+04  0.00000000000E+00 0. -1.
<mgrwt>
<rscale>  0 0.41152441E+04</rscale>
<asrwt>0</asrwt>
<pdfrwt beam="1">  1        2 0.51875824E+00 0.41152441E+04</pdfrwt>
<pdfrwt beam="2">  1       -2 0.19316992E+00 0.41152441E+04</pdfrwt>
<totfact> 0.11477663E-01</totfact>
</mgrwt>
</event>
<event>
 6    1  0.9364335E-007  0.8505998E+03  0.7818608E-02  0.9489532E-01
          1   -1    0    0  501    0  0.00000000000E+00  0.00000000000E+00  0.15028104521E+04  0.15028104521E+04  0.00000000000E+00 0. -1.
         -1   -1    0    0    0  501 -0.00000000000E+00 -0.00000000000E+00 -0.12036115477E+03  0.12036115477E+03  0.00000000000E+00 0.  1.
         23    2    1    2    0    0  0.29279940008E+03  0.55339457416E+02  0.13303218127E+03  0.33871176937E+03  0.90742257087E+02 0.  0.
         13    1    3    3    0    0  0.53347511315E+02 -0.17838372374E+02  0.24073261268E+01  0.56302395256E+02  0.00000000000E+00 0. -1.
        -13    1    3    3    0    0  0.23945188876E+03  0.73177829789E+02  0.13062485514E+03  0.28240937411E+03  0.00000000000E+00 0.  1.
         22    1    1    2    0    0 -0.29279940008E+03 -0.55339457416E+02  0.12494171160E+04  0.12844598375E+04  0.00000000000E+00 0. -1.
<mgrwt>
<rscale>  0 0.85059979E+03</rscale>
<asrwt>0</asrwt>
<pdfrwt beam="1">  1        1 0.23120159E+00 0.85059979E+03</pdfrwt>
<pdfrwt beam="2">  1       -1 0.18517102E-01 0.85059979E+03</pdfrwt>
<totfact> 0.15328579E+02</totfact>
</mgrwt>
</event>
<event>
 6    1  0.9364335E-007  0.8749623E+03  0.7818608E-02  0.9457433E-01
         -1   -1    0    0    0  501 -0.00000000000E+00  0.00000000000E+00  0.54320178055E+03  0.54320178055E+03  0.00000000000E+00 0.  1.
          1   -1    0    0  501    0  0.00000000000E+00 -0.00000000000E+00 -0.35233639424E+03  0.35233639424E+03  0.00000000000E+00 0. -1.
         23    2    1    2    0    0  0.37072841153E+01  0.29644918324E+03  0.41895302766E+03  0.52147957734E+03  0.92322521591E+02 0.  0.
         11    1    3    3    0    0 -0.37918449541E+02  0.11613581842E+03  0.13043360725E+03  0.17871279483E+03  0.00000000000E+00 0. -1.
        -11    1    3    3    0    0  0.41625733656E+02  0.18031336482E+03  0.28851942041E+03  0.34276678250E+03  0.00000000000E+00 0.  1.
         22    1    1    2    0    0 -0.37072841153E+01 -0.29644918324E+03 -0.22808764135E+03  0.37405859746E+03  0.00000000000E+00 0. -1.
<mgrwt>
<rscale>  0 0.87496230E+03</rscale>
<asrwt>0</asrwt>
<pdfrwt beam="1">  1        1 0.54205599E-01 0.87496230E+03</pdfrwt>
<pdfrwt beam="2">  1       -1 0.83569505E-01 0.87496230E+03</pdfrwt>
<totfact> 0.10181206E+02</totfact>
</mgrwt>
</event>
<event>
 6    1  0.1277118E-006  0.4050648E+04  0.7818608E-02  0.7994406E-01
          1   -1    0    0  501    0  0.00000000000E+00  0.00000000000E+00  0.16520338612E+04  0.16520338612E+04  0.00000000000E+00 0. -1.
         -1   -1    0    0    0  501 -0.00000000000E+00 -0.00000000000E+00 -0.24829624799E+04  0.24829624799E+04  0.00000000000E+00 0.  1.
         23    2    1    2    0    0 -0.58445870940E+03  0.18983147840E+04 -0.81448092544E+03  0.21486777542E+04  0.90807000807E+02 0.  0.
         11    1    3    3    0    0 -0.40342428742E+03  0.11636712916E+04 -0.49476166847E+03  0.13272796010E+04  0.00000000000E+00 0. -1.
        -11    1    3    3    0    0 -0.18103442198E+03  0.73464349235E+03 -0.31971925697E+03  0.82139815319E+03  0.00000000000E+00 0.  1.
         22    1    1    2    0    0  0.58445870940E+03 -0.18983147840E+04 -0.16447693194E+02  0.19863185869E+04  0.00000000000E+00 0. -1.
<mgrwt>
<rscale>  0 0.40506484E+04</rscale>
<asrwt>0</asrwt>
<pdfrwt beam="1">  1        1 0.25415905E+00 0.40506484E+04</pdfrwt>
<pdfrwt beam="2">  1       -1 0.38199423E+00 0.40506484E+04</pdfrwt>
<totfact> 0.37975197E-02</totfact>
</mgrwt>
</event>
<event>
 6    1  0.9364335E-007  0.4761200E+04  0.7818608E-02  0.7866439E-01
         -2   -1    0    0    0  501 -0.00000000000E+00  0.00000000000E+00  0.15655563979E+04  0.15655563979E+04  0.00000000000E+00 0.  1.
          2   -1    0    0  501    0  0.00000000000E+00 -0.00000000000E+00 -0.36199636931E+04  0.36199636931E+04  0.00000000000E+00 0. -1.
         23    2    1    2    0    0 -0.75480601640E+03 -0.36660719639E+02 -0.34853092558E+04  0.35673246295E+04  0.85722067323E+02 0.  0.
         13    1    3    3    0    0 -0.52993860184E+03 -0.41988453201E+02 -0.22741897566E+04  0.23354950227E+04  0.00000000000E+00 0. -1.
        -13    1    3    3    0    0 -0.22486741457E+03  0.53277335620E+01 -0.12111194991E+04  0.12318296068E+04  0.00000000000E+00 0.  1.
         22    1    1    2    0    0  0.75480601640E+03  0.36660719639E+02  0.14309019606E+04  0.16181954615E+04  0.00000000000E+00 0.  1.
<mgrwt>
<rscale>  0 0.47612004E+04</rscale>
<asrwt>0</asrwt>
<pdfrwt beam="1">  1        2 0.55691749E+00 0.47612004E+04</pdfrwt>
<pdfrwt beam="2">  1       -2 0.24085483E+00 0.47612004E+04</pdfrwt>
<totfact> 0.36173554E-02</totfact>
</mgrwt>
</event>
<event>
 6    1  0.9364335E-007  0.1385689E+04  0.7818608E-02  0.8964243E-01
         -1   -1    0    0    0  501 -0.00000000000E+00  0.00000000000E+00  0.57698859630E+03  0.57698859630E+03  0.00000000000E+00 0.  1.
          1   -1    0    0  501    0  0.00000000000E+00 -0.00000000000E+00 -0.83196405558E+03  0.83196405558E+03  0.00000000000E+00 0. -1.
         23    2    1    2    0    0 -0.15650900568E+03  0.55033100889E+03 -0.51983746791E+03  0.77846778147E+03  0.91770395716E+02 0.  0.
         13    1    3    3    0    0  0.10593902894E+02  0.70794323318E+02 -0.60403755932E+02  0.93662589774E+02  0.00000000000E+00 0. -1.
        -13    1    3    3    0    0 -0.16710290858E+03  0.47953668557E+03 -0.45943371198E+03  0.68480519169E+03  0.00000000000E+00 0.  1.
         22    1    1    2    0    0  0.15650900568E+03 -0.55033100889E+03  0.26486200864E+03  0.63048487042E+03  0.00000000000E+00 0. -1.
<mgrwt>
<rscale>  0 0.13856894E+04</rscale>
<asrwt>0</asrwt>
<pdfrwt beam="1">  1        1 0.12799447E+00 0.13856894E+04</pdfrwt>
<pdfrwt beam="2">  1       -1 0.88767476E-01 0.13856894E+04</pdfrwt>
<totfact> 0.25229162E+01</totfact>
</mgrwt>
</event>
<event>
 6    1  0.9364335E-007  0.3493873E+04  0.7818608E-02  0.8115244E-01
          2   -1    0    0  501    0  0.00000000000E+00  0.00000000000E+00  0.26917164826E+04  0.26917164826E+04  0.00000000000E+00 0. -1.
         -2   -1    0    0    0  501 -0.00000000000E+00 -0.00000000000E+00 -0.11337697192E+04  0.11337697192E+04  0.00000000000E+00 0.  1.
         23    2    1    2    0    0 -0.11595003572E+04 -0.12956286381E+04  0.60760329567E+03  0.18440101477E+04  0.89983408282E+02 0.  0.
         13    1    3    3    0    0 -0.79890213999E+03 -0.88274895406E+03  0.45948151551E+03  0.12761714651E+04  0.00000000000E+00 0. -1.
        -13    1    3    3    0    0 -0.36059821720E+03 -0.41287968407E+03  0.14812178016E+03  0.56783868266E+03  0.00000000000E+00 0.  1.
         22    1    1    2    0    0  0.11595003572E+04  0.12956286381E+04  0.95034346768E+03  0.19814760541E+04  0.00000000000E+00 0. -1.
<mgrwt>
<rscale>  0 0.34938727E+04</rscale>
<asrwt>0</asrwt>
<pdfrwt beam="1">  1        2 0.41411023E+00 0.34938727E+04</pdfrwt>
<pdfrwt beam="2">  1       -2 0.17442611E+00 0.34938727E+04</pdfrwt>
<totfact> 0.43776701E-01</totfact>
</mgrwt>
</event>
<event>
 6    1  0.9364335E-007  0.2053045E+04  0.7818608E-02  0.8582214E-01
         -1   -1    0    0    0  501 -0.00000000000E+00  0.00000000000E+00  0.15832478811E+04  0.15832478811E+04  0.00000000000E+00 0.  1.
          1   -1    0    0  501    0  0.00000000000E+00 -0.00000000000E+00 -0.66556110530E+03  0.66556110530E+03  0.00000000000E+00 0. -1.
         23    2    1    2    0    0 -0.93899480765E+02  0.61358106499E+03  0.13525001616E+04  0.14909425626E+04  0.91401324514E+02 0.  0.
         11    1    3    3    0    0 -0.10483789504E+03  0.43771666587E+03  0.10109369545E+04  0.11066076042E+04  0.00000000000E+00 0.  1.
        -11    1    3    3    0    0  0.10938414270E+02  0.17586439912E+03  0.34156320709E+03  0.38433495837E+03  0.00000000000E+00 0. -1.
         22    1    1    2    0    0  0.93899480765E+02 -0.61358106499E+03 -0.43481338581E+03  0.75786642377E+03  0.00000000000E+00 0. -1.
<mgrwt>
<rscale>  0 0.20530448E+04</rscale>
<asrwt>0</asrwt>
<pdfrwt beam="1">  1        1 0.10239402E+00 0.20530448E+04</pdfrwt>
<pdfrwt beam="2">  1       -1 0.24357660E+00 0.20530448E+04</pdfrwt>
<totfact> 0.20851212E+00</totfact>
</mgrwt>
</event>
<event>
 6    1  0.9364335E-007  0.1316584E+04  0.7818608E-02  0.9016516E-01
         -2   -1    0    0    0  501 -0.00000000000E+00  0.00000000000E+00  0.46985088633E+03  0.46985088633E+03  0.00000000000E+00 0.  1.
          2   -1    0    0  501    0  0.00000000000E+00 -0.00000000000E+00 -0.92231072225E+03  0.92231072225E+03  0.00000000000E+00 0. -1.
         23    2    1    2    0    0  0.14055174990E+03 -0.31061319384E+03  0.36425116873E+03  0.50714623260E+03  0.91011190139E+02 0.  0.
         13    1    3    3    0    0  0.56794129247E+02 -0.48805404674E+02  0.10748222316E+03  0.13099606459E+03  0.00000000000E+00 0. -1.
        -13    1    3    3    0    0  0.83757620652E+02 -0.26180778916E+03  0.25676894558E+03  0.37615016801E+03  0.00000000000E+00 0.  1.
         22    1    1    2    0    0 -0.14055174990E+03  0.31061319384E+03 -0.81671100466E+03  0.88501537598E+03  0.00000000000E+00 0. -1.
<mgrwt>
<rscale>  0 0.13165842E+04</rscale>
<asrwt>0</asrwt>
<pdfrwt beam="1">  1        2 0.14189396E+00 0.13165842E+04</pdfrwt>
<pdfrwt beam="2">  1       -2 0.72284753E-01 0.13165842E+04</pdfrwt>
<totfact> 0.48057689E+01</totfact>
</mgrwt>
</event>
<event>
 6    1  0.9364335E-007  0.3374106E+04  0.7818608E-02  0.8144291E-01
         -1   -1    0    0    0  501 -0.00000000000E+00  0.00000000000E+00  0.35863856484E+04  0.35863856484E+04  0.00000000000E+00 0.  1.
          1   -1    0    0  501    0  0.00000000000E+00 -0.00000000000E+00 -0.79359789093E+03  0.79359789093E+03  0.00000000000E+00 0. -1.
         23    2    1    2    0    0  0.80304784635E+03  0.12769181315E+04  0.42003710560E+03  0.15683378622E+04  0.88581723301E+02 0.  0.
         11    1    3    3    0    0  0.34319118304E+03  0.50273750637E+03  0.20786911632E+03  0.64322216842E+03  0.00000000000E+00 0. -1.
        -11    1    3    3    0    0  0.45985666331E+03  0.77418062513E+03  0.21216798928E+03  0.92511569373E+03  0.00000000000E+00 0.  1.
         22    1    1    2    0    0 -0.80304784635E+03 -0.12769181315E+04  0.23727506518E+04  0.28116456772E+04  0.00000000000E+00 0.  1.
<mgrwt>
<rscale>  0 0.33741062E+04</rscale>
<asrwt>0</asrwt>
<pdfrwt beam="1">  1        1 0.12209199E+00 0.33741062E+04</pdfrwt>
<pdfrwt beam="2">  1       -1 0.55175163E+00 0.33741062E+04</pdfrwt>
<totfact> 0.13519844E-02</totfact>
</mgrwt>
</event>
<event>
 6    1  0.1723068E-006  0.3936434E+04  0.7818608E-02  0.8017494E-01
         -1   -1    0    0    0  501 -0.00000000000E+00  0.00000000000E+00  0.25072717743E+04  0.25072717743E+04  0.00000000000E+00 0.  1.
          1   -1    0    0  501    0  0.00000000000E+00 -0.00000000000E+00 -0.15450575018E+04  0.15450575018E+04  0.00000000000E+00 0. -1.
         23    2    1    2    0    0  0.36588854281E+03 -0.11729555271E+04 -0.11001277481E+04  0.16517139999E+04  0.90437718728E+02 0.  0.
         13    1    3    3    0    0  0.97982503281E+02 -0.44657510856E+03 -0.38341697754E+03  0.59668959870E+03  0.00000000000E+00 0. -1.
        -13    1    3    3    0    0  0.26790603953E+03 -0.72638041851E+03 -0.71671077059E+03  0.10550244012E+04  0.00000000000E+00 0.  1.
         22    1    1    2    0    0 -0.36588854281E+03  0.11729555271E+04  0.20623420207E+04  0.24006152762E+04  0.00000000000E+00 0.  1.
<mgrwt>
<rscale>  0 0.39364345E+04</rscale>
<asrwt>0</asrwt>
<pdfrwt beam="1">  1        1 0.23770115E+00 0.39364345E+04</pdfrwt>
<pdfrwt beam="2">  1       -1 0.38573412E+00 0.39364345E+04</pdfrwt>
<totfact> 0.42826948E-02</totfact>
</mgrwt>
</event>
<event>
 6    1  0.9364335E-007  0.1150752E+04  0.7818608E-02  0.9157090E-01
          1   -1    0    0  501    0  0.00000000000E+00  0.00000000000E+00  0.16789834483E+03  0.16789834483E+03  0.00000000000E+00 0. -1.
         -1   -1    0    0    0  501 -0.00000000000E+00 -0.00000000000E+00 -0.19717727655E+04  0.19717727655E+04  0.00000000000E+00 0.  1.
         23    2    1    2    0    0 -0.22588961593E+03  0.11653993773E+03 -0.18596309567E+04  0.18794472317E+04  0.97400851326E+02 0.  0.
         11    1    3    3    0    0 -0.15909243994E+03  0.28601423245E+02 -0.11330881449E+04  0.11445598236E+04  0.00000000000E+00 0.  1.
        -11    1    3    3    0    0 -0.66797175994E+02  0.87938514485E+02 -0.72654281189E+03  0.73488740809E+03  0.00000000000E+00 0. -1.
         22    1    1    2    0    0  0.22588961593E+03 -0.11653993773E+03  0.55756536109E+02  0.26022387859E+03  0.00000000000E+00 0. -1.
<mgrwt>
<rscale>  0 0.11507517E+04</rscale>
<asrwt>0</asrwt>
<pdfrwt beam="1">  1        1 0.25830515E-01 0.11507517E+04</pdfrwt>
<pdfrwt beam="2">  1       -1 0.30334965E+00 0.11507517E+04</pdfrwt>
<totfact> 0.58841628E+00</totfact>
</mgrwt>
</event>
<event>
 6    1  0.9364335E-007  0.2370427E+04  0.7818608E-02  0.8450659E-01
         -2   -1    0    0    0  501 -0.00000000000E+00  0.00000000000E+00  0.10395801750E+04  0.10395801750E+04  0.00000000000E+00 0.  1.
          2   -1    0    0  501    0  0.00000000000E+00 -0.00000000000E+00 -0.13512484065E+04  0.13512484065E+04  0.00000000000E+00 0. -1.
         23    2    1    2    0    0 -0.44525906150E+03  0.78116573828E+03 -0.93196486830E+03  0.12984717442E+04  0.94840983600E+02 0.  0.
         13    1    3    3    0    0 -0.76774421860E+02  0.18017549157E+03 -0.15856244799E+03  0.25199120923E+03  0.00000000000E+00 0. -1.
        -13    1    3    3    0    0 -0.36848463964E+03  0.60099024671E+03 -0.77340242030E+03  0.10464805349E+04  0.00000000000E+00 0.  1.
         22    1    1    2    0    0  0.44525906150E+03 -0.78116573828E+03  0.62029663673E+03  0.10923568373E+04  0.00000000000E+00 0.  1.
<mgrwt>
<rscale>  0 0.23704270E+04</rscale>
<asrwt>0</asrwt>
<pdfrwt beam="1">  1        2 0.20788437E+00 0.23704270E+04</pdfrwt>
<pdfrwt beam="2">  1       -2 0.15993541E+00 0.23704270E+04</pdfrwt>
<totfact> 0.35092337E+00</totfact>
</mgrwt>
</event>
<event>
 6    1  0.9364335E-007  0.5296615E+04  0.7818608E-02  0.7784312E-01
          2   -1    0    0  501    0  0.00000000000E+00  0.00000000000E+00  0.51920657409E+04  0.51920657409E+04  0.00000000000E+00 0. -1.
         -2   -1    0    0    0  501 -0.00000000000E+00 -0.00000000000E+00 -0.13508171950E+04  0.13508171950E+04  0.00000000000E+00 0.  1.
         23    2    1    2    0    0 -0.11585308450E+04  0.21588505257E+04  0.68162823304E+03  0.25446295881E+04  0.87711924226E+02 0.  0.
         11    1    3    3    0    0 -0.42540929664E+03  0.83815312329E+03  0.22328591856E+03  0.96609022828E+03  0.00000000000E+00 0. -1.
        -11    1    3    3    0    0 -0.73312154834E+03  0.13206974024E+04  0.45834231448E+03  0.15785393598E+04  0.00000000000E+00 0.  1.
         22    1    1    2    0    0  0.11585308450E+04 -0.21588505257E+04  0.31596203129E+04  0.39982533477E+04  0.00000000000E+00 0. -1.
<mgrwt>
<rscale>  0 0.52966146E+04</rscale>
<asrwt>0</asrwt>
<pdfrwt beam="1">  1        2 0.79877934E+00 0.52966146E+04</pdfrwt>
<pdfrwt beam="2">  1       -2 0.20781803E+00 0.52966146E+04</pdfrwt>
<totfact> 0.15560110E-03</totfact>
</mgrwt>
</event>
<event>
 6    1  0.9364335E-007  0.2251228E+04  0.7818608E-02  0.8497403E-01
         -1   -1    0    0    0  501 -0.00000000000E+00  0.00000000000E+00  0.46398170129E+03  0.46398170129E+03  0.00000000000E+00 0.  1.
          1   -1    0    0  501    0  0.00000000000E+00 -0.00000000000E+00 -0.27307270854E+04  0.27307270854E+04  0.00000000000E+00 0. -1.
         23    2    1    2    0    0  0.53549350264E+03 -0.84283958889E+02 -0.25321749442E+04  0.25911278655E+04  0.90424500789E+02 0.  0.
         11    1    3    3    0    0  0.25769267687E+03 -0.74267033659E+02 -0.10995016284E+04  0.11317353660E+04  0.00000000000E+00 0. -1.
        -11    1    3    3    0    0  0.27780082577E+03 -0.10016925230E+02 -0.14326733158E+04  0.14593924995E+04  0.00000000000E+00 0.  1.
         22    1    1    2    0    0 -0.53549350264E+03  0.84283958889E+02  0.26542956005E+03  0.60358092121E+03  0.00000000000E+00 0.  1.
<mgrwt>
<rscale>  0 0.22512285E+04</rscale>
<asrwt>0</asrwt>
<pdfrwt beam="1">  1        1 0.42011186E+00 0.22512285E+04</pdfrwt>
<pdfrwt beam="2">  1       -1 0.71381801E-01 0.22512285E+04</pdfrwt>
<totfact> 0.16794539E+00</totfact>
</mgrwt>
</event>
<event>
 6    1  0.9364335E-007  0.1892140E+04  0.7818608E-02  0.8658779E-01
          2   -1    0    0  501    0  0.00000000000E+00  0.00000000000E+00  0.19634997063E+04  0.19634997063E+04  0.00000000000E+00 0. -1.
         -2   -1    0    0    0  501 -0.00000000000E+00 -0.00000000000E+00 -0.45584338253E+03  0.45584338253E+03  0.00000000000E+00 0.  1.
         23    2    1    2    0    0 -0.38429076485E+02  0.58147279529E+03 -0.19336430312E+03  0.62127229525E+03  0.94879426330E+02 0.  0.
         11    1    3    3    0    0 -0.38652327560E+02  0.33684301350E+03 -0.15813943317E+03  0.37411936396E+03  0.00000000000E+00 0. -1.
        -11    1    3    3    0    0  0.22325107545E+00  0.24462978180E+03 -0.35224869953E+02  0.24715293129E+03  0.00000000000E+00 0.  1.
         22    1    1    2    0    0  0.38429076485E+02 -0.58147279529E+03  0.17010206269E+04  0.17980707936E+04  0.00000000000E+00 0. -1.
<mgrwt>
<rscale>  0 0.18921399E+04</rscale>
<asrwt>0</asrwt>
<pdfrwt beam="1">  1        2 0.30207687E+00 0.18921399E+04</pdfrwt>
<pdfrwt beam="2">  1       -2 0.70129752E-01 0.18921399E+04</pdfrwt>
<totfact> 0.12146151E+01</totfact>
</mgrwt>
</event>
<event>
 6    1  0.9364335E-007  0.2209733E+04  0.7818608E-02  0.8514388E-01
          1   -1    0    0  501    0  0.00000000000E+00  0.00000000000E+00  0.20307358138E+04  0.20307358138E+04  0.00000000000E+00 0. -1.
         -1   -1    0    0    0  501 -0.00000000000E+00 -0.00000000000E+00 -0.60112682406E+03  0.60112682406E+03  0.00000000000E+00 0.  1.
         23    2    1    2    0    0  0.68169596964E+03 -0.10018857482E+03 -0.31032213693E+03  0.76047078390E+03  0.85257486188E+02 0.  0.
         13    1    3    3    0    0  0.26502829065E+03 -0.27661696541E+02 -0.16425334108E+03  0.31302447884E+03  0.00000000000E+00 0. -1.
        -13    1    3    3    0    0  0.41666767899E+03 -0.72526878282E+02 -0.14606879585E+03  0.44744630506E+03  0.00000000000E+00 0.  1.
         22    1    1    2    0    0 -0.68169596964E+03  0.10018857482E+03  0.17399311267E+04  0.18713918540E+04  0.00000000000E+00 0.  1.
<mgrwt>
<rscale>  0 0.22097328E+04</rscale>
<asrwt>0</asrwt>
<pdfrwt beam="1">  1        1 0.31242089E+00 0.22097328E+04</pdfrwt>
<pdfrwt beam="2">  1       -1 0.92481051E-01 0.22097328E+04</pdfrwt>
<totfact> 0.29416514E+00</totfact>
</mgrwt>
</event>
<event>
 6    1  0.9364335E-007  0.1853410E+04  0.7818608E-02  0.8678401E-01
          1   -1    0    0  501    0  0.00000000000E+00  0.00000000000E+00  0.75808539974E+03  0.75808539974E+03  0.00000000000E+00 0. -1.
         -1   -1    0    0    0  501 -0.00000000000E+00 -0.00000000000E+00 -0.11328299758E+04  0.11328299758E+04  0.00000000000E+00 0.  1.
         23    2    1    2    0    0  0.95952901555E+02  0.87477493007E+03 -0.47614179527E+03  0.10050714086E+04  0.94970467314E+02 0.  0.
         11    1    3    3    0    0  0.94958335829E+02  0.77630474094E+03 -0.38861263478E+03  0.87331890868E+03  0.00000000000E+00 0.  1.
        -11    1    3    3    0    0  0.99456572609E+00  0.98470189134E+02 -0.87529160499E+02  0.13175249996E+03  0.00000000000E+00 0. -1.
         22    1    1    2    0    0 -0.95952901555E+02 -0.87477493007E+03  0.10139721923E+03  0.88584396688E+03  0.00000000000E+00 0. -1.
<mgrwt>
<rscale>  0 0.18534097E+04</rscale>
<asrwt>0</asrwt>
<pdfrwt beam="1">  1        1 0.11662852E+00 0.18534097E+04</pdfrwt>
<pdfrwt beam="2">  1       -1 0.17428153E+00 0.18534097E+04</pdfrwt>
<totfact> 0.51788544E+00</totfact>
</mgrwt>
</event>
<event>
 6    1  0.9364335E-007  0.1204181E+04  0.7818608E-02  0.9109204E-01
         -2   -1    0    0    0  501 -0.00000000000E+00  0.00000000000E+00  0.14624917594E+03  0.14624917594E+03  0.00000000000E+00 0.  1.
          2   -1    0    0  501    0  0.00000000000E+00 -0.00000000000E+00 -0.24787364789E+04  0.24787364789E+04  0.00000000000E+00 0. -1.
         23    2    1    2    0    0  0.58943466694E+03 -0.29142914135E+02 -0.13914820204E+04  0.15142320918E+04  0.91619204649E+02 0.  0.
         13    1    3    3    0    0  0.27654829513E+03  0.94007956028E+01 -0.55113743341E+03  0.61670074186E+03  0.00000000000E+00 0.  1.
        -13    1    3    3    0    0  0.31288637181E+03 -0.38543709738E+02 -0.84034458703E+03  0.89753134997E+03  0.00000000000E+00 0. -1.
         22    1    1    2    0    0 -0.58943466694E+03  0.29142914135E+02 -0.94100528246E+03  0.11107535630E+04  0.00000000000E+00 0.  1.
<mgrwt>
<rscale>  0 0.12041813E+04</rscale>
<asrwt>0</asrwt>
<pdfrwt beam="1">  1        2 0.38134408E+00 0.12041813E+04</pdfrwt>
<pdfrwt beam="2">  1       -2 0.22499873E-01 0.12041813E+04</pdfrwt>
<totfact> 0.61651156E+01</totfact>
</mgrwt>
</event>
<event>
 6    1  0.9364335E-007  0.4874907E+03  0.7818608E-02  0.1017097E+00
          2   -1    0    0  501    0  0.00000000000E+00  0.00000000000E+00  0.23257810027E+03  0.23257810027E+03  0.00000000000E+00 0. -1.
         -2   -1    0    0    0  501 -0.00000000000E+00 -0.00000000000E+00 -0.25544879887E+03  0.25544879887E+03  0.00000000000E+00 0.  1.
         23    2    1    2    0    0  0.11575102430E+03 -0.97892966407E+02  0.16813055078E+03  0.24417692526E+03  0.91504951905E+02 0.  0.
         11    1    3    3    0    0  0.35287566638E+02 -0.20706981634E+02 -0.17751505116E+01  0.40952931604E+02  0.00000000000E+00 0.  1.
        -11    1    3    3    0    0  0.80463457665E+02 -0.77185984773E+02  0.16990570129E+03  0.20322399365E+03  0.00000000000E+00 0. -1.
         22    1    1    2    0    0 -0.11575102430E+03  0.97892966407E+02 -0.19100124938E+03  0.24384997388E+03  0.00000000000E+00 0.  1.
<mgrwt>
<rscale>  0 0.48749070E+03</rscale>
<asrwt>0</asrwt>
<pdfrwt beam="1">  1        2 0.35781246E-01 0.48749070E+03</pdfrwt>
<pdfrwt beam="2">  1       -2 0.39299815E-01 0.48749070E+03</pdfrwt>
<totfact> 0.89561063E+02</totfact>
</mgrwt>
</event>
<event>
 6    1  0.9364335E-007  0.1995702E+04  0.7818608E-02  0.8608633E-01
         -3   -1    0    0    0  501 -0.00000000000E+00  0.00000000000E+00  0.90428422657E+03  0.90428422657E+03  0.00000000000E+00 0.  1.
          3   -1    0    0  501    0  0.00000000000E+00 -0.00000000000E+00 -0.11010996149E+04  0.11010996149E+04  0.00000000000E+00 0. -1.
         23    2    1    2    0    0  0.47135925340E+03 -0.33714141097E+03 -0.91238506350E+03  0.10845777617E+04  0.89546302275E+02 0.  0.
         13    1    3    3    0    0  0.24801010044E+03 -0.15763233937E+03 -0.53911475329E+03  0.61400462665E+03  0.00000000000E+00 0. -1.
        -13    1    3    3    0    0  0.22334915296E+03 -0.17950907160E+03 -0.37327031021E+03  0.47057313501E+03  0.00000000000E+00 0.  1.
         22    1    1    2    0    0 -0.47135925340E+03  0.33714141097E+03  0.71556967512E+03  0.92080607986E+03  0.00000000000E+00 0.  1.
<mgrwt>
<rscale>  0 0.19957024E+04</rscale>
<asrwt>0</asrwt>
<pdfrwt beam="1">  1        3 0.16939994E+00 0.19957024E+04</pdfrwt>
<pdfrwt beam="2">  1       -3 0.13912065E+00 0.19957024E+04</pdfrwt>
<totfact> 0.22287525E-01</totfact>
</mgrwt>
</event>
<event>
 6    1  0.9364335E-007  0.1386624E+04  0.7818608E-02  0.8963558E-01
         -2   -1    0    0    0  501 -0.00000000000E+00  0.00000000000E+00  0.10905639054E+04  0.10905639054E+04  0.00000000000E+00 0.  1.
          2   -1    0    0  501    0  0.00000000000E+00 -0.00000000000E+00 -0.44076441587E+03  0.44076441587E+03  0.00000000000E+00 0. -1.
         23    2    1    2    0    0 -0.41312139619E+03 -0.49106990908E+03  0.60732791572E+03  0.88819320470E+03  0.90669885099E+02 0.  0.
         13    1    3    3    0    0 -0.10035476626E+03 -0.15187736163E+03  0.22181426286E+03  0.28694839134E+03  0.00000000000E+00 0.  1.
        -13    1    3    3    0    0 -0.31276662993E+03 -0.33919254746E+03  0.38551365286E+03  0.60124481336E+03  0.00000000000E+00 0. -1.
         22    1    1    2    0    0  0.41312139619E+03  0.49106990908E+03  0.42471573818E+02  0.64313511658E+03  0.00000000000E+00 0. -1.
<mgrwt>
<rscale>  0 0.13866243E+04</rscale>
<asrwt>0</asrwt>
<pdfrwt beam="1">  1        2 0.67809910E-01 0.13866243E+04</pdfrwt>
<pdfrwt beam="2">  1       -2 0.16777906E+00 0.13866243E+04</pdfrwt>
<totfact> 0.15321112E+01</totfact>
</mgrwt>
</event>
<event>
 6    1  0.9364335E-007  0.2118340E+04  0.7818608E-02  0.8553207E-01
         -1   -1    0    0    0  501 -0.00000000000E+00  0.00000000000E+00  0.26390510346E+03  0.26390510346E+03  0.00000000000E+00 0.  1.
          1   -1    0    0  501    0  0.00000000000E+00 -0.00000000000E+00 -0.42509247211E+04  0.42509247211E+04  0.00000000000E+00 0. -1.
         23    2    1    2    0    0  0.41267292479E+03 -0.17381278949E+03 -0.40383398345E+04  0.40641152882E+04  0.91294180769E+02 0.  0.
         13    1    3    3    0    0  0.45790574269E+02 -0.14479403734E+02 -0.23892140351E+03  0.24370036290E+03  0.00000000000E+00 0.  1.
        -13    1    3    3    0    0  0.36688235052E+03 -0.15933338576E+03 -0.37994184310E+04  0.38204149252E+04  0.00000000000E+00 0. -1.
         22    1    1    2    0    0 -0.41267292479E+03  0.17381278949E+03  0.51320216933E+02  0.45071453639E+03  0.00000000000E+00 0.  1.
<mgrwt>
<rscale>  0 0.21183397E+04</rscale>
<asrwt>0</asrwt>
<pdfrwt beam="1">  1        1 0.65398842E+00 0.21183397E+04</pdfrwt>
<pdfrwt beam="2">  1       -1 0.40600785E-01 0.21183397E+04</pdfrwt>
<totfact> 0.31104288E-01</totfact>
</mgrwt>
</event>
<event>
 6    1  0.9364335E-007  0.2274738E+04  0.7818608E-02  0.8487949E-01
         -2   -1    0    0    0  501 -0.00000000000E+00  0.00000000000E+00  0.11722906519E+04  0.11722906519E+04  0.00000000000E+00 0.  1.
          2   -1    0    0  501    0  0.00000000000E+00 -0.00000000000E+00 -0.11034873219E+04  0.11034873219E+04  0.00000000000E+00 0. -1.
         23    2    1    2    0    0  0.98560203188E+03  0.40349309404E+03  0.42906623329E+03  0.11514971363E+04  0.87348612702E+02 0.  0.
         13    1    3    3    0    0  0.22588738949E+03  0.12373433071E+03  0.78363709487E+02  0.26921398235E+03  0.00000000000E+00 0. -1.
        -13    1    3    3    0    0  0.75971464238E+03  0.27975876333E+03  0.35070252380E+03  0.88228315393E+03  0.00000000000E+00 0.  1.
         22    1    1    2    0    0 -0.98560203188E+03 -0.40349309404E+03 -0.36026290320E+03  0.11242808375E+04  0.00000000000E+00 0. -1.
<mgrwt>
<rscale>  0 0.22747377E+04</rscale>
<asrwt>0</asrwt>
<pdfrwt beam="1">  1        2 0.16976728E+00 0.22747377E+04</pdfrwt>
<pdfrwt beam="2">  1       -2 0.18035241E+00 0.22747377E+04</pdfrwt>
<totfact> 0.35508687E+00</totfact>
</mgrwt>
</event>
<event>
 6    1  0.9364335E-007  0.3694707E+04  0.7818608E-02  0.8069136E-01
         -2   -1    0    0    0  501 -0.00000000000E+00  0.00000000000E+00  0.88774876843E+03  0.88774876843E+03  0.00000000000E+00 0.  1.
          2   -1    0    0  501    0  0.00000000000E+00 -0.00000000000E+00 -0.38442356623E+04  0.38442356623E+04  0.00000000000E+00 0. -1.
         23    2    1    2    0    0  0.79568094226E+03  0.15643564324E+04 -0.22127495728E+04  0.28258195868E+04  0.93147493869E+02 0.  0.
         11    1    3    3    0    0  0.76051019536E+03  0.14423708275E+04 -0.20557872927E+04  0.26239418352E+04  0.00000000000E+00 0.  1.
        -11    1    3    3    0    0  0.35170746903E+02  0.12198560486E+03 -0.15696228014E+03  0.20187775167E+03  0.00000000000E+00 0. -1.
         22    1    1    2    0    0 -0.79568094226E+03 -0.15643564324E+04 -0.74373732102E+03  0.19061648439E+04  0.00000000000E+00 0.  1.
<mgrwt>
<rscale>  0 0.36947073E+04</rscale>
<asrwt>0</asrwt>
<pdfrwt beam="1">  1        2 0.59142088E+00 0.36947073E+04</pdfrwt>
<pdfrwt beam="2">  1       -2 0.13657673E+00 0.36947073E+04</pdfrwt>
<totfact> 0.14031612E-01</totfact>
</mgrwt>
</event>
<event>
 6    1  0.9364335E-007  0.1388189E+04  0.7818608E-02  0.8962412E-01
         -1   -1    0    0    0  501 -0.00000000000E+00  0.00000000000E+00  0.14524049389E+03  0.14524049389E+03  0.00000000000E+00 0.  1.
          1   -1    0    0  501    0  0.00000000000E+00 -0.00000000000E+00 -0.33170320749E+04  0.33170320749E+04  0.00000000000E+00 0. -1.
         23    2    1    2    0    0 -0.36815378650E+02 -0.25531237861E+03 -0.31915923392E+04  0.32035606580E+04  0.99997236554E+02 0.  0.
         13    1    3    3    0    0 -0.22880860990E+01 -0.95178534621E+01 -0.60668540432E+03  0.60676437328E+03  0.00000000000E+00 0. -1.
        -13    1    3    3    0    0 -0.34527292551E+02 -0.24579452515E+03 -0.25849069349E+04  0.25967962847E+04  0.00000000000E+00 0.  1.
         22    1    1    2    0    0  0.36815378650E+02  0.25531237861E+03  0.19800758130E+02  0.25871191082E+03  0.00000000000E+00 0.  1.
<mgrwt>
<rscale>  0 0.13881893E+04</rscale>
<asrwt>0</asrwt>
<pdfrwt beam="1">  1        1 0.51031259E+00 0.13881893E+04</pdfrwt>
<pdfrwt beam="2">  1       -1 0.22344693E-01 0.13881893E+04</pdfrwt>
<totfact> 0.58091903E+00</totfact>
</mgrwt>
</event>
<event>
 6    1  0.9364335E-007  0.1213479E+04  0.7818608E-02  0.9101139E-01
          2   -1    0    0  501    0  0.00000000000E+00  0.00000000000E+00  0.77294899025E+03  0.77294899025E+03  0.00000000000E+00 0. -1.
         -2   -1    0    0    0  501 -0.00000000000E+00 -0.00000000000E+00 -0.47627089385E+03  0.47627089385E+03  0.00000000000E+00 0.  1.
         23    2    1    2    0    0  0.17899691714E+03 -0.40741912418E+03  0.56732283051E+03  0.72837555880E+03  0.10317713671E+03 0.  0.
         11    1    3    3    0    0  0.50824591597E+02 -0.17825224540E+03  0.16621661402E+03  0.24896779887E+03  0.00000000000E+00 0.  1.
        -11    1    3    3    0    0  0.12817232554E+03 -0.22916687879E+03  0.40110621649E+03  0.47940775992E+03  0.00000000000E+00 0. -1.
         22    1    1    2    0    0 -0.17899691714E+03  0.40741912418E+03 -0.27064473411E+03  0.52084432530E+03  0.00000000000E+00 0.  1.
<mgrwt>
<rscale>  0 0.12134795E+04</rscale>
<asrwt>0</asrwt>
<pdfrwt beam="1">  1        2 0.11891523E+00 0.12134795E+04</pdfrwt>
<pdfrwt beam="2">  1       -2 0.73272445E-01 0.12134795E+04</pdfrwt>
<totfact> 0.59787271E+01</totfact>
</mgrwt>
</event>
<event>
 6    1  0.9364335E-007  0.4273226E+04  0.7818608E-02  0.7951587E-01
          2   -1    0    0  501    0  0.00000000000E+00  0.00000000000E+00  0.42954800408E+04  0.42954800408E+04  0.00000000000E+00 0. -1.
         -2   -1    0    0    0  501 -0.00000000000E+00 -0.00000000000E+00 -0.10627718433E+04  0.10627718433E+04  0.00000000000E+00 0.  1.
         23    2    1    2    0    0  0.19088790251E+04 -0.88703040245E+03  0.11650182970E+04  0.24076615039E+04  0.94468077641E+02 0.  0.
         11    1    3    3    0    0  0.83932894607E+03 -0.37137421068E+03  0.45813619230E+03  0.10258073185E+04  0.00000000000E+00 0.  1.
        -11    1    3    3    0    0  0.10695500790E+04 -0.51565619177E+03  0.70688210473E+03  0.13818541854E+04  0.00000000000E+00 0. -1.
         22    1    1    2    0    0 -0.19088790251E+04  0.88703040245E+03  0.20676899005E+04  0.29505903802E+04  0.00000000000E+00 0.  1.
<mgrwt>
<rscale>  0 0.42732261E+04</rscale>
<asrwt>0</asrwt>
<pdfrwt beam="1">  1        2 0.66084307E+00 0.42732261E+04</pdfrwt>
<pdfrwt beam="2">  1       -2 0.16350336E+00 0.42732261E+04</pdfrwt>
<totfact> 0.34862858E-02</totfact>
</mgrwt>
</event>
<event>
 6    1  0.9364335E-007  0.9572811E+03  0.7818608E-02  0.9356680E-01
         -2   -1    0    0    0  501 -0.00000000000E+00  0.00000000000E+00  0.13947814105E+03  0.13947814105E+03  0.00000000000E+00 0.  1.
          2   -1    0    0  501    0  0.00000000000E+00 -0.00000000000E+00 -0.16425283162E+04  0.16425283162E+04  0.00000000000E+00 0. -1.
         23    2    1    2    0    0 -0.13886265371E+03 -0.43688758228E+03 -0.98294415804E+03  0.10887071963E+04  0.94607322181E+02 0.  0.
         13    1    3    3    0    0 -0.17534647821E+02 -0.73950837275E+02 -0.25796504232E+03  0.26892778448E+03  0.00000000000E+00 0. -1.
        -13    1    3    3    0    0 -0.12132800589E+03 -0.36293674501E+03 -0.72497911572E+03  0.81977941186E+03  0.00000000000E+00 0.  1.
         22    1    1    2    0    0  0.13886265371E+03  0.43688758228E+03 -0.52010601715E+03  0.69329926094E+03  0.00000000000E+00 0. -1.
<mgrwt>
<rscale>  0 0.95728114E+03</rscale>
<asrwt>0</asrwt>
<pdfrwt beam="1">  1        2 0.25269668E+00 0.95728114E+03</pdfrwt>
<pdfrwt beam="2">  1       -2 0.21458174E-01 0.95728114E+03</pdfrwt>
<totfact> 0.19943785E+02</totfact>
</mgrwt>
</event>
<event>
 6    1  0.9364335E-007  0.4256560E+03  0.7818608E-02  0.1035241E+00
         -1   -1    0    0    0  501 -0.00000000000E+00  0.00000000000E+00  0.15464288297E+03  0.15464288297E+03  0.00000000000E+00 0.  1.
          1   -1    0    0  501    0  0.00000000000E+00 -0.00000000000E+00 -0.29290554325E+03  0.29290554325E+03  0.00000000000E+00 0. -1.
         23    2    1    2    0    0 -0.42473551640E+02  0.18940142776E+03 -0.80644554302E+01  0.21382107229E+03  0.89316919361E+02 0.  0.
         13    1    3    3    0    0  0.17006498241E+01  0.15051684186E+03  0.13531210083E+02  0.15113340313E+03  0.00000000000E+00 0.  1.
        -13    1    3    3    0    0 -0.44174201464E+02  0.38884585901E+02 -0.21595665513E+02  0.62687669159E+02  0.00000000000E+00 0. -1.
         22    1    1    2    0    0  0.42473551640E+02 -0.18940142776E+03 -0.13019820486E+03  0.23372735393E+03  0.00000000000E+00 0.  1.
<mgrwt>
<rscale>  0 0.42565600E+03</rscale>
<asrwt>0</asrwt>
<pdfrwt beam="1">  1        1 0.45062391E-01 0.42565600E+03</pdfrwt>
<pdfrwt beam="2">  1       -1 0.23791213E-01 0.42565600E+03</pdfrwt>
<totfact> 0.13731543E+03</totfact>
</mgrwt>
</event>
<event>
 6    1  0.9364335E-007  0.6138746E+04  0.7818608E-02  0.7673433E-01
          2   -1    0    0  501    0  0.00000000000E+00  0.00000000000E+00  0.37637978248E+04  0.37637978248E+04  0.00000000000E+00 0. -1.
         -2   -1    0    0    0  501 -0.00000000000E+00 -0.00000000000E+00 -0.25030704082E+04  0.25030704082E+04  0.00000000000E+00 0.  1.
         23    2    1    2    0    0  0.15841940893E+04  0.15871666504E+04  0.27689808190E+04  0.35643514034E+04  0.92613511299E+02 0.  0.
         11    1    3    3    0    0  0.52444726653E+03  0.56396538856E+03  0.10059342454E+04  0.12668881565E+04  0.00000000000E+00 0.  1.
        -11    1    3    3    0    0  0.10597468228E+04  0.10232012618E+04  0.17630465735E+04  0.22974632469E+04  0.00000000000E+00 0. -1.
         22    1    1    2    0    0 -0.15841940893E+04 -0.15871666504E+04 -0.15082534023E+04  0.27025168296E+04  0.00000000000E+00 0.  1.
<mgrwt>
<rscale>  0 0.61387461E+04</rscale>
<asrwt>0</asrwt>
<pdfrwt beam="1">  1        2 0.57904582E+00 0.61387461E+04</pdfrwt>
<pdfrwt beam="2">  1       -2 0.38508775E+00 0.61387461E+04</pdfrwt>
<totfact> 0.32242331E-03</totfact>
</mgrwt>
</event>
<event>
 6    1  0.9364335E-007  0.3204853E+04  0.7818608E-02  0.8187537E-01
          2   -1    0    0  501    0  0.00000000000E+00  0.00000000000E+00  0.21166982699E+04  0.21166982699E+04  0.00000000000E+00 0. -1.
         -2   -1    0    0    0  501 -0.00000000000E+00 -0.00000000000E+00 -0.12131021792E+04  0.12131021792E+04  0.00000000000E+00 0.  1.
         23    2    1    2    0    0  0.39720173924E+02 -0.15951299096E+04  0.31435866445E+03  0.16288542814E+04  0.91256666598E+02 0.  0.
         11    1    3    3    0    0  0.33043132942E+02 -0.80020111165E+03  0.20230168768E+03  0.82603852245E+03  0.00000000000E+00 0. -1.
        -11    1    3    3    0    0  0.66770409817E+01 -0.79492879798E+03  0.11205697677E+03  0.80281575893E+03  0.00000000000E+00 0.  1.
         22    1    1    2    0    0 -0.39720173924E+02  0.15951299096E+04  0.58923742623E+03  0.17009461677E+04  0.00000000000E+00 0.  1.
<mgrwt>
<rscale>  0 0.32048534E+04</rscale>
<asrwt>0</asrwt>
<pdfrwt beam="1">  1        2 0.32564589E+00 0.32048534E+04</pdfrwt>
<pdfrwt beam="2">  1       -2 0.18663111E+00 0.32048534E+04</pdfrwt>
<totfact> 0.79064715E-01</totfact>
</mgrwt>
</event>
<event>
 6    1  0.9364335E-007  0.2097121E+04  0.7818608E-02  0.8562513E-01
         -2   -1    0    0    0  501 -0.00000000000E+00  0.00000000000E+00  0.65473882328E+03  0.65473882328E+03  0.00000000000E+00 0.  1.
          2   -1    0    0  501    0  0.00000000000E+00 -0.00000000000E+00 -0.16792628808E+04  0.16792628808E+04  0.00000000000E+00 0. -1.
         23    2    1    2    0    0  0.39984939785E+03  0.83104127164E+03 -0.10638598142E+04  0.14109326721E+04  0.91783248134E+02 0.  0.
         11    1    3    3    0    0  0.95969353009E+02  0.27420251687E+03 -0.37707587952E+03  0.47600772671E+03  0.00000000000E+00 0. -1.
        -11    1    3    3    0    0  0.30388004484E+03  0.55683875477E+03 -0.68678393471E+03  0.93492494535E+03  0.00000000000E+00 0.  1.
         22    1    1    2    0    0 -0.39984939785E+03 -0.83104127164E+03  0.39335756697E+02  0.92306903202E+03  0.00000000000E+00 0.  1.
<mgrwt>
<rscale>  0 0.20971205E+04</rscale>
<asrwt>0</asrwt>
<pdfrwt beam="1">  1        2 0.25834813E+00 0.20971205E+04</pdfrwt>
<pdfrwt beam="2">  1       -2 0.10072905E+00 0.20971205E+04</pdfrwt>
<totfact> 0.75371708E+00</totfact>
</mgrwt>
</event>
<event>
 6    1  0.9364335E-007  0.1805775E+04  0.7818608E-02  0.8703234E-01
         -2   -1    0    0    0  501 -0.00000000000E+00  0.00000000000E+00  0.80966749730E+03  0.80966749730E+03  0.00000000000E+00 0.  1.
          2   -1    0    0  501    0  0.00000000000E+00 -0.00000000000E+00 -0.10068404451E+04  0.10068404451E+04  0.00000000000E+00 0. -1.
         23    2    1    2    0    0 -0.81719568198E+03  0.32625089552E+03  0.93108899650E+02  0.88994872658E+03  0.95346941647E+02 0.  0.
         13    1    3    3    0    0 -0.53114470106E+03  0.19311654212E+03  0.17169089922E+02  0.56542326619E+03  0.00000000000E+00 0. -1.
        -13    1    3    3    0    0 -0.28605098092E+03  0.13313435340E+03  0.75939809728E+02  0.32452546039E+03  0.00000000000E+00 0.  1.
         22    1    1    2    0    0  0.81719568198E+03 -0.32625089552E+03 -0.29028184745E+03  0.92655921583E+03  0.00000000000E+00 0. -1.
<mgrwt>
<rscale>  0 0.18057752E+04</rscale>
<asrwt>0</asrwt>
<pdfrwt beam="1">  1        2 0.15489853E+00 0.18057752E+04</pdfrwt>
<pdfrwt beam="2">  1       -2 0.12456423E+00 0.18057752E+04</pdfrwt>
<totfact> 0.11381738E+01</totfact>
</mgrwt>
</event>
<event>
 6    1  0.9364335E-007  0.3751028E+04  0.7818608E-02  0.8056746E-01
         -2   -1    0    0    0  501 -0.00000000000E+00  0.00000000000E+00  0.16904012400E+04  0.16904012400E+04  0.00000000000E+00 0.  1.
          2   -1    0    0  501    0  0.00000000000E+00 -0.00000000000E+00 -0.20808986131E+04  0.20808986131E+04  0.00000000000E+00 0. -1.
         23    2    1    2    0    0  0.73676212443E+03 -0.13830665875E+04  0.83861324450E+03  0.17797164318E+04  0.91797550859E+02 0.  0.
         13    1    3    3    0    0  0.31405860420E+03 -0.57294660107E+03  0.29931969189E+03  0.71867439950E+03  0.00000000000E+00 0.  1.
        -13    1    3    3    0    0  0.42270352023E+03 -0.81011998644E+03  0.53929355262E+03  0.10610420323E+04  0.00000000000E+00 0. -1.
         22    1    1    2    0    0 -0.73676212443E+03  0.13830665875E+04 -0.12291106176E+04  0.19915834213E+04  0.00000000000E+00 0.  1.
<mgrwt>
<rscale>  0 0.37510284E+04</rscale>
<asrwt>0</asrwt>
<pdfrwt beam="1">  1        2 0.32013824E+00 0.37510284E+04</pdfrwt>
<pdfrwt beam="2">  1       -2 0.26006173E+00 0.37510284E+04</pdfrwt>
<totfact> 0.27026694E-01</totfact>
</mgrwt>
</event>
<event>
 6    1  0.9364335E-007  0.2187469E+03  0.7818608E-02  0.1134821E+00
          2   -1    0    0  501    0  0.00000000000E+00  0.00000000000E+00  0.64475232053E+02  0.64475232053E+02  0.00000000000E+00 0. -1.
         -2   -1    0    0    0  501 -0.00000000000E+00 -0.00000000000E+00 -0.18553721004E+03  0.18553721004E+03  0.00000000000E+00 0.  1.
         23    2    1    2    0    0 -0.54616310601E+02  0.49445922778E+02 -0.12865424681E+02  0.11911425719E+03  0.92708394718E+02 0.  0.
         13    1    3    3    0    0 -0.46260741270E+02 -0.31174670607E+01  0.26049031772E+02  0.53182016133E+02  0.00000000000E+00 0.  1.
        -13    1    3    3    0    0 -0.83555693316E+01  0.52563389838E+02 -0.38914456453E+02  0.65932241060E+02  0.00000000000E+00 0. -1.
         22    1    1    2    0    0  0.54616310601E+02 -0.49445922778E+02 -0.10819655331E+03  0.13089818490E+03  0.00000000000E+00 0.  1.
<mgrwt>
<rscale>  0 0.21874693E+03</rscale>
<asrwt>0</asrwt>
<pdfrwt beam="1">  1        2 0.99192666E-02 0.21874693E+03</pdfrwt>
<pdfrwt beam="2">  1       -2 0.28544186E-01 0.21874693E+03</pdfrwt>
<totfact> 0.70891492E+03</totfact>
</mgrwt>
</event>
<event>
 6    1  0.9364335E-007  0.1880053E+04  0.7818608E-02  0.8664850E-01
          2   -1    0    0  501    0  0.00000000000E+00  0.00000000000E+00  0.28154185555E+04  0.28154185555E+04  0.00000000000E+00 0. -1.
         -2   -1    0    0    0  501 -0.00000000000E+00 -0.00000000000E+00 -0.31386075259E+03  0.31386075259E+03  0.00000000000E+00 0.  1.
         23    2    1    2    0    0 -0.51013556295E+03 -0.74757469300E+03  0.16623278980E+04  0.18950131101E+04  0.92921648495E+02 0.  0.
         13    1    3    3    0    0 -0.28943444544E+03 -0.49854431763E+03  0.10862024277E+04  0.12296968930E+04  0.00000000000E+00 0.  1.
        -13    1    3    3    0    0 -0.22070111751E+03 -0.24903037537E+03  0.57612547034E+03  0.66531621707E+03  0.00000000000E+00 0. -1.
         22    1    1    2    0    0  0.51013556295E+03  0.74757469300E+03  0.83922990490E+03  0.12342661980E+04  0.00000000000E+00 0.  1.
<mgrwt>
<rscale>  0 0.18800525E+04</rscale>
<asrwt>0</asrwt>
<pdfrwt beam="1">  1        2 0.43314130E+00 0.18800525E+04</pdfrwt>
<pdfrwt beam="2">  1       -2 0.48286272E-01 0.18800525E+04</pdfrwt>
<totfact> 0.86440385E+00</totfact>
</mgrwt>
</event>
<event>
 6    1  0.9364335E-007  0.2046510E+04  0.7818608E-02  0.8585179E-01
         -2   -1    0    0    0  501 -0.00000000000E+00  0.00000000000E+00  0.13403126131E+04  0.13403126131E+04  0.00000000000E+00 0.  1.
          2   -1    0    0  501    0  0.00000000000E+00 -0.00000000000E+00 -0.78119915970E+03  0.78119915970E+03  0.00000000000E+00 0. -1.
         23    2    1    2    0    0 -0.21636469737E+03 -0.12000232885E+03  0.13072979882E+04  0.13334798322E+04  0.89029161689E+02 0.  0.
         11    1    3    3    0    0 -0.10545968700E+03 -0.90666464840E+01  0.55440541387E+03  0.56441944739E+03  0.00000000000E+00 0.  1.
        -11    1    3    3    0    0 -0.11090501037E+03 -0.11093568237E+03  0.75289257438E+03  0.76906038482E+03  0.00000000000E+00 0. -1.
         22    1    1    2    0    0  0.21636469737E+03  0.12000232885E+03 -0.74818453485E+03  0.78803194059E+03  0.00000000000E+00 0. -1.
<mgrwt>
<rscale>  0 0.20465103E+04</rscale>
<asrwt>0</asrwt>
<pdfrwt beam="1">  1        2 0.12018449E+00 0.20465103E+04</pdfrwt>
<pdfrwt beam="2">  1       -2 0.20620194E+00 0.20465103E+04</pdfrwt>
<totfact> 0.39847527E+00</totfact>
</mgrwt>
</event>
<event>
 6    1  0.9900913E-007  0.3617219E+04  0.7818608E-02  0.8086559E-01
         -2   -1    0    0    0  501 -0.00000000000E+00  0.00000000000E+00  0.17621273193E+04  0.17621273193E+04  0.00000000000E+00 0.  1.
          2   -1    0    0  501    0  0.00000000000E+00 -0.00000000000E+00 -0.18563182475E+04  0.18563182475E+04  0.00000000000E+00 0. -1.
         23    2    1    2    0    0 -0.51332912154E+03 -0.12832625794E+04  0.11182162708E+04  0.17799133122E+04  0.86105376902E+02 0.  0.
         11    1    3    3    0    0 -0.36850145719E+03 -0.82549074427E+03  0.75636220661E+03  0.11786908333E+04  0.00000000000E+00 0. -1.
        -11    1    3    3    0    0 -0.14482766434E+03 -0.45777183517E+03  0.36185406418E+03  0.60122247895E+03  0.00000000000E+00 0.  1.
         22    1    1    2    0    0  0.51332912154E+03  0.12832625794E+04 -0.12124071990E+04  0.18385322545E+04  0.00000000000E+00 0. -1.
<mgrwt>
<rscale>  0 0.36172194E+04</rscale>
<asrwt>0</asrwt>
<pdfrwt beam="1">  1        2 0.28558742E+00 0.36172194E+04</pdfrwt>
<pdfrwt beam="2">  1       -2 0.27109651E+00 0.36172194E+04</pdfrwt>
<totfact> 0.31189990E-01</totfact>
</mgrwt>
</event>
<event>
 6    1  0.9364335E-007  0.2105929E+04  0.7818608E-02  0.8558636E-01
          2   -1    0    0  501    0  0.00000000000E+00  0.00000000000E+00  0.37228641161E+04  0.37228641161E+04  0.00000000000E+00 0. -1.
         -2   -1    0    0    0  501 -0.00000000000E+00 -0.00000000000E+00 -0.29781753480E+03  0.29781753480E+03  0.00000000000E+00 0.  1.
         23    2    1    2    0    0  0.67787755587E+03 -0.60707538674E+03  0.71185429634E+03  0.11589564927E+04  0.91570228691E+02 0.  0.
         13    1    3    3    0    0  0.57174657874E+03 -0.54296755807E+03  0.64089095761E+03  0.10160950443E+04  0.00000000000E+00 0. -1.
        -13    1    3    3    0    0  0.10613097713E+03 -0.64107828672E+02  0.70963338727E+02  0.14286144843E+03  0.00000000000E+00 0.  1.
         22    1    1    2    0    0 -0.67787755587E+03  0.60707538674E+03  0.27131922850E+04  0.28617251582E+04  0.00000000000E+00 0. -1.
<mgrwt>
<rscale>  0 0.21059290E+04</rscale>
<asrwt>0</asrwt>
<pdfrwt beam="1">  1        2 0.57274829E+00 0.21059290E+04</pdfrwt>
<pdfrwt beam="2">  1       -2 0.45818085E-01 0.21059290E+04</pdfrwt>
<totfact> 0.23499670E+00</totfact>
</mgrwt>
</event>
<event>
 6    1  0.9364335E-007  0.1851370E+04  0.7818608E-02  0.8679449E-01
         -2   -1    0    0    0  501 -0.00000000000E+00  0.00000000000E+00  0.77022684638E+03  0.77022684638E+03  0.00000000000E+00 0.  1.
          2   -1    0    0  501    0  0.00000000000E+00 -0.00000000000E+00 -0.11125196246E+04  0.11125196246E+04  0.00000000000E+00 0. -1.
         23    2    1    2    0    0 -0.75108071218E+03 -0.28027249937E+03  0.29454996818E+03  0.85890879160E+03  0.91047890841E+02 0.  0.
         11    1    3    3    0    0 -0.51717368771E+03 -0.23310278750E+03  0.18838338998E+03  0.59774060797E+03  0.00000000000E+00 0. -1.
        -11    1    3    3    0    0 -0.23390702446E+03 -0.47169711875E+02  0.10616657820E+03  0.26116818363E+03  0.00000000000E+00 0.  1.
         22    1    1    2    0    0  0.75108071218E+03  0.28027249937E+03 -0.63684274642E+03  0.10238376794E+04  0.00000000000E+00 0. -1.
<mgrwt>
<rscale>  0 0.18513697E+04</rscale>
<asrwt>0</asrwt>
<pdfrwt beam="1">  1        2 0.17115687E+00 0.18513697E+04</pdfrwt>
<pdfrwt beam="2">  1       -2 0.11849644E+00 0.18513697E+04</pdfrwt>
<totfact> 0.11026547E+01</totfact>
</mgrwt>
</event>
<event>
 6    1  0.9364335E-007  0.2242431E+04  0.7818608E-02  0.8500972E-01
         -1   -1    0    0    0  501 -0.00000000000E+00  0.00000000000E+00  0.89041588465E+03  0.89041588465E+03  0.00000000000E+00 0.  1.
          1   -1    0    0  501    0  0.00000000000E+00 -0.00000000000E+00 -0.14118397394E+04  0.14118397394E+04  0.00000000000E+00 0. -1.
         23    2    1    2    0    0 -0.96526838728E+03 -0.40287782871E+03  0.14820001827E+03  0.10603016250E+04  0.90679029015E+02 0.  0.
         13    1    3    3    0    0 -0.44493009751E+03 -0.14528395300E+03  0.40603127644E+02  0.46980722923E+03  0.00000000000E+00 0. -1.
        -13    1    3    3    0    0 -0.52033828977E+03 -0.25759387571E+03  0.10759689063E+03  0.59049439581E+03  0.00000000000E+00 0.  1.
         22    1    1    2    0    0  0.96526838728E+03  0.40287782871E+03 -0.66962387302E+03  0.12419539990E+04  0.00000000000E+00 0.  1.
<mgrwt>
<rscale>  0 0.22424313E+04</rscale>
<asrwt>0</asrwt>
<pdfrwt beam="1">  1        1 0.21720611E+00 0.22424313E+04</pdfrwt>
<pdfrwt beam="2">  1       -1 0.13698706E+00 0.22424313E+04</pdfrwt>
<totfact> 0.30374087E+00</totfact>
</mgrwt>
</event>
<event>
 6    1  0.9364335E-007  0.2482435E+04  0.7818608E-02  0.8409270E-01
          3   -1    0    0  501    0  0.00000000000E+00  0.00000000000E+00  0.82219275385E+03  0.82219275385E+03  0.00000000000E+00 0. -1.
         -3   -1    0    0    0  501 -0.00000000000E+00 -0.00000000000E+00 -0.18737955081E+04  0.18737955081E+04  0.00000000000E+00 0.  1.
         23    2    1    2    0    0  0.14323706609E+03  0.10118995372E+04 -0.12882550096E+04  0.16469592727E+04  0.91740642933E+02 0.  0.
         13    1    3    3    0    0  0.10675752960E+03  0.76299152083E+03 -0.90504670979E+03  0.11885549116E+04  0.00000000000E+00 0. -1.
        -13    1    3    3    0    0  0.36479536485E+02  0.24890801633E+03 -0.38320829984E+03  0.45840436106E+03  0.00000000000E+00 0.  1.
         22    1    1    2    0    0 -0.14323706609E+03 -0.10118995372E+04  0.23665225537E+03  0.10490289893E+04  0.00000000000E+00 0. -1.
<mgrwt>
<rscale>  0 0.24824352E+04</rscale>
<asrwt>0</asrwt>
<pdfrwt beam="1">  1        3 0.12649120E+00 0.24824352E+04</pdfrwt>
<pdfrwt beam="2">  1       -3 0.28827623E+00 0.24824352E+04</pdfrwt>
<totfact> 0.51209378E-02</totfact>
</mgrwt>
</event>
<event>
 6    1  0.9364335E-007  0.2159313E+04  0.7818608E-02  0.8535556E-01
         -1   -1    0    0    0  501 -0.00000000000E+00  0.00000000000E+00  0.60490741274E+03  0.60490741274E+03  0.00000000000E+00 0.  1.
          1   -1    0    0  501    0  0.00000000000E+00 -0.00000000000E+00 -0.19270029715E+04  0.19270029715E+04  0.00000000000E+00 0. -1.
         23    2    1    2    0    0  0.73304663354E+03 -0.53797782912E+03  0.15897759829E+02  0.91419482452E+03  0.93391256739E+02 0.  0.
         13    1    3    3    0    0  0.16739943507E+03 -0.91065610090E+02  0.31393848868E+02  0.19313490091E+03  0.00000000000E+00 0.  1.
        -13    1    3    3    0    0  0.56564719847E+03 -0.44691221903E+03 -0.15496089038E+02  0.72105992361E+03  0.00000000000E+00 0. -1.
         22    1    1    2    0    0 -0.73304663354E+03  0.53797782912E+03 -0.13379933186E+04  0.16177155597E+04  0.00000000000E+00 0. -1.
<mgrwt>
<rscale>  0 0.21593132E+04</rscale>
<asrwt>0</asrwt>
<pdfrwt beam="1">  1        1 0.29646199E+00 0.21593132E+04</pdfrwt>
<pdfrwt beam="2">  1       -1 0.93062681E-01 0.21593132E+04</pdfrwt>
<totfact> 0.34264723E+00</totfact>
</mgrwt>
</event>
<event>
 6    1  0.9364335E-007  0.2990261E+04  0.7818608E-02  0.8246517E-01
          1   -1    0    0  501    0  0.00000000000E+00  0.00000000000E+00  0.22785371824E+04  0.22785371824E+04  0.00000000000E+00 0. -1.
         -1   -1    0    0    0  501 -0.00000000000E+00 -0.00000000000E+00 -0.98107469665E+03  0.98107469665E+03  0.00000000000E+00 0.  1.
         23    2    1    2    0    0  0.62788528528E+03  0.12977713208E+04  0.22309216418E+03  0.14616347044E+04  0.90308155984E+02 0.  0.
         11    1    3    3    0    0  0.16428401280E+03  0.35107623768E+03  0.10039316916E+03  0.40040298443E+03  0.00000000000E+00 0.  1.
        -11    1    3    3    0    0  0.46360127249E+03  0.94669508309E+03  0.12269899502E+03  0.10612317200E+04  0.00000000000E+00 0. -1.
         22    1    1    2    0    0 -0.62788528528E+03 -0.12977713208E+04  0.10743703215E+04  0.17979771746E+04  0.00000000000E+00 0. -1.
<mgrwt>
<rscale>  0 0.29902610E+04</rscale>
<asrwt>0</asrwt>
<pdfrwt beam="1">  1        1 0.35054418E+00 0.29902610E+04</pdfrwt>
<pdfrwt beam="2">  1       -1 0.15093457E+00 0.29902610E+04</pdfrwt>
<totfact> 0.56250004E-01</totfact>
</mgrwt>
</event>
<event>
 6    1  0.9364335E-007  0.1478862E+04  0.7818608E-02  0.8898632E-01
         -1   -1    0    0    0  501 -0.00000000000E+00  0.00000000000E+00  0.55942628924E+03  0.55942628924E+03  0.00000000000E+00 0.  1.
          1   -1    0    0  501    0  0.00000000000E+00 -0.00000000000E+00 -0.97735545859E+03  0.97735545859E+03  0.00000000000E+00 0. -1.
         23    2    1    2    0    0 -0.67226309214E+03 -0.23698394686E+03 -0.40293334842E+03  0.82381335389E+03  0.90631686763E+02 0.  0.
         11    1    3    3    0    0 -0.49414531063E+03 -0.15947983261E+03 -0.24843987258E+03  0.57561773367E+03  0.00000000000E+00 0. -1.
        -11    1    3    3    0    0 -0.17811778150E+03 -0.77504114251E+02 -0.15449347585E+03  0.24819562021E+03  0.00000000000E+00 0.  1.
         22    1    1    2    0    0  0.67226309214E+03  0.23698394686E+03 -0.14995820931E+02  0.71296839395E+03  0.00000000000E+00 0. -1.
<mgrwt>
<rscale>  0 0.14788622E+04</rscale>
<asrwt>0</asrwt>
<pdfrwt beam="1">  1        1 0.15036238E+00 0.14788622E+04</pdfrwt>
<pdfrwt beam="2">  1       -1 0.86065584E-01 0.14788622E+04</pdfrwt>
<totfact> 0.20360065E+01</totfact>
</mgrwt>
</event>
<event>
 6    1  0.9364335E-007  0.1492847E+04  0.7818608E-02  0.8889224E-01
         -2   -1    0    0    0  501 -0.00000000000E+00  0.00000000000E+00  0.31940640574E+03  0.31940640574E+03  0.00000000000E+00 0.  1.
          2   -1    0    0  501    0  0.00000000000E+00 -0.00000000000E+00 -0.17443231493E+04  0.17443231493E+04  0.00000000000E+00 0. -1.
         23    2    1    2    0    0  0.12104484666E+03 -0.48121998469E+03 -0.14809307805E+04  0.15643678616E+04  0.88692171085E+02 0.  0.
         11    1    3    3    0    0  0.10627125705E+03 -0.32012078734E+03 -0.89273181619E+03  0.95432750888E+03  0.00000000000E+00 0.  1.
        -11    1    3    3    0    0  0.14773589613E+02 -0.16109919735E+03 -0.58819896431E+03  0.61004035272E+03  0.00000000000E+00 0. -1.
         22    1    1    2    0    0 -0.12104484666E+03  0.48121998469E+03  0.56014036914E+02  0.49936169347E+03  0.00000000000E+00 0.  1.
<mgrwt>
<rscale>  0 0.14928469E+04</rscale>
<asrwt>0</asrwt>
<pdfrwt beam="1">  1        2 0.26835740E+00 0.14928469E+04</pdfrwt>
<pdfrwt beam="2">  1       -2 0.49139448E-01 0.14928469E+04</pdfrwt>
<totfact> 0.35115187E+01</totfact>
</mgrwt>
</event>
<event>
 6    1  0.9364335E-007  0.2577527E+04  0.7818608E-02  0.8375875E-01
         -1   -1    0    0    0  501 -0.00000000000E+00  0.00000000000E+00  0.12820906977E+04  0.12820906977E+04  0.00000000000E+00 0.  1.
          1   -1    0    0  501    0  0.00000000000E+00 -0.00000000000E+00 -0.12954713265E+04  0.12954713265E+04  0.00000000000E+00 0. -1.
         23    2    1    2    0    0  0.11260461055E+04  0.59976622616E+03  0.16406137797E+03  0.12894684626E+04  0.90074538588E+02 0.  0.
         13    1    3    3    0    0  0.59141516514E+03  0.31091446202E+03  0.40691584346E+02  0.66939936158E+03  0.00000000000E+00 0. -1.
        -13    1    3    3    0    0  0.53463094035E+03  0.28885176414E+03  0.12336979362E+03  0.62006910099E+03  0.00000000000E+00 0.  1.
         22    1    1    2    0    0 -0.11260461055E+04 -0.59976622616E+03 -0.17744200673E+03  0.12880935616E+04  0.00000000000E+00 0. -1.
<mgrwt>
<rscale>  0 0.25775273E+04</rscale>
<asrwt>0</asrwt>
<pdfrwt beam="1">  1        1 0.19930328E+00 0.25775273E+04</pdfrwt>
<pdfrwt beam="2">  1       -1 0.19724472E+00 0.25775273E+04</pdfrwt>
<totfact> 0.12647802E+00</totfact>
</mgrwt>
</event>
<event>
 6    1  0.9364335E-007  0.2818487E+04  0.7818608E-02  0.8297552E-01
          1   -1    0    0  501    0  0.00000000000E+00  0.00000000000E+00  0.21878339699E+04  0.21878339699E+04  0.00000000000E+00 0. -1.
         -1   -1    0    0    0  501 -0.00000000000E+00 -0.00000000000E+00 -0.90773247559E+03  0.90773247559E+03  0.00000000000E+00 0.  1.
         23    2    1    2    0    0 -0.12034183980E+04 -0.64375850289E+03  0.10199821876E+04  0.17062130331E+04  0.90323865343E+02 0.  0.
         11    1    3    3    0    0 -0.93248525891E+03 -0.50219380576E+03  0.74343427816E+03  0.12939945528E+04  0.00000000000E+00 0.  1.
        -11    1    3    3    0    0 -0.27093313913E+03 -0.14156469713E+03  0.27654790942E+03  0.41221848037E+03  0.00000000000E+00 0. -1.
         22    1    1    2    0    0  0.12034183980E+04  0.64375850289E+03  0.26011930675E+03  0.13893534124E+04  0.00000000000E+00 0.  1.
<mgrwt>
<rscale>  0 0.28184875E+04</rscale>
<asrwt>0</asrwt>
<pdfrwt beam="1">  1        1 0.33658984E+00 0.28184875E+04</pdfrwt>
<pdfrwt beam="2">  1       -1 0.13965115E+00 0.28184875E+04</pdfrwt>
<totfact> 0.80962249E-01</totfact>
</mgrwt>
</event>
<event>
 6    1  0.9364335E-007  0.1428883E+04  0.7818608E-02  0.8933173E-01
         -2   -1    0    0    0  501 -0.00000000000E+00  0.00000000000E+00  0.12141825765E+03  0.12141825765E+03  0.00000000000E+00 0.  1.
          2   -1    0    0  501    0  0.00000000000E+00 -0.00000000000E+00 -0.42038686161E+04  0.42038686161E+04  0.00000000000E+00 0. -1.
         23    2    1    2    0    0 -0.63454457796E+03 -0.22889785454E+03 -0.27354725771E+04  0.28188373417E+04  0.89401843424E+02 0.  0.
         11    1    3    3    0    0 -0.50622133504E+03 -0.14856002185E+03 -0.20442669757E+04  0.21112455064E+04  0.00000000000E+00 0.  1.
        -11    1    3    3    0    0 -0.12832324292E+03 -0.80337832690E+02 -0.69120560135E+03  0.70759183529E+03  0.00000000000E+00 0. -1.
         22    1    1    2    0    0  0.63454457796E+03  0.22889785454E+03 -0.13469777814E+04  0.15064495321E+04  0.00000000000E+00 0.  1.
<mgrwt>
<rscale>  0 0.14288826E+04</rscale>
<asrwt>0</asrwt>
<pdfrwt beam="1">  1        2 0.64674903E+00 0.14288826E+04</pdfrwt>
<pdfrwt beam="2">  1       -2 0.18679732E-01 0.14288826E+04</pdfrwt>
<totfact> 0.55736927E+00</totfact>
</mgrwt>
</event>
<event>
 6    1  0.9364335E-007  0.3850771E+04  0.7818608E-02  0.8035346E-01
          2   -1    0    0  501    0  0.00000000000E+00  0.00000000000E+00  0.28279906448E+04  0.28279906448E+04  0.00000000000E+00 0. -1.
         -2   -1    0    0    0  501 -0.00000000000E+00 -0.00000000000E+00 -0.13108634914E+04  0.13108634914E+04  0.00000000000E+00 0.  1.
         23    2    1    2    0    0  0.15310123619E+02  0.57387587101E+03  0.27330703074E+04  0.27942033753E+04  0.91275858688E+02 0.  0.
         11    1    3    3    0    0  0.34418450352E+02  0.31524049385E+03  0.16801866816E+04  0.17098504273E+04  0.00000000000E+00 0. -1.
        -11    1    3    3    0    0 -0.19108326733E+02  0.25863537716E+03  0.10528836258E+04  0.10843529480E+04  0.00000000000E+00 0.  1.
         22    1    1    2    0    0 -0.15310123619E+02 -0.57387587101E+03 -0.12159431539E+04  0.13446507609E+04  0.00000000000E+00 0.  1.
<mgrwt>
<rscale>  0 0.38507712E+04</rscale>
<asrwt>0</asrwt>
<pdfrwt beam="1">  1        2 0.43507548E+00 0.38507712E+04</pdfrwt>
<pdfrwt beam="2">  1       -2 0.20167131E+00 0.38507712E+04</pdfrwt>
<totfact> 0.23018417E-01</totfact>
</mgrwt>
</event>
<event>
 6    1  0.9364335E-007  0.5767832E+04  0.7818608E-02  0.7719873E-01
         -2   -1    0    0    0  501 -0.00000000000E+00  0.00000000000E+00  0.25320117905E+04  0.25320117905E+04  0.00000000000E+00 0.  1.
          2   -1    0    0  501    0  0.00000000000E+00 -0.00000000000E+00 -0.32847290877E+04  0.32847290877E+04  0.00000000000E+00 0. -1.
         23    2    1    2    0    0 -0.21340398761E+03  0.15296221069E+04  0.20788962299E+04  0.25913230418E+04  0.88659575907E+02 0.  0.
         13    1    3    3    0    0 -0.68634766275E+02  0.25236878299E+03  0.34754933626E+03  0.43496123379E+03  0.00000000000E+00 0. -1.
        -13    1    3    3    0    0 -0.14476922133E+03  0.12772533239E+04  0.17313468937E+04  0.21563618080E+04  0.00000000000E+00 0.  1.
         22    1    1    2    0    0  0.21340398761E+03 -0.15296221069E+04 -0.28316135272E+04  0.32254178363E+04  0.00000000000E+00 0. -1.
<mgrwt>
<rscale>  0 0.57678324E+04</rscale>
<asrwt>0</asrwt>
<pdfrwt beam="1">  1        2 0.50534294E+00 0.57678324E+04</pdfrwt>
<pdfrwt beam="2">  1       -2 0.38954027E+00 0.57678324E+04</pdfrwt>
<totfact> 0.67833537E-03</totfact>
</mgrwt>
</event>
<event>
 6    1  0.9364335E-007  0.1924679E+04  0.7818608E-02  0.8642669E-01
          2   -1    0    0  501    0  0.00000000000E+00  0.00000000000E+00  0.22325277119E+04  0.22325277119E+04  0.00000000000E+00 0. -1.
         -2   -1    0    0    0  501 -0.00000000000E+00 -0.00000000000E+00 -0.41482006395E+03  0.41482006395E+03  0.00000000000E+00 0.  1.
         23    2    1    2    0    0 -0.76893449029E+03 -0.57196651683E+03  0.83205407884E+03  0.12726045616E+04  0.93821284553E+02 0.  0.
         11    1    3    3    0    0 -0.31648052412E+03 -0.19391278584E+03  0.28052558573E+03  0.46524906761E+03  0.00000000000E+00 0. -1.
        -11    1    3    3    0    0 -0.45245396617E+03 -0.37805373098E+03  0.55152849311E+03  0.80735549402E+03  0.00000000000E+00 0.  1.
         22    1    1    2    0    0  0.76893449029E+03  0.57196651683E+03  0.98565356908E+03  0.13747432142E+04  0.00000000000E+00 0. -1.
<mgrwt>
<rscale>  0 0.19246790E+04</rscale>
<asrwt>0</asrwt>
<pdfrwt beam="1">  1        2 0.34346579E+00 0.19246790E+04</pdfrwt>
<pdfrwt beam="2">  1       -2 0.63818473E-01 0.19246790E+04</pdfrwt>
<totfact> 0.10509477E+01</totfact>
</mgrwt>
</event>
<event>
 6    1  0.9364335E-007  0.2565154E+04  0.7818608E-02  0.8380135E-01
         -1   -1    0    0    0  501 -0.00000000000E+00  0.00000000000E+00  0.73780419867E+03  0.73780419867E+03  0.00000000000E+00 0.  1.
          1   -1    0    0  501    0  0.00000000000E+00 -0.00000000000E+00 -0.22295935446E+04  0.22295935446E+04  0.00000000000E+00 0. -1.
         23    2    1    2    0    0  0.41046719015E+03 -0.97830299202E+02 -0.21459583814E+04  0.21889433717E+04  0.91003451666E+02 0.  0.
         13    1    3    3    0    0  0.37992747509E+03 -0.99885270307E+02 -0.18406047632E+04  0.18820594698E+04  0.00000000000E+00 0.  1.
        -13    1    3    3    0    0  0.30539715068E+02  0.20549711048E+01 -0.30535361827E+03  0.30688390198E+03  0.00000000000E+00 0. -1.
         22    1    1    2    0    0 -0.41046719015E+03  0.97830299202E+02  0.65416903547E+03  0.77845437156E+03  0.00000000000E+00 0.  1.
<mgrwt>
<rscale>  0 0.25651538E+04</rscale>
<asrwt>0</asrwt>
<pdfrwt beam="1">  1        1 0.34301439E+00 0.25651538E+04</pdfrwt>
<pdfrwt beam="2">  1       -1 0.11350834E+00 0.25651538E+04</pdfrwt>
<totfact> 0.13006761E+00</totfact>
</mgrwt>
</event>
<event>
 6    1  0.9364335E-007  0.5143280E+03  0.7818608E-02  0.1010105E+00
         -1   -1    0    0    0  501 -0.00000000000E+00  0.00000000000E+00  0.16855366912E+03  0.16855366912E+03  0.00000000000E+00 0.  1.
          1   -1    0    0  501    0  0.00000000000E+00 -0.00000000000E+00 -0.39235772958E+03  0.39235772958E+03  0.00000000000E+00 0. -1.
         23    2    1    2    0    0  0.15813441431E+03  0.17357137749E+03 -0.19934334541E+02  0.24995098124E+03  0.83334262202E+02 0.  0.
         13    1    3    3    0    0  0.25341317077E+02 -0.14750299959E+01 -0.16371695191E+02  0.30205801895E+02  0.00000000000E+00 0. -1.
        -13    1    3    3    0    0  0.13279309723E+03  0.17504640749E+03 -0.35626393497E+01  0.21974517935E+03  0.00000000000E+00 0.  1.
         22    1    1    2    0    0 -0.15813441431E+03 -0.17357137749E+03 -0.20386972592E+03  0.31096041745E+03  0.00000000000E+00 0.  1.
<mgrwt>
<rscale>  0 0.51432805E+03</rscale>
<asrwt>0</asrwt>
<pdfrwt beam="1">  1        1 0.60362726E-01 0.51432805E+03</pdfrwt>
<pdfrwt beam="2">  1       -1 0.25931334E-01 0.51432805E+03</pdfrwt>
<totfact> 0.81410485E+02</totfact>
</mgrwt>
</event>
<event>
 6    1  0.9364335E-007  0.9510875E+03  0.7818608E-02  0.9363880E-01
         -1   -1    0    0    0  501 -0.00000000000E+00  0.00000000000E+00  0.15295200560E+03  0.15295200560E+03  0.00000000000E+00 0.  1.
          1   -1    0    0  501    0  0.00000000000E+00 -0.00000000000E+00 -0.14785153020E+04  0.14785153020E+04  0.00000000000E+00 0. -1.
         23    2    1    2    0    0  0.33006612258E+03 -0.29301895747E+02 -0.93809517501E+02  0.35592051575E+03  0.89871806420E+02 0.  0.
         13    1    3    3    0    0  0.88335969243E+02 -0.48454650523E+02 -0.23733920198E+02  0.10351036464E+03  0.00000000000E+00 0.  1.
        -13    1    3    3    0    0  0.24173015334E+03  0.19152754775E+02 -0.70075597303E+02  0.25241015111E+03  0.00000000000E+00 0. -1.
         22    1    1    2    0    0 -0.33006612258E+03  0.29301895747E+02 -0.12317537789E+04  0.12755467918E+04  0.00000000000E+00 0. -1.
<mgrwt>
<rscale>  0 0.95108755E+03</rscale>
<asrwt>0</asrwt>
<pdfrwt beam="1">  1        1 0.22746389E+00 0.95108755E+03</pdfrwt>
<pdfrwt beam="2">  1       -1 0.23531078E-01 0.95108755E+03</pdfrwt>
<totfact> 0.10577042E+02</totfact>
</mgrwt>
</event>
<event>
 6    1  0.9364335E-007  0.7390243E+03  0.7818608E-02  0.9652729E-01
          1   -1    0    0  501    0  0.00000000000E+00  0.00000000000E+00  0.72980434315E+03  0.72980434315E+03  0.00000000000E+00 0. -1.
         -1   -1    0    0    0  501 -0.00000000000E+00 -0.00000000000E+00 -0.18709015908E+03  0.18709015908E+03  0.00000000000E+00 0.  1.
         23    2    1    2    0    0  0.26419349855E+03  0.15262036240E+03  0.52134476167E+03  0.61103860167E+03  0.92068629358E+02 0.  0.
         13    1    3    3    0    0  0.23864486969E+03  0.15786403332E+03  0.43361130579E+03  0.51951053055E+03  0.00000000000E+00 0.  1.
        -13    1    3    3    0    0  0.25548628867E+02 -0.52436709248E+01  0.87733455883E+02  0.91528071120E+02  0.00000000000E+00 0. -1.
         22    1    1    2    0    0 -0.26419349855E+03 -0.15262036240E+03  0.21369422400E+02  0.30585590056E+03  0.00000000000E+00 0.  1.
<mgrwt>
<rscale>  0 0.73902425E+03</rscale>
<asrwt>0</asrwt>
<pdfrwt beam="1">  1        1 0.11227759E+00 0.73902425E+03</pdfrwt>
<pdfrwt beam="2">  1       -1 0.28783102E-01 0.73902425E+03</pdfrwt>
<totfact> 0.28344307E+02</totfact>
</mgrwt>
</event>
<event>
 6    1  0.9364335E-007  0.2904401E+04  0.7818608E-02  0.8271569E-01
          1   -1    0    0  501    0  0.00000000000E+00  0.00000000000E+00  0.21395917782E+04  0.21395917782E+04  0.00000000000E+00 0. -1.
         -1   -1    0    0    0  501 -0.00000000000E+00 -0.00000000000E+00 -0.98564916503E+03  0.98564916503E+03  0.00000000000E+00 0.  1.
         23    2    1    2    0    0  0.49590042552E+03 -0.11020128490E+04 -0.28603657895E+03  0.12453766861E+04  0.93790268741E+02 0.  0.
         11    1    3    3    0    0  0.20895936921E+03 -0.36053616560E+03 -0.85048922063E+02  0.42530420152E+03  0.00000000000E+00 0.  1.
        -11    1    3    3    0    0  0.28694105631E+03 -0.74147668339E+03 -0.20098765689E+03  0.82007248462E+03  0.00000000000E+00 0. -1.
         22    1    1    2    0    0 -0.49590042552E+03  0.11020128490E+04  0.14399791922E+04  0.18798642571E+04  0.00000000000E+00 0. -1.
<mgrwt>
<rscale>  0 0.29044014E+04</rscale>
<asrwt>0</asrwt>
<pdfrwt beam="1">  1        1 0.32916797E+00 0.29044014E+04</pdfrwt>
<pdfrwt beam="2">  1       -1 0.15163833E+00 0.29044014E+04</pdfrwt>
<totfact> 0.69616459E-01</totfact>
</mgrwt>
</event>
<event>
 6    1  0.9364335E-007  0.2047691E+04  0.7818608E-02  0.8584643E-01
         -2   -1    0    0    0  501 -0.00000000000E+00  0.00000000000E+00  0.77168893995E+03  0.77168893995E+03  0.00000000000E+00 0.  1.
          2   -1    0    0  501    0  0.00000000000E+00 -0.00000000000E+00 -0.13583962978E+04  0.13583962978E+04  0.00000000000E+00 0. -1.
         23    2    1    2    0    0  0.98818648259E+03  0.34651316919E+02 -0.56496480815E+03  0.11410523887E+04  0.71428853878E+02 0.  0.
         11    1    3    3    0    0  0.20659547196E+03  0.15249120233E+02 -0.86925433895E+02  0.22465586073E+03  0.00000000000E+00 0. -1.
        -11    1    3    3    0    0  0.78159101063E+03  0.19402196686E+02 -0.47803937426E+03  0.91639652797E+03  0.00000000000E+00 0.  1.
         22    1    1    2    0    0 -0.98818648259E+03 -0.34651316919E+02 -0.21742549751E+02  0.98903284910E+03  0.00000000000E+00 0.  1.
<mgrwt>
<rscale>  0 0.20476908E+04</rscale>
<asrwt>0</asrwt>
<pdfrwt beam="1">  1        2 0.20898404E+00 0.20476908E+04</pdfrwt>
<pdfrwt beam="2">  1       -2 0.11872138E+00 0.20476908E+04</pdfrwt>
<totfact> 0.77181435E+00</totfact>
</mgrwt>
</event>
<event>
 6    1  0.9364335E-007  0.1312126E+04  0.7818608E-02  0.9020004E-01
          1   -1    0    0  501    0  0.00000000000E+00  0.00000000000E+00  0.80334348322E+03  0.80334348322E+03  0.00000000000E+00 0. -1.
         -1   -1    0    0    0  501 -0.00000000000E+00 -0.00000000000E+00 -0.53578394191E+03  0.53578394191E+03  0.00000000000E+00 0.  1.
         23    2    1    2    0    0  0.53174441430E+03 -0.11047046158E+03 -0.23568413011E+03  0.59871535213E+03  0.89203243575E+02 0.  0.
         11    1    3    3    0    0  0.31752254256E+03 -0.24679771257E+02 -0.15554020996E+03  0.35443252257E+03  0.00000000000E+00 0. -1.
        -11    1    3    3    0    0  0.21422187174E+03 -0.85790690318E+02 -0.80143920155E+02  0.24428282955E+03  0.00000000000E+00 0.  1.
         22    1    1    2    0    0 -0.53174441430E+03  0.11047046158E+03  0.50324367143E+03  0.74041207301E+03  0.00000000000E+00 0.  1.
<mgrwt>
<rscale>  0 0.13121258E+04</rscale>
<asrwt>0</asrwt>
<pdfrwt beam="1">  1        1 0.12359130E+00 0.13121258E+04</pdfrwt>
<pdfrwt beam="2">  1       -1 0.82428299E-01 0.13121258E+04</pdfrwt>
<totfact> 0.31554945E+01</totfact>
</mgrwt>
</event>
<event>
 6    1  0.9364335E-007  0.5497550E+04  0.7818608E-02  0.7756026E-01
          1   -1    0    0  501    0  0.00000000000E+00  0.00000000000E+00  0.29843006327E+04  0.29843006327E+04  0.00000000000E+00 0. -1.
         -1   -1    0    0    0  501 -0.00000000000E+00 -0.00000000000E+00 -0.25318369702E+04  0.25318369702E+04  0.00000000000E+00 0.  1.
         23    2    1    2    0    0 -0.12496430827E+04  0.43261714257E+03  0.26432873981E+04  0.29571389576E+04  0.94536340723E+02 0.  0.
         13    1    3    3    0    0 -0.40632038028E+03  0.17795564073E+03  0.82504579581E+03  0.93673103220E+03  0.00000000000E+00 0. -1.
        -13    1    3    3    0    0 -0.84332270243E+03  0.25466150184E+03  0.18182416023E+04  0.20204079254E+04  0.00000000000E+00 0.  1.
         22    1    1    2    0    0  0.12496430827E+04 -0.43261714257E+03 -0.21908237355E+04  0.25589986452E+04  0.00000000000E+00 0.  1.
<mgrwt>
<rscale>  0 0.54975495E+04</rscale>
<asrwt>0</asrwt>
<pdfrwt beam="1">  1        1 0.45912317E+00 0.54975495E+04</pdfrwt>
<pdfrwt beam="2">  1       -1 0.38951338E+00 0.54975495E+04</pdfrwt>
<totfact> 0.35952239E-03</totfact>
</mgrwt>
</event>
<event>
 6    1  0.9364335E-007  0.4779590E+04  0.7818608E-02  0.7863437E-01
          2   -1    0    0  501    0  0.00000000000E+00  0.00000000000E+00  0.27117222387E+04  0.27117222387E+04  0.00000000000E+00 0. -1.
         -2   -1    0    0    0  501 -0.00000000000E+00 -0.00000000000E+00 -0.21060861162E+04  0.21060861162E+04  0.00000000000E+00 0.  1.
         23    2    1    2    0    0 -0.16348901124E+04 -0.75102141147E+03 -0.12813255130E+04  0.22106023688E+04  0.89827181690E+02 0.  0.
         11    1    3    3    0    0 -0.45704375893E+03 -0.23850018028E+03 -0.40571460626E+03  0.65603023962E+03  0.00000000000E+00 0.  1.
        -11    1    3    3    0    0 -0.11778463535E+04 -0.51252123119E+03 -0.87561090670E+03  0.15545721291E+04  0.00000000000E+00 0. -1.
         22    1    1    2    0    0  0.16348901124E+04  0.75102141147E+03  0.18869616355E+04  0.26072059861E+04  0.00000000000E+00 0. -1.
<mgrwt>
<rscale>  0 0.47795902E+04</rscale>
<asrwt>0</asrwt>
<pdfrwt beam="1">  1        2 0.41718804E+00 0.47795902E+04</pdfrwt>
<pdfrwt beam="2">  1       -2 0.32401325E+00 0.47795902E+04</pdfrwt>
<totfact> 0.43773304E-02</totfact>
</mgrwt>
</event>
<event>
 6    1  0.9364335E-007  0.6508316E+03  0.7818608E-02  0.9805220E-01
          1   -1    0    0  501    0  0.00000000000E+00  0.00000000000E+00  0.24055683387E+02  0.24055683387E+02  0.00000000000E+00 0. -1.
         -1   -1    0    0    0  501 -0.00000000000E+00 -0.00000000000E+00 -0.44020959713E+04  0.44020959713E+04  0.00000000000E+00 0.  1.
         23    2    1    2    0    0 -0.26698108833E+03 -0.13098423692E+03 -0.30175448495E+04  0.30335341157E+04  0.91195069809E+02 0.  0.
         11    1    3    3    0    0 -0.22640549787E+03 -0.14412908371E+03 -0.25954588927E+04  0.26092986617E+04  0.00000000000E+00 0. -1.
        -11    1    3    3    0    0 -0.40575590459E+02  0.13144846788E+02 -0.42208595678E+03  0.42423545402E+03  0.00000000000E+00 0.  1.
         22    1    1    2    0    0  0.26698108833E+03  0.13098423692E+03 -0.13604954384E+04  0.13926175389E+04  0.00000000000E+00 0. -1.
<mgrwt>
<rscale>  0 0.65083155E+03</rscale>
<asrwt>0</asrwt>
<pdfrwt beam="1">  1        1 0.37008702E-02 0.65083155E+03</pdfrwt>
<pdfrwt beam="2">  1       -1 0.67724629E+00 0.65083155E+03</pdfrwt>
<totfact> 0.68417564E-01</totfact>
</mgrwt>
</event>
<event>
 6    1  0.9364335E-007  0.2327369E+04  0.7818608E-02  0.8467208E-01
          2   -1    0    0  501    0  0.00000000000E+00  0.00000000000E+00  0.28440650250E+04  0.28440650250E+04  0.00000000000E+00 0. -1.
         -2   -1    0    0    0  501 -0.00000000000E+00 -0.00000000000E+00 -0.47613586019E+03  0.47613586019E+03  0.00000000000E+00 0.  1.
         23    2    1    2    0    0  0.10962995683E+04  0.38166846231E+03  0.11381575144E+04  0.16290823587E+04  0.10470551737E+03 0.  0.
         13    1    3    3    0    0  0.39708795079E+03  0.87564769584E+02  0.37762211751E+03  0.55492782699E+03  0.00000000000E+00 0. -1.
        -13    1    3    3    0    0  0.69921161746E+03  0.29410369273E+03  0.76053539690E+03  0.10741545317E+04  0.00000000000E+00 0.  1.
         22    1    1    2    0    0 -0.10962995683E+04 -0.38166846231E+03  0.12297716504E+04  0.16911185265E+04  0.00000000000E+00 0.  1.
<mgrwt>
<rscale>  0 0.23273688E+04</rscale>
<asrwt>0</asrwt>
<pdfrwt beam="1">  1        2 0.43754846E+00 0.23273688E+04</pdfrwt>
<pdfrwt beam="2">  1       -2 0.73251672E-01 0.23273688E+04</pdfrwt>
<totfact> 0.33099971E+00</totfact>
</mgrwt>
</event>
<event>
 6    1  0.9364335E-007  0.1483580E+04  0.7818608E-02  0.8895446E-01
          2   -1    0    0  501    0  0.00000000000E+00  0.00000000000E+00  0.16856031260E+04  0.16856031260E+04  0.00000000000E+00 0. -1.
         -2   -1    0    0    0  501 -0.00000000000E+00 -0.00000000000E+00 -0.32644247163E+03  0.32644247163E+03  0.00000000000E+00 0.  1.
         23    2    1    2    0    0 -0.38549350475E+03  0.20582622030E+03 -0.12624718879E+03  0.46368965157E+03  0.90000361799E+02 0.  0.
         13    1    3    3    0    0 -0.17642212358E+03  0.12916746893E+03 -0.96605649851E+02  0.23904320175E+03  0.00000000000E+00 0. -1.
        -13    1    3    3    0    0 -0.20907138117E+03  0.76658751374E+02 -0.29641538942E+02  0.22464644982E+03  0.00000000000E+00 0.  1.
         22    1    1    2    0    0  0.38549350475E+03 -0.20582622030E+03  0.14854078432E+04  0.15483559461E+04  0.00000000000E+00 0. -1.
<mgrwt>
<rscale>  0 0.14835801E+04</rscale>
<asrwt>0</asrwt>
<pdfrwt beam="1">  1        2 0.25932355E+00 0.14835801E+04</pdfrwt>
<pdfrwt beam="2">  1       -2 0.50221920E-01 0.14835801E+04</pdfrwt>
<totfact> 0.36235598E+01</totfact>
</mgrwt>
</event>
<event>
 6    1  0.9364335E-007  0.1308966E+04  0.7818608E-02  0.9022485E-01
          1   -1    0    0  501    0  0.00000000000E+00  0.00000000000E+00  0.19957001067E+04  0.19957001067E+04  0.00000000000E+00 0. -1.
         -1   -1    0    0    0  501 -0.00000000000E+00 -0.00000000000E+00 -0.21463537853E+03  0.21463537853E+03  0.00000000000E+00 0.  1.
         23    2    1    2    0    0 -0.17142010507E+03 -0.56762022737E+03  0.13515541470E+04  0.14781764081E+04  0.82032347989E+02 0.  0.
         11    1    3    3    0    0 -0.11691222086E+03 -0.26860796306E+03  0.60776258252E+03  0.67468071109E+03  0.00000000000E+00 0. -1.
        -11    1    3    3    0    0 -0.54507884205E+02 -0.29901226431E+03  0.74379156452E+03  0.80349569700E+03  0.00000000000E+00 0.  1.
         22    1    1    2    0    0  0.17142010507E+03  0.56762022737E+03  0.42951058116E+03  0.73215907716E+03  0.00000000000E+00 0.  1.
<mgrwt>
<rscale>  0 0.13089658E+04</rscale>
<asrwt>0</asrwt>
<pdfrwt beam="1">  1        1 0.30703077E+00 0.13089658E+04</pdfrwt>
<pdfrwt beam="2">  1       -1 0.33020829E-01 0.13089658E+04</pdfrwt>
<totfact> 0.25396426E+01</totfact>
</mgrwt>
</event>
<event>
 6    1  0.9364335E-007  0.3481513E+04  0.7818608E-02  0.8118185E-01
         -1   -1    0    0    0  501 -0.00000000000E+00  0.00000000000E+00  0.71763717982E+03  0.71763717982E+03  0.00000000000E+00 0.  1.
          1   -1    0    0  501    0  0.00000000000E+00 -0.00000000000E+00 -0.42225137959E+04  0.42225137959E+04  0.00000000000E+00 0. -1.
         23    2    1    2    0    0  0.51126546652E+03  0.11358807436E+04 -0.30657109929E+02  0.12493761766E+04  0.91561625444E+02 0.  0.
         11    1    3    3    0    0  0.24771644799E+03  0.65925793668E+03 -0.25253720113E+02  0.70471427974E+03  0.00000000000E+00 0. -1.
        -11    1    3    3    0    0  0.26354901853E+03  0.47662280694E+03 -0.54033898165E+01  0.54466189685E+03  0.00000000000E+00 0.  1.
         22    1    1    2    0    0 -0.51126546652E+03 -0.11358807436E+04 -0.34742195061E+04  0.36907747991E+04  0.00000000000E+00 0. -1.
<mgrwt>
<rscale>  0 0.34815128E+04</rscale>
<asrwt>0</asrwt>
<pdfrwt beam="1">  1        1 0.64961751E+00 0.34815128E+04</pdfrwt>
<pdfrwt beam="2">  1       -1 0.11040572E+00 0.34815128E+04</pdfrwt>
<totfact> 0.37139291E-02</totfact>
</mgrwt>
</event>
<event>
 6    1  0.9364335E-007  0.3835294E+04  0.7818608E-02  0.8038623E-01
         -1   -1    0    0    0  501 -0.00000000000E+00  0.00000000000E+00  0.20265476021E+04  0.20265476021E+04  0.00000000000E+00 0.  1.
          1   -1    0    0  501    0  0.00000000000E+00 -0.00000000000E+00 -0.18145985010E+04  0.18145985010E+04  0.00000000000E+00 0. -1.
         23    2    1    2    0    0 -0.51275532077E+03 -0.13598826166E+04 -0.11452392567E+04  0.18526393798E+04  0.92200684442E+02 0.  0.
         13    1    3    3    0    0 -0.31031499297E+03 -0.91747735641E+03 -0.79753811328E+03  0.12546422345E+04  0.00000000000E+00 0.  1.
        -13    1    3    3    0    0 -0.20244032781E+03 -0.44240526023E+03 -0.34770114347E+03  0.59799714529E+03  0.00000000000E+00 0. -1.
         22    1    1    2    0    0  0.51275532077E+03  0.13598826166E+04  0.13571883579E+04  0.19885067233E+04  0.00000000000E+00 0.  1.
<mgrwt>
<rscale>  0 0.38352941E+04</rscale>
<asrwt>0</asrwt>
<pdfrwt beam="1">  1        1 0.27916900E+00 0.38352941E+04</pdfrwt>
<pdfrwt beam="2">  1       -1 0.31177655E+00 0.38352941E+04</pdfrwt>
<totfact> 0.87461719E-02</totfact>
</mgrwt>
</event>
<event>
 6    1  0.9364335E-007  0.1507245E+04  0.7818608E-02  0.8879650E-01
         -1   -1    0    0    0  501 -0.00000000000E+00  0.00000000000E+00  0.35069354710E+03  0.35069354710E+03  0.00000000000E+00 0.  1.
          1   -1    0    0  501    0  0.00000000000E+00 -0.00000000000E+00 -0.16194956569E+04  0.16194956569E+04  0.00000000000E+00 0. -1.
         23    2    1    2    0    0  0.66718835894E+03 -0.67912273828E+02 -0.10773706217E+04  0.12727665216E+04  0.97235687365E+02 0.  0.
         11    1    3    3    0    0  0.48359982214E+03 -0.83927806659E+02 -0.73242018247E+03  0.88167567075E+03  0.00000000000E+00 0. -1.
        -11    1    3    3    0    0  0.18358853680E+03  0.16015532831E+02 -0.34495043918E+03  0.39109085086E+03  0.00000000000E+00 0.  1.
         22    1    1    2    0    0 -0.66718835894E+03  0.67912273828E+02 -0.19143148813E+03  0.69742268237E+03  0.00000000000E+00 0.  1.
<mgrwt>
<rscale>  0 0.15072447E+04</rscale>
<asrwt>0</asrwt>
<pdfrwt beam="1">  1        1 0.24915318E+00 0.15072447E+04</pdfrwt>
<pdfrwt beam="2">  1       -1 0.53952853E-01 0.15072447E+04</pdfrwt>
<totfact> 0.18140929E+01</totfact>
</mgrwt>
</event>
<event>
 6    1  0.9364335E-007  0.3801033E+04  0.7818608E-02  0.8045933E-01
          2   -1    0    0  501    0  0.00000000000E+00  0.00000000000E+00  0.26381580792E+04  0.26381580792E+04  0.00000000000E+00 0. -1.
         -2   -1    0    0    0  501 -0.00000000000E+00 -0.00000000000E+00 -0.13691232702E+04  0.13691232702E+04  0.00000000000E+00 0.  1.
         23    2    1    2    0    0 -0.14440172041E+04  0.70077385173E+03 -0.43584932236E+03  0.16657221300E+04  0.91629172706E+02 0.  0.
         11    1    3    3    0    0 -0.60526461327E+03  0.29089508651E+03 -0.13570791094E+03  0.68511447257E+03  0.00000000000E+00 0. -1.
        -11    1    3    3    0    0 -0.83875259088E+03  0.40987876522E+03 -0.30014141142E+03  0.98060765739E+03  0.00000000000E+00 0.  1.
         22    1    1    2    0    0  0.14440172041E+04 -0.70077385173E+03  0.17048841313E+04  0.23415592195E+04  0.00000000000E+00 0. -1.
<mgrwt>
<rscale>  0 0.38010333E+04</rscale>
<asrwt>0</asrwt>
<pdfrwt beam="1">  1        2 0.40587047E+00 0.38010333E+04</pdfrwt>
<pdfrwt beam="2">  1       -2 0.21063435E+00 0.38010333E+04</pdfrwt>
<totfact> 0.26277215E-01</totfact>
</mgrwt>
</event>
<event>
 6    1  0.9364335E-007  0.2734936E+04  0.7818608E-02  0.8323758E-01
          2   -1    0    0  501    0  0.00000000000E+00  0.00000000000E+00  0.10636025323E+04  0.10636025323E+04  0.00000000000E+00 0. -1.
         -2   -1    0    0    0  501 -0.00000000000E+00 -0.00000000000E+00 -0.17581467248E+04  0.17581467248E+04  0.00000000000E+00 0.  1.
         23    2    1    2    0    0 -0.74217723046E+03 -0.11532747764E+03 -0.15247873634E+04  0.17021818445E+04  0.91208878838E+02 0.  0.
         13    1    3    3    0    0 -0.60058542365E+03 -0.12672920053E+03 -0.12078483124E+04  0.13548655605E+04  0.00000000000E+00 0. -1.
        -13    1    3    3    0    0 -0.14159180681E+03  0.11401722893E+02 -0.31693905105E+03  0.34731628398E+03  0.00000000000E+00 0.  1.
         22    1    1    2    0    0  0.74217723046E+03  0.11532747764E+03  0.83024317095E+03  0.11195674126E+04  0.00000000000E+00 0. -1.
<mgrwt>
<rscale>  0 0.27349364E+04</rscale>
<asrwt>0</asrwt>
<pdfrwt beam="1">  1        2 0.16363116E+00 0.27349364E+04</pdfrwt>
<pdfrwt beam="2">  1       -2 0.27048411E+00 0.27349364E+04</pdfrwt>
<totfact> 0.96650949E-01</totfact>
</mgrwt>
</event>
<event>
 6    1  0.9364335E-007  0.1002399E+04  0.7818608E-02  0.9305918E-01
          2   -1    0    0  501    0  0.00000000000E+00  0.00000000000E+00  0.10118921100E+04  0.10118921100E+04  0.00000000000E+00 0. -1.
         -2   -1    0    0    0  501 -0.00000000000E+00 -0.00000000000E+00 -0.24824860540E+03  0.24824860540E+03  0.00000000000E+00 0.  1.
         23    2    1    2    0    0  0.25922138477E+03 -0.16327927360E+03  0.87699123290E+03  0.93348561438E+03  0.91792821931E+02 0.  0.
         11    1    3    3    0    0  0.13030999265E+03 -0.32983604944E+02  0.42477895182E+03  0.44553986387E+03  0.00000000000E+00 0.  1.
        -11    1    3    3    0    0  0.12891139212E+03 -0.13029566865E+03  0.45221228108E+03  0.48794575051E+03  0.00000000000E+00 0. -1.
         22    1    1    2    0    0 -0.25922138477E+03  0.16327927360E+03 -0.11334772830E+03  0.32665510102E+03  0.00000000000E+00 0.  1.
<mgrwt>
<rscale>  0 0.10023987E+04</rscale>
<asrwt>0</asrwt>
<pdfrwt beam="1">  1        2 0.15567571E+00 0.10023987E+04</pdfrwt>
<pdfrwt beam="2">  1       -2 0.38192094E-01 0.10023987E+04</pdfrwt>
<totfact> 0.15976683E+02</totfact>
</mgrwt>
</event>
<event>
 6    1  0.9364335E-007  0.1224111E+04  0.7818608E-02  0.9092010E-01
         -1   -1    0    0    0  501 -0.00000000000E+00  0.00000000000E+00  0.78092679107E+03  0.78092679107E+03  0.00000000000E+00 0.  1.
          1   -1    0    0  501    0  0.00000000000E+00 -0.00000000000E+00 -0.47970191334E+03  0.47970191334E+03  0.00000000000E+00 0. -1.
         23    2    1    2    0    0 -0.39980735926E+03  0.55757394772E+02 -0.31775624015E+03  0.52164803086E+03  0.90514243961E+02 0.  0.
         11    1    3    3    0    0 -0.20659049545E+03 -0.14321942970E+02 -0.17831122685E+03  0.27327576636E+03  0.00000000000E+00 0. -1.
        -11    1    3    3    0    0 -0.19321686381E+03  0.70079337743E+02 -0.13944501330E+03  0.24837226450E+03  0.00000000000E+00 0.  1.
         22    1    1    2    0    0  0.39980735926E+03 -0.55757394772E+02  0.61898111787E+03  0.73898067355E+03  0.00000000000E+00 0.  1.
<mgrwt>
<rscale>  0 0.12241112E+04</rscale>
<asrwt>0</asrwt>
<pdfrwt beam="1">  1        1 0.73800294E-01 0.12241112E+04</pdfrwt>
<pdfrwt beam="2">  1       -1 0.12014258E+00 0.12241112E+04</pdfrwt>
<totfact> 0.28631174E+01</totfact>
</mgrwt>
</event>
<event>
 6    1  0.9364335E-007  0.1737059E+04  0.7818608E-02  0.8740506E-01
         -2   -1    0    0    0  501 -0.00000000000E+00  0.00000000000E+00  0.34252440119E+03  0.34252440119E+03  0.00000000000E+00 0.  1.
          2   -1    0    0  501    0  0.00000000000E+00 -0.00000000000E+00 -0.22023057071E+04  0.22023057071E+04  0.00000000000E+00 0. -1.
         23    2    1    2    0    0  0.20253572089E+03  0.57359385893E+03 -0.29363111332E+02  0.61598034736E+03  0.92406508341E+02 0.  0.
         11    1    3    3    0    0  0.74221072923E+02  0.20480045536E+03 -0.54969699010E+02  0.22466344159E+03  0.00000000000E+00 0. -1.
        -11    1    3    3    0    0  0.12831464797E+03  0.36879340357E+03  0.25606587678E+02  0.39131690576E+03  0.00000000000E+00 0.  1.
         22    1    1    2    0    0 -0.20253572089E+03 -0.57359385893E+03 -0.18304181946E+04  0.19288497610E+04  0.00000000000E+00 0. -1.
<mgrwt>
<rscale>  0 0.17370589E+04</rscale>
<asrwt>0</asrwt>
<pdfrwt beam="1">  1        2 0.33881625E+00 0.17370589E+04</pdfrwt>
<pdfrwt beam="2">  1       -2 0.52696063E-01 0.17370589E+04</pdfrwt>
<totfact> 0.16602421E+01</totfact>
</mgrwt>
</event>
<event>
 6    1  0.9364335E-007  0.2129833E+04  0.7818608E-02  0.8548215E-01
         -2   -1    0    0    0  501 -0.00000000000E+00  0.00000000000E+00  0.16794812327E+04  0.16794812327E+04  0.00000000000E+00 0.  1.
          2   -1    0    0  501    0  0.00000000000E+00 -0.00000000000E+00 -0.67523627264E+03  0.67523627264E+03  0.00000000000E+00 0. -1.
         23    2    1    2    0    0 -0.10640564493E+03  0.98975265762E+03  0.90035994832E+02  0.10031589544E+04  0.85375188993E+02 0.  0.
         13    1    3    3    0    0 -0.11483392000E+03  0.81212516669E+03  0.91782406322E+02  0.82532304322E+03  0.00000000000E+00 0.  1.
        -13    1    3    3    0    0  0.84282750680E+01  0.17762749092E+03 -0.17464114904E+01  0.17783591118E+03  0.00000000000E+00 0. -1.
         22    1    1    2    0    0  0.10640564493E+03 -0.98975265762E+03  0.91420896523E+03  0.13515585509E+04  0.00000000000E+00 0.  1.
<mgrwt>
<rscale>  0 0.21298325E+04</rscale>
<asrwt>0</asrwt>
<pdfrwt beam="1">  1        2 0.10388250E+00 0.21298325E+04</pdfrwt>
<pdfrwt beam="2">  1       -2 0.25838173E+00 0.21298325E+04</pdfrwt>
<totfact> 0.22497629E+00</totfact>
</mgrwt>
</event>
<event>
 6    1  0.9364335E-007  0.6351743E+03  0.7818608E-02  0.9835003E-01
         -1   -1    0    0    0  501 -0.00000000000E+00  0.00000000000E+00  0.93495218724E+02  0.93495218724E+02  0.00000000000E+00 0.  1.
          1   -1    0    0  501    0  0.00000000000E+00 -0.00000000000E+00 -0.10787886865E+04  0.10787886865E+04  0.00000000000E+00 0. -1.
         23    2    1    2    0    0  0.27793226190E+03  0.12657541299E+03 -0.60683553896E+03  0.68597322134E+03  0.95090544615E+02 0.  0.
         13    1    3    3    0    0  0.75017682622E+02  0.76749540152E+02 -0.15948840971E+03  0.19223604618E+03  0.00000000000E+00 0. -1.
        -13    1    3    3    0    0  0.20291457928E+03  0.49825872834E+02 -0.44734712925E+03  0.49373717516E+03  0.00000000000E+00 0.  1.
         22    1    1    2    0    0 -0.27793226190E+03 -0.12657541299E+03 -0.37845792882E+03  0.48631068388E+03  0.00000000000E+00 0.  1.
<mgrwt>
<rscale>  0 0.63517426E+03</rscale>
<asrwt>0</asrwt>
<pdfrwt beam="1">  1        1 0.16596747E+00 0.63517426E+03</pdfrwt>
<pdfrwt beam="2">  1       -1 0.14383881E-01 0.63517426E+03</pdfrwt>
<totfact> 0.47052027E+02</totfact>
</mgrwt>
</event>
<event>
 6    1  0.9364335E-007  0.3740314E+04  0.7818608E-02  0.8059086E-01
          2   -1    0    0  501    0  0.00000000000E+00  0.00000000000E+00  0.23072181724E+04  0.23072181724E+04  0.00000000000E+00 0. -1.
         -2   -1    0    0    0  501 -0.00000000000E+00 -0.00000000000E+00 -0.15158889125E+04  0.15158889125E+04  0.00000000000E+00 0.  1.
         23    2    1    2    0    0 -0.55342217165E+03  0.46003978822E+03 -0.13673028084E+04  0.15476719369E+04  0.88649578636E+02 0.  0.
         13    1    3    3    0    0 -0.41493623766E+03  0.33359406791E+03 -0.10876072867E+04  0.12109280299E+04  0.00000000000E+00 0. -1.
        -13    1    3    3    0    0 -0.13848593399E+03  0.12644572031E+03 -0.27969552166E+03  0.33674390705E+03  0.00000000000E+00 0.  1.
         22    1    1    2    0    0  0.55342217165E+03 -0.46003978822E+03  0.21586320683E+04  0.22754351480E+04  0.00000000000E+00 0. -1.
<mgrwt>
<rscale>  0 0.37403136E+04</rscale>
<asrwt>0</asrwt>
<pdfrwt beam="1">  1        2 0.35495664E+00 0.37403136E+04</pdfrwt>
<pdfrwt beam="2">  1       -2 0.23321368E+00 0.37403136E+04</pdfrwt>
<totfact> 0.29540903E-01</totfact>
</mgrwt>
</event>
<event>
 6    1  0.9364335E-007  0.1553087E+04  0.7818608E-02  0.8849899E-01
         -1   -1    0    0    0  501 -0.00000000000E+00  0.00000000000E+00  0.59411723011E+03  0.59411723011E+03  0.00000000000E+00 0.  1.
          1   -1    0    0  501    0  0.00000000000E+00 -0.00000000000E+00 -0.10149839958E+04  0.10149839958E+04  0.00000000000E+00 0. -1.
         23    2    1    2    0    0  0.33301562748E+03 -0.60928572295E+03 -0.56498108478E+03  0.89994860669E+03  0.92603283956E+02 0.  0.
         11    1    3    3    0    0  0.23990256619E+03 -0.43878305355E+03 -0.35121619900E+03  0.61109461443E+03  0.00000000000E+00 0.  1.
        -11    1    3    3    0    0  0.93113061285E+02 -0.17050266940E+03 -0.21376488577E+03  0.28885399226E+03  0.00000000000E+00 0. -1.
         22    1    1    2    0    0 -0.33301562748E+03  0.60928572295E+03  0.14411431911E+03  0.70915261919E+03  0.00000000000E+00 0.  1.
<mgrwt>
<rscale>  0 0.15530866E+04</rscale>
<asrwt>0</asrwt>
<pdfrwt beam="1">  1        1 0.15615138E+00 0.15530866E+04</pdfrwt>
<pdfrwt beam="2">  1       -1 0.91402651E-01 0.15530866E+04</pdfrwt>
<totfact> 0.16563710E+01</totfact>
</mgrwt>
</event>
<event>
 6    1  0.9364335E-007  0.2002508E+04  0.7818608E-02  0.8605449E-01
          1   -1    0    0  501    0  0.00000000000E+00  0.00000000000E+00  0.10442798399E+04  0.10442798399E+04  0.00000000000E+00 0. -1.
         -1   -1    0    0    0  501 -0.00000000000E+00 -0.00000000000E+00 -0.96000110293E+03  0.96000110293E+03  0.00000000000E+00 0.  1.
         23    2    1    2    0    0 -0.20342115911E+03 -0.67447353945E+03  0.75167664783E+03  0.10338610880E+04  0.86926652402E+02 0.  0.
         11    1    3    3    0    0 -0.19140265752E+03 -0.52484972091E+03  0.56876903986E+03  0.79724552526E+03  0.00000000000E+00 0.  1.
        -11    1    3    3    0    0 -0.12018501593E+02 -0.14962381854E+03  0.18290760797E+03  0.23661556269E+03  0.00000000000E+00 0. -1.
         22    1    1    2    0    0  0.20342115911E+03  0.67447353945E+03 -0.66739791084E+03  0.97041985490E+03  0.00000000000E+00 0.  1.
<mgrwt>
<rscale>  0 0.20025082E+04</rscale>
<asrwt>0</asrwt>
<pdfrwt beam="1">  1        1 0.16065844E+00 0.20025082E+04</pdfrwt>
<pdfrwt beam="2">  1       -1 0.14769248E+00 0.20025082E+04</pdfrwt>
<totfact> 0.47168556E+00</totfact>
</mgrwt>
</event>
<event>
 6    1  0.9364335E-007  0.4918173E+03  0.7818608E-02  0.1015937E+00
         -1   -1    0    0    0  501 -0.00000000000E+00  0.00000000000E+00  0.42305655782E+02  0.42305655782E+02  0.00000000000E+00 0.  1.
          1   -1    0    0  501    0  0.00000000000E+00 -0.00000000000E+00 -0.14293846710E+04  0.14293846710E+04  0.00000000000E+00 0. -1.
         23    2    1    2    0    0 -0.18524740327E+03  0.12378360708E+03 -0.47066709402E+03  0.52858386879E+03  0.90743656251E+02 0.  0.
         13    1    3    3    0    0 -0.10240266456E+03  0.77471600424E+02 -0.36307378024E+03  0.38511131440E+03  0.00000000000E+00 0. -1.
        -13    1    3    3    0    0 -0.82844738710E+02  0.46312006657E+02 -0.10759331378E+03  0.14347255439E+03  0.00000000000E+00 0.  1.
         22    1    1    2    0    0  0.18524740327E+03 -0.12378360708E+03 -0.91641192122E+03  0.94310645802E+03  0.00000000000E+00 0. -1.
<mgrwt>
<rscale>  0 0.49181727E+03</rscale>
<asrwt>0</asrwt>
<pdfrwt beam="1">  1        1 0.21990527E+00 0.49181727E+03</pdfrwt>
<pdfrwt beam="2">  1       -1 0.65085644E-02 0.49181727E+03</pdfrwt>
<totfact> 0.93059084E+02</totfact>
</mgrwt>
</event>
<event>
 6    1  0.1126386E-006  0.4136946E+04  0.7818608E-02  0.7977476E-01
         -2   -1    0    0    0  501 -0.00000000000E+00  0.00000000000E+00  0.26165767778E+04  0.26165767778E+04  0.00000000000E+00 0.  1.
          2   -1    0    0  501    0  0.00000000000E+00 -0.00000000000E+00 -0.16351828161E+04  0.16351828161E+04  0.00000000000E+00 0. -1.
         23    2    1    2    0    0 -0.85794696751E+03  0.24420795065E+03  0.24078174372E+04  0.25693819747E+04  0.91806311168E+02 0.  0.
         13    1    3    3    0    0 -0.65109127540E+03  0.21414705329E+03  0.17638249955E+04  0.18923153607E+04  0.00000000000E+00 0.  1.
        -13    1    3    3    0    0 -0.20685569211E+03  0.30060897362E+02  0.64399244170E+03  0.67706661406E+03  0.00000000000E+00 0. -1.
         22    1    1    2    0    0  0.85794696751E+03 -0.24420795065E+03 -0.14264234755E+04  0.16823776193E+04  0.00000000000E+00 0. -1.
<mgrwt>
<rscale>  0 0.41369464E+04</rscale>
<asrwt>0</asrwt>
<pdfrwt beam="1">  1        2 0.25156659E+00 0.41369464E+04</pdfrwt>
<pdfrwt beam="2">  1       -2 0.40255028E+00 0.41369464E+04</pdfrwt>
<totfact> 0.59374422E-02</totfact>
</mgrwt>
</event>
<event>
 6    1  0.9364335E-007  0.2278731E+04  0.7818608E-02  0.8486355E-01
          2   -1    0    0  501    0  0.00000000000E+00  0.00000000000E+00  0.19037412807E+04  0.19037412807E+04  0.00000000000E+00 0. -1.
         -2   -1    0    0    0  501 -0.00000000000E+00 -0.00000000000E+00 -0.68189588344E+03  0.68189588344E+03  0.00000000000E+00 0.  1.
         23    2    1    2    0    0  0.78008330234E+03  0.72625461822E+03  0.16127076664E+03  0.10820433772E+04  0.93988727140E+02 0.  0.
         11    1    3    3    0    0  0.11902343848E+03  0.84059941207E+02  0.48289800656E+02  0.15350751601E+03  0.00000000000E+00 0.  1.
        -11    1    3    3    0    0  0.66105986386E+03  0.64219467702E+03  0.11298096598E+03  0.92853586117E+03  0.00000000000E+00 0. -1.
         22    1    1    2    0    0 -0.78008330234E+03 -0.72625461822E+03  0.10605746306E+04  0.15035937870E+04  0.00000000000E+00 0. -1.
<mgrwt>
<rscale>  0 0.22787306E+04</rscale>
<asrwt>0</asrwt>
<pdfrwt beam="1">  1        2 0.29288327E+00 0.22787306E+04</pdfrwt>
<pdfrwt beam="2">  1       -2 0.10490706E+00 0.22787306E+04</pdfrwt>
<totfact> 0.50558095E+00</totfact>
</mgrwt>
</event>
<event>
 6    1  0.9364335E-007  0.3315228E+04  0.7818608E-02  0.8159031E-01
         -2   -1    0    0    0  501 -0.00000000000E+00  0.00000000000E+00  0.23702155896E+04  0.23702155896E+04  0.00000000000E+00 0.  1.
          2   -1    0    0  501    0  0.00000000000E+00 -0.00000000000E+00 -0.11592552920E+04  0.11592552920E+04  0.00000000000E+00 0. -1.
         23    2    1    2    0    0  0.36351928816E+03  0.12522654637E+04 -0.48143777641E+03  0.13929956757E+04  0.91321167104E+02 0.  0.
         11    1    3    3    0    0  0.23216641023E+03  0.75062954367E+03 -0.24447140042E+03  0.82286828806E+03  0.00000000000E+00 0. -1.
        -11    1    3    3    0    0  0.13135287793E+03  0.50163592006E+03 -0.23696637599E+03  0.57012738768E+03  0.00000000000E+00 0.  1.
         22    1    1    2    0    0 -0.36351928816E+03 -0.12522654637E+04  0.16923980740E+04  0.21364752059E+04  0.00000000000E+00 0.  1.
<mgrwt>
<rscale>  0 0.33152285E+04</rscale>
<asrwt>0</asrwt>
<pdfrwt beam="1">  1        2 0.17834697E+00 0.33152285E+04</pdfrwt>
<pdfrwt beam="2">  1       -2 0.36464855E+00 0.33152285E+04</pdfrwt>
<totfact> 0.20988654E-01</totfact>
</mgrwt>
</event>
<event>
 6    1  0.9364335E-007  0.1435227E+04  0.7818608E-02  0.8928707E-01
          2   -1    0    0  501    0  0.00000000000E+00  0.00000000000E+00  0.14177400126E+04  0.14177400126E+04  0.00000000000E+00 0. -1.
         -2   -1    0    0    0  501 -0.00000000000E+00 -0.00000000000E+00 -0.36323251030E+03  0.36323251030E+03  0.00000000000E+00 0.  1.
         23    2    1    2    0    0  0.25177698230E+03  0.41065394493E+03 -0.12575261609E+03  0.50620106952E+03  0.91637825335E+02 0.  0.
         11    1    3    3    0    0  0.21316699852E+03  0.29420055826E+03 -0.12271952899E+03  0.38347649280E+03  0.00000000000E+00 0.  1.
        -11    1    3    3    0    0  0.38609983788E+02  0.11645338667E+03 -0.30330871018E+01  0.12272457672E+03  0.00000000000E+00 0. -1.
         22    1    1    2    0    0 -0.25177698230E+03 -0.41065394493E+03  0.11802601184E+04  0.12747714534E+04  0.00000000000E+00 0. -1.
<mgrwt>
<rscale>  0 0.14352272E+04</rscale>
<asrwt>0</asrwt>
<pdfrwt beam="1">  1        2 0.21811385E+00 0.14352272E+04</pdfrwt>
<pdfrwt beam="2">  1       -2 0.55881925E-01 0.14352272E+04</pdfrwt>
<totfact> 0.41268900E+01</totfact>
</mgrwt>
</event>
<event>
 6    1  0.9364335E-007  0.1822757E+04  0.7818608E-02  0.8694290E-01
          2   -1    0    0  501    0  0.00000000000E+00  0.00000000000E+00  0.20509629199E+04  0.20509629199E+04  0.00000000000E+00 0. -1.
         -2   -1    0    0    0  501 -0.00000000000E+00 -0.00000000000E+00 -0.40498577170E+03  0.40498577170E+03  0.00000000000E+00 0.  1.
         23    2    1    2    0    0 -0.38915416312E+03  0.46319624557E+03  0.17393384910E+04  0.18438146663E+04  0.91446229817E+02 0.  0.
         11    1    3    3    0    0 -0.15895661257E+03  0.13498958079E+03  0.51964412995E+03  0.55992804305E+03  0.00000000000E+00 0.  1.
        -11    1    3    3    0    0 -0.23019755056E+03  0.32820666478E+03  0.12196943611E+04  0.12838866233E+04  0.00000000000E+00 0. -1.
         22    1    1    2    0    0  0.38915416312E+03 -0.46319624557E+03 -0.93361342768E+02  0.61213402528E+03  0.00000000000E+00 0.  1.
<mgrwt>
<rscale>  0 0.18227570E+04</rscale>
<asrwt>0</asrwt>
<pdfrwt beam="1">  1        2 0.31553275E+00 0.18227570E+04</pdfrwt>
<pdfrwt beam="2">  1       -2 0.62305504E-01 0.18227570E+04</pdfrwt>
<totfact> 0.14098477E+01</totfact>
</mgrwt>
</event>
<event>
 6    1  0.9364335E-007  0.1654062E+04  0.7818608E-02  0.8788007E-01
          2   -1    0    0  501    0  0.00000000000E+00  0.00000000000E+00  0.79321223823E+03  0.79321223823E+03  0.00000000000E+00 0. -1.
         -2   -1    0    0    0  501 -0.00000000000E+00 -0.00000000000E+00 -0.86229207522E+03  0.86229207522E+03  0.00000000000E+00 0.  1.
         23    2    1    2    0    0  0.78409320036E+03 -0.17890000684E+03 -0.21668712505E+03  0.83782756143E+03  0.90522666945E+02 0.  0.
         11    1    3    3    0    0  0.23234172018E+03 -0.95881342666E+02 -0.69355773005E+02  0.26074150045E+03  0.00000000000E+00 0. -1.
        -11    1    3    3    0    0  0.55175148018E+03 -0.83018664175E+02 -0.14733135205E+03  0.57708606098E+03  0.00000000000E+00 0.  1.
         22    1    1    2    0    0 -0.78409320036E+03  0.17890000684E+03  0.14760728805E+03  0.81767675202E+03  0.00000000000E+00 0. -1.
<mgrwt>
<rscale>  0 0.16540624E+04</rscale>
<asrwt>0</asrwt>
<pdfrwt beam="1">  1        2 0.12203265E+00 0.16540624E+04</pdfrwt>
<pdfrwt beam="2">  1       -2 0.13266032E+00 0.16540624E+04</pdfrwt>
<totfact> 0.13721137E+01</totfact>
</mgrwt>
</event>
<event>
 6    1  0.9364335E-007  0.2192446E+04  0.7818608E-02  0.8521579E-01
         -2   -1    0    0    0  501 -0.00000000000E+00  0.00000000000E+00  0.77838514818E+03  0.77838514818E+03  0.00000000000E+00 0.  1.
          2   -1    0    0  501    0  0.00000000000E+00 -0.00000000000E+00 -0.15438441713E+04  0.15438441713E+04  0.00000000000E+00 0. -1.
         23    2    1    2    0    0 -0.89444346277E+03 -0.14564853595E+03 -0.10331811955E+04  0.13772860589E+04  0.90614023571E+02 0.  0.
         13    1    3    3    0    0 -0.71356552427E+03 -0.15000844812E+03 -0.80656139079E+03  0.10872992086E+04  0.00000000000E+00 0.  1.
        -13    1    3    3    0    0 -0.18087793850E+03  0.43599121668E+01 -0.22661980471E+03  0.28998685032E+03  0.00000000000E+00 0. -1.
         22    1    1    2    0    0  0.89444346277E+03  0.14564853595E+03  0.26772217235E+03  0.94494326057E+03  0.00000000000E+00 0.  1.
<mgrwt>
<rscale>  0 0.21924465E+04</rscale>
<asrwt>0</asrwt>
<pdfrwt beam="1">  1        2 0.23751449E+00 0.21924465E+04</pdfrwt>
<pdfrwt beam="2">  1       -2 0.11975156E+00 0.21924465E+04</pdfrwt>
<totfact> 0.58547150E+00</totfact>
</mgrwt>
</event>
<event>
 6    1  0.9364335E-007  0.4840784E+04  0.7818608E-02  0.7853548E-01
         -2   -1    0    0    0  501 -0.00000000000E+00  0.00000000000E+00  0.19837672781E+04  0.19837672781E+04  0.00000000000E+00 0.  1.
          2   -1    0    0  501    0  0.00000000000E+00 -0.00000000000E+00 -0.29531170495E+04  0.29531170495E+04  0.00000000000E+00 0. -1.
         23    2    1    2    0    0  0.57650257088E+02  0.10322111701E+04 -0.27157435120E+04  0.29074325423E+04  0.95486716628E+02 0.  0.
         13    1    3    3    0    0 -0.75848874308E+01  0.21025938505E+03 -0.46398750773E+03  0.50946142822E+03  0.00000000000E+00 0. -1.
        -13    1    3    3    0    0  0.65235144519E+02  0.82195178506E+03 -0.22517560043E+04  0.23979711141E+04  0.00000000000E+00 0.  1.
         22    1    1    2    0    0 -0.57650257088E+02 -0.10322111701E+04  0.17463937406E+04  0.20294517853E+04  0.00000000000E+00 0.  1.
<mgrwt>
<rscale>  0 0.48407838E+04</rscale>
<asrwt>0</asrwt>
<pdfrwt beam="1">  1        2 0.45432570E+00 0.48407838E+04</pdfrwt>
<pdfrwt beam="2">  1       -2 0.30519497E+00 0.48407838E+04</pdfrwt>
<totfact> 0.40543586E-02</totfact>
</mgrwt>
</event>
<event>
 6    1  0.9364335E-007  0.2519309E+04  0.7818608E-02  0.8396139E-01
          2   -1    0    0  501    0  0.00000000000E+00  0.00000000000E+00  0.22305247683E+04  0.22305247683E+04  0.00000000000E+00 0. -1.
         -2   -1    0    0    0  501 -0.00000000000E+00 -0.00000000000E+00 -0.71137032178E+03  0.71137032178E+03  0.00000000000E+00 0.  1.
         23    2    1    2    0    0 -0.10669314132E+04  0.64265272530E+03  0.55201974449E+03  0.13649693792E+04  0.84085920388E+02 0.  0.
         13    1    3    3    0    0 -0.21038717642E+03  0.16006674809E+03  0.96339910371E+02  0.28136365468E+03  0.00000000000E+00 0.  1.
        -13    1    3    3    0    0 -0.85654423677E+03  0.48258597721E+03  0.45567983412E+03  0.10836057245E+04  0.00000000000E+00 0. -1.
         22    1    1    2    0    0  0.10669314132E+04 -0.64265272530E+03  0.96713470201E+03  0.15769257109E+04  0.00000000000E+00 0.  1.
<mgrwt>
<rscale>  0 0.25193087E+04</rscale>
<asrwt>0</asrwt>
<pdfrwt beam="1">  1        2 0.34315765E+00 0.25193087E+04</pdfrwt>
<pdfrwt beam="2">  1       -2 0.10944159E+00 0.25193087E+04</pdfrwt>
<totfact> 0.29393939E+00</totfact>
</mgrwt>
</event>
<event>
 6    1  0.9364335E-007  0.1179783E+04  0.7818608E-02  0.9130738E-01
          2   -1    0    0  501    0  0.00000000000E+00  0.00000000000E+00  0.87413086309E+03  0.87413086309E+03  0.00000000000E+00 0. -1.
         -2   -1    0    0    0  501 -0.00000000000E+00 -0.00000000000E+00 -0.39807798779E+03  0.39807798779E+03  0.00000000000E+00 0.  1.
         23    2    1    2    0    0  0.28989611173E+03  0.43781752938E+03  0.52151334594E+03  0.74515041103E+03  0.86885098985E+02 0.  0.
         13    1    3    3    0    0  0.35219230498E+02  0.94941053345E+02  0.13768160892E+03  0.17091057089E+03  0.00000000000E+00 0. -1.
        -13    1    3    3    0    0  0.25467688124E+03  0.34287647603E+03  0.38383173703E+03  0.57423984014E+03  0.00000000000E+00 0.  1.
         22    1    1    2    0    0 -0.28989611173E+03 -0.43781752938E+03 -0.45460470636E+02  0.52705843985E+03  0.00000000000E+00 0.  1.
<mgrwt>
<rscale>  0 0.11797835E+04</rscale>
<asrwt>0</asrwt>
<pdfrwt beam="1">  1        2 0.13448167E+00 0.11797835E+04</pdfrwt>
<pdfrwt beam="2">  1       -2 0.61242767E-01 0.11797835E+04</pdfrwt>
<totfact> 0.74840592E+01</totfact>
</mgrwt>
</event>
<event>
 6    1  0.9364335E-007  0.2530808E+04  0.7818608E-02  0.8392092E-01
          2   -1    0    0  501    0  0.00000000000E+00  0.00000000000E+00  0.13678696365E+04  0.13678696365E+04  0.00000000000E+00 0. -1.
         -2   -1    0    0    0  501 -0.00000000000E+00 -0.00000000000E+00 -0.11706137090E+04  0.11706137090E+04  0.00000000000E+00 0.  1.
         23    2    1    2    0    0  0.12034027021E+04 -0.31156471952E+03  0.32396100937E+03  0.12889615107E+04  0.10592640130E+03 0.  0.
         13    1    3    3    0    0  0.85849746527E+03 -0.23887063321E+03  0.18521457567E+03  0.91015466615E+03  0.00000000000E+00 0.  1.
        -13    1    3    3    0    0  0.34490523683E+03 -0.72694086314E+02  0.13874643370E+03  0.37880684450E+03  0.00000000000E+00 0. -1.
         22    1    1    2    0    0 -0.12034027021E+04  0.31156471952E+03 -0.12670508190E+03  0.12495218348E+04  0.00000000000E+00 0.  1.
<mgrwt>
<rscale>  0 0.25308077E+04</rscale>
<asrwt>0</asrwt>
<pdfrwt beam="1">  1        2 0.21044148E+00 0.25308077E+04</pdfrwt>
<pdfrwt beam="2">  1       -2 0.18009442E+00 0.25308077E+04</pdfrwt>
<totfact> 0.24322527E+00</totfact>
</mgrwt>
</event>
<event>
 6    1  0.9364335E-007  0.2605441E+04  0.7818608E-02  0.8366355E-01
         -2   -1    0    0    0  501 -0.00000000000E+00  0.00000000000E+00  0.25925102985E+04  0.25925102985E+04  0.00000000000E+00 0.  1.
          2   -1    0    0  501    0  0.00000000000E+00 -0.00000000000E+00 -0.65460921060E+03  0.65460921060E+03  0.00000000000E+00 0. -1.
         23    2    1    2    0    0  0.12839275762E+04  0.41092100456E+02  0.12278184064E+04  0.17793402355E+04  0.91405977727E+02 0.  0.
         11    1    3    3    0    0  0.11777472755E+04  0.42685840698E+02  0.11581237914E+04  0.16523200181E+04  0.00000000000E+00 0. -1.
        -11    1    3    3    0    0  0.10618030065E+03 -0.15937402415E+01  0.69694615047E+02  0.12702021737E+03  0.00000000000E+00 0.  1.
         22    1    1    2    0    0 -0.12839275762E+04 -0.41092100456E+02  0.71008268145E+03  0.14677792736E+04  0.00000000000E+00 0. -1.
<mgrwt>
<rscale>  0 0.26054413E+04</rscale>
<asrwt>0</asrwt>
<pdfrwt beam="1">  1        2 0.10070911E+00 0.26054413E+04</pdfrwt>
<pdfrwt beam="2">  1       -2 0.39884773E+00 0.26054413E+04</pdfrwt>
<totfact> 0.29761716E-01</totfact>
</mgrwt>
</event>
<event>
 6    1  0.9364335E-007  0.4198870E+04  0.7818608E-02  0.7965587E-01
         -2   -1    0    0    0  501 -0.00000000000E+00  0.00000000000E+00  0.24823376602E+04  0.24823376602E+04  0.00000000000E+00 0.  1.
          2   -1    0    0  501    0  0.00000000000E+00 -0.00000000000E+00 -0.17755957799E+04  0.17755957799E+04  0.00000000000E+00 0. -1.
         23    2    1    2    0    0 -0.15991774146E+04 -0.13394842318E+04  0.12167769014E+03  0.20913955298E+04  0.86852698820E+02 0.  0.
         11    1    3    3    0    0 -0.59127448662E+03 -0.55003831357E+03  0.52105703530E+02  0.80923585515E+03  0.00000000000E+00 0. -1.
        -11    1    3    3    0    0 -0.10079029279E+04 -0.78944591819E+03  0.69571986608E+02  0.12821596746E+04  0.00000000000E+00 0.  1.
         22    1    1    2    0    0  0.15991774146E+04  0.13394842318E+04  0.58506419021E+03  0.21665379104E+04  0.00000000000E+00 0.  1.
<mgrwt>
<rscale>  0 0.41988705E+04</rscale>
<asrwt>0</asrwt>
<pdfrwt beam="1">  1        2 0.27316858E+00 0.41988705E+04</pdfrwt>
<pdfrwt beam="2">  1       -2 0.38189810E+00 0.41988705E+04</pdfrwt>
<totfact> 0.67252098E-02</totfact>
</mgrwt>
</event>
<event>
 6    1  0.9364335E-007  0.3720476E+04  0.7818608E-02  0.8063439E-01
          2   -1    0    0  501    0  0.00000000000E+00  0.00000000000E+00  0.21501067672E+04  0.21501067672E+04  0.00000000000E+00 0. -1.
         -2   -1    0    0    0  501 -0.00000000000E+00 -0.00000000000E+00 -0.16094484728E+04  0.16094484728E+04  0.00000000000E+00 0.  1.
         23    2    1    2    0    0 -0.29552460149E+03 -0.18277325974E+04  0.43767148238E+03  0.19052231443E+04  0.10187082644E+03 0.  0.
         13    1    3    3    0    0 -0.11467901134E+03 -0.68311643914E+03  0.21437844148E+03  0.72509134682E+03  0.00000000000E+00 0. -1.
        -13    1    3    3    0    0 -0.18084559015E+03 -0.11446161583E+04  0.22329304090E+03  0.11801317975E+04  0.00000000000E+00 0.  1.
         22    1    1    2    0    0  0.29552460149E+03  0.18277325974E+04  0.10298681199E+03  0.18543320957E+04  0.00000000000E+00 0.  1.
<mgrwt>
<rscale>  0 0.37204763E+04</rscale>
<asrwt>0</asrwt>
<pdfrwt beam="1">  1        2 0.33078566E+00 0.37204763E+04</pdfrwt>
<pdfrwt beam="2">  1       -2 0.24760746E+00 0.37204763E+04</pdfrwt>
<totfact> 0.29554844E-01</totfact>
</mgrwt>
</event>
<event>
 6    1  0.9364335E-007  0.2058439E+04  0.7818608E-02  0.8579775E-01
         -1   -1    0    0    0  501 -0.00000000000E+00  0.00000000000E+00  0.67907558861E+03  0.67907558861E+03  0.00000000000E+00 0.  1.
          1   -1    0    0  501    0  0.00000000000E+00 -0.00000000000E+00 -0.15599046179E+04  0.15599046179E+04  0.00000000000E+00 0. -1.
         23    2    1    2    0    0 -0.47554014912E+03  0.48447057686E+03  0.39704155904E+03  0.79198213678E+03  0.93506855961E+02 0.  0.
         11    1    3    3    0    0 -0.32458685575E+03  0.27731243287E+03  0.21830802672E+03  0.47949682677E+03  0.00000000000E+00 0.  1.
        -11    1    3    3    0    0 -0.15095329337E+03  0.20715814398E+03  0.17873353232E+03  0.31248531001E+03  0.00000000000E+00 0. -1.
         22    1    1    2    0    0  0.47554014912E+03 -0.48447057686E+03 -0.12778705883E+04  0.14469980697E+04  0.00000000000E+00 0. -1.
<mgrwt>
<rscale>  0 0.20584394E+04</rscale>
<asrwt>0</asrwt>
<pdfrwt beam="1">  1        1 0.23998532E+00 0.20584394E+04</pdfrwt>
<pdfrwt beam="2">  1       -1 0.10447317E+00 0.20584394E+04</pdfrwt>
<totfact> 0.47274674E+00</totfact>
</mgrwt>
</event>
<event>
 6    1  0.9364335E-007  0.2206775E+04  0.7818608E-02  0.8515613E-01
         -1   -1    0    0    0  501 -0.00000000000E+00  0.00000000000E+00  0.12357507961E+04  0.12357507961E+04  0.00000000000E+00 0.  1.
          1   -1    0    0  501    0  0.00000000000E+00 -0.00000000000E+00 -0.98520195693E+03  0.98520195693E+03  0.00000000000E+00 0. -1.
         23    2    1    2    0    0 -0.80275869902E+03  0.24742957587E+03 -0.59153824041E+03  0.10315186130E+04  0.92033881063E+02 0.  0.
         13    1    3    3    0    0 -0.54582348692E+03  0.12444560883E+03 -0.37754591744E+03  0.67524137033E+03  0.00000000000E+00 0.  1.
        -13    1    3    3    0    0 -0.25693521210E+03  0.12298396704E+03 -0.21399232297E+03  0.35627724269E+03  0.00000000000E+00 0. -1.
         22    1    1    2    0    0  0.80275869902E+03 -0.24742957587E+03  0.84208707957E+03  0.11894341400E+04  0.00000000000E+00 0.  1.
<mgrwt>
<rscale>  0 0.22067751E+04</rscale>
<asrwt>0</asrwt>
<pdfrwt beam="1">  1        1 0.15156953E+00 0.22067751E+04</pdfrwt>
<pdfrwt beam="2">  1       -1 0.19011551E+00 0.22067751E+04</pdfrwt>
<totfact> 0.24975412E+00</totfact>
</mgrwt>
</event>
<event>
 6    1  0.9364335E-007  0.1949996E+04  0.7818608E-02  0.8630363E-01
          1   -1    0    0  501    0  0.00000000000E+00  0.00000000000E+00  0.21181899249E+04  0.21181899249E+04  0.00000000000E+00 0. -1.
         -1   -1    0    0    0  501 -0.00000000000E+00 -0.00000000000E+00 -0.44878913675E+03  0.44878913675E+03  0.00000000000E+00 0.  1.
         23    2    1    2    0    0  0.84178968790E+03 -0.26875234201E+03  0.13720200074E+04  0.16346309352E+04  0.93497026047E+02 0.  0.
         13    1    3    3    0    0  0.78207498898E+03 -0.22268109157E+03  0.12565082785E+04  0.14966767222E+04  0.00000000000E+00 0.  1.
        -13    1    3    3    0    0  0.59714698921E+02 -0.46071250446E+02  0.11551172890E+03  0.13795421305E+03  0.00000000000E+00 0. -1.
         22    1    1    2    0    0 -0.84178968790E+03  0.26875234201E+03  0.29738078079E+03  0.93234812639E+03  0.00000000000E+00 0. -1.
<mgrwt>
<rscale>  0 0.19499955E+04</rscale>
<asrwt>0</asrwt>
<pdfrwt beam="1">  1        1 0.32587537E+00 0.19499955E+04</pdfrwt>
<pdfrwt beam="2">  1       -1 0.69044484E-01 0.19499955E+04</pdfrwt>
<totfact> 0.48975453E+00</totfact>
</mgrwt>
</event>
<event>
 6    1  0.9364335E-007  0.2711574E+04  0.7818608E-02  0.8331259E-01
         -2   -1    0    0    0  501 -0.00000000000E+00  0.00000000000E+00  0.97655595212E+03  0.97655595212E+03  0.00000000000E+00 0.  1.
          2   -1    0    0  501    0  0.00000000000E+00 -0.00000000000E+00 -0.18822872735E+04  0.18822872735E+04  0.00000000000E+00 0. -1.
         23    2    1    2    0    0 -0.56553537270E+03 -0.84192853124E+02 -0.17477031211E+04  0.18410833296E+04  0.90570042688E+02 0.  0.
         11    1    3    3    0    0 -0.27585815136E+03  0.46642886799E+01 -0.83222585546E+03  0.87676641688E+03  0.00000000000E+00 0. -1.
        -11    1    3    3    0    0 -0.28967722134E+03 -0.88857141804E+02 -0.91547726568E+03  0.96431691274E+03  0.00000000000E+00 0.  1.
         22    1    1    2    0    0  0.56553537270E+03  0.84192853124E+02  0.84197179977E+03  0.10177598960E+04  0.00000000000E+00 0.  1.
<mgrwt>
<rscale>  0 0.27115743E+04</rscale>
<asrwt>0</asrwt>
<pdfrwt beam="1">  1        2 0.28958266E+00 0.27115743E+04</pdfrwt>
<pdfrwt beam="2">  1       -2 0.15023938E+00 0.27115743E+04</pdfrwt>
<totfact> 0.20313710E+00</totfact>
</mgrwt>
</event>
<event>
 6    1  0.9364335E-007  0.1715670E+04  0.7818608E-02  0.8752477E-01
         -2   -1    0    0    0  501 -0.00000000000E+00  0.00000000000E+00  0.47347976817E+03  0.47347976817E+03  0.00000000000E+00 0.  1.
          2   -1    0    0  501    0  0.00000000000E+00 -0.00000000000E+00 -0.15541966068E+04  0.15541966068E+04  0.00000000000E+00 0. -1.
         23    2    1    2    0    0 -0.60467669798E+03  0.31412999330E+03  0.69592866634E+02  0.69069321134E+03  0.88895350506E+02 0.  0.
         11    1    3    3    0    0 -0.27813967566E+03  0.11790352810E+03 -0.66824147584E+01  0.30217143443E+03  0.00000000000E+00 0. -1.
        -11    1    3    3    0    0 -0.32653702231E+03  0.19622646520E+03  0.76275281393E+02  0.38852177692E+03  0.00000000000E+00 0.  1.
         22    1    1    2    0    0  0.60467669798E+03 -0.31412999330E+03 -0.11503097052E+04  0.13369831636E+04  0.00000000000E+00 0. -1.
<mgrwt>
<rscale>  0 0.17156697E+04</rscale>
<asrwt>0</asrwt>
<pdfrwt beam="1">  1        2 0.23910716E+00 0.17156697E+04</pdfrwt>
<pdfrwt beam="2">  1       -2 0.72843043E-01 0.17156697E+04</pdfrwt>
<totfact> 0.19151679E+01</totfact>
</mgrwt>
</event>
<event>
 6    1  0.9364335E-007  0.6608050E+03  0.7818608E-02  0.9786713E-01
          2   -1    0    0  501    0  0.00000000000E+00  0.00000000000E+00  0.76339039260E+03  0.76339039260E+03  0.00000000000E+00 0. -1.
         -2   -1    0    0    0  501 -0.00000000000E+00 -0.00000000000E+00 -0.14300129350E+03  0.14300129350E+03  0.00000000000E+00 0.  1.
         23    2    1    2    0    0  0.24817182501E+03  0.17989409401E+03  0.15628821951E+03  0.35020757429E+03  0.65331445262E+02 0.  0.
         11    1    3    3    0    0  0.14800747199E+03  0.13556399402E+03  0.12436299229E+03  0.23611429878E+03  0.00000000000E+00 0. -1.
        -11    1    3    3    0    0  0.10016435303E+03  0.44330099994E+02  0.31925227223E+02  0.11409327551E+03  0.00000000000E+00 0.  1.
         22    1    1    2    0    0 -0.24817182501E+03 -0.17989409401E+03  0.46410087959E+03  0.55618411181E+03  0.00000000000E+00 0.  1.
<mgrwt>
<rscale>  0 0.66080500E+03</rscale>
<asrwt>0</asrwt>
<pdfrwt beam="1">  1        2 0.11744467E+00 0.66080500E+03</pdfrwt>
<pdfrwt beam="2">  1       -2 0.22000199E-01 0.66080500E+03</pdfrwt>
<totfact> 0.66459097E+02</totfact>
</mgrwt>
</event>
<event>
 6    1  0.9364335E-007  0.4919840E+04  0.7818608E-02  0.7840993E-01
          2   -1    0    0  501    0  0.00000000000E+00  0.00000000000E+00  0.18230278547E+04  0.18230278547E+04  0.00000000000E+00 0. -1.
         -2   -1    0    0    0  501 -0.00000000000E+00 -0.00000000000E+00 -0.33193161862E+04  0.33193161862E+04  0.00000000000E+00 0.  1.
         23    2    1    2    0    0  0.63226842654E+03 -0.68988775350E+03  0.16282049162E+04  0.18807238101E+04  0.10179550603E+03 0.  0.
         13    1    3    3    0    0  0.41237269326E+03 -0.46260632797E+03  0.11698095549E+04  0.13238240999E+04  0.00000000000E+00 0. -1.
        -13    1    3    3    0    0  0.21989573328E+03 -0.22728142553E+03  0.45839536129E+03  0.55689971014E+03  0.00000000000E+00 0.  1.
         22    1    1    2    0    0 -0.63226842654E+03  0.68988775350E+03 -0.31244932477E+04  0.32616202309E+04  0.00000000000E+00 0.  1.
<mgrwt>
<rscale>  0 0.49198398E+04</rscale>
<asrwt>0</asrwt>
<pdfrwt beam="1">  1        2 0.28046583E+00 0.49198398E+04</pdfrwt>
<pdfrwt beam="2">  1       -2 0.51066402E+00 0.49198398E+04</pdfrwt>
<totfact> 0.87759812E-03</totfact>
</mgrwt>
</event>
<event>
 6    1  0.9364335E-007  0.3647471E+04  0.7818608E-02  0.8079704E-01
         -1   -1    0    0    0  501 -0.00000000000E+00  0.00000000000E+00  0.20092270613E+04  0.20092270613E+04  0.00000000000E+00 0.  1.
          1   -1    0    0  501    0  0.00000000000E+00 -0.00000000000E+00 -0.16553688213E+04  0.16553688213E+04  0.00000000000E+00 0. -1.
         23    2    1    2    0    0 -0.12163439284E+04  0.61043685542E+03 -0.10408899498E+04  0.17158916414E+04  0.93308793607E+02 0.  0.
         13    1    3    3    0    0 -0.29480129421E+03  0.13246977537E+03 -0.29509264984E+03  0.43764793664E+03  0.00000000000E+00 0. -1.
        -13    1    3    3    0    0 -0.92154263420E+03  0.47796708005E+03 -0.74579729995E+03  0.12782437048E+04  0.00000000000E+00 0.  1.
         22    1    1    2    0    0  0.12163439284E+04 -0.61043685542E+03  0.13947481898E+04  0.19487042412E+04  0.00000000000E+00 0.  1.
<mgrwt>
<rscale>  0 0.36474714E+04</rscale>
<asrwt>0</asrwt>
<pdfrwt beam="1">  1        1 0.25467213E+00 0.36474714E+04</pdfrwt>
<pdfrwt beam="2">  1       -1 0.30911186E+00 0.36474714E+04</pdfrwt>
<totfact> 0.11871627E-01</totfact>
</mgrwt>
</event>
<event>
 6    1  0.9364335E-007  0.2004006E+04  0.7818608E-02  0.8604750E-01
         -1   -1    0    0    0  501 -0.00000000000E+00  0.00000000000E+00  0.96938450672E+03  0.96938450672E+03  0.00000000000E+00 0.  1.
          1   -1    0    0  501    0  0.00000000000E+00 -0.00000000000E+00 -0.10357193559E+04  0.10357193559E+04  0.00000000000E+00 0. -1.
         23    2    1    2    0    0 -0.84203633435E+03 -0.12960410903E+02 -0.57273461602E+03  0.10224371416E+04  0.90330546233E+02 0.  0.
         13    1    3    3    0    0 -0.64966945517E+03  0.17464194206E+02 -0.47162099392E+03  0.80299549249E+03  0.00000000000E+00 0.  1.
        -13    1    3    3    0    0 -0.19236687918E+03 -0.30424605109E+02 -0.10111362210E+03  0.21944164914E+03  0.00000000000E+00 0. -1.
         22    1    1    2    0    0  0.84203633435E+03  0.12960410903E+02  0.50639976686E+03  0.98266672097E+03  0.00000000000E+00 0.  1.
<mgrwt>
<rscale>  0 0.20040063E+04</rscale>
<asrwt>0</asrwt>
<pdfrwt beam="1">  1        1 0.15934144E+00 0.20040063E+04</pdfrwt>
<pdfrwt beam="2">  1       -1 0.14913608E+00 0.20040063E+04</pdfrwt>
<totfact> 0.46648758E+00</totfact>
</mgrwt>
</event>
<event>
 6    1  0.9364335E-007  0.1697074E+04  0.7818608E-02  0.8763035E-01
         -2   -1    0    0    0  501 -0.00000000000E+00  0.00000000000E+00  0.42602886381E+03  0.42602886381E+03  0.00000000000E+00 0.  1.
          2   -1    0    0  501    0  0.00000000000E+00 -0.00000000000E+00 -0.16900608645E+04  0.16900608645E+04  0.00000000000E+00 0. -1.
         23    2    1    2    0    0 -0.51510226827E+03 -0.47439168108E+03 -0.41395072833E+02  0.70711177561E+03  0.88970204511E+02 0.  0.
         13    1    3    3    0    0 -0.27215759624E+03 -0.20330030860E+03 -0.47667150367E+02  0.34303488144E+03  0.00000000000E+00 0. -1.
        -13    1    3    3    0    0 -0.24294467204E+03 -0.27109137248E+03  0.62720775344E+01  0.36407689416E+03  0.00000000000E+00 0.  1.
         22    1    1    2    0    0  0.51510226827E+03  0.47439168108E+03 -0.12226369278E+04  0.14089779527E+04  0.00000000000E+00 0. -1.
<mgrwt>
<rscale>  0 0.16970736E+04</rscale>
<asrwt>0</asrwt>
<pdfrwt beam="1">  1        2 0.26000936E+00 0.16970736E+04</pdfrwt>
<pdfrwt beam="2">  1       -2 0.65542903E-01 0.16970736E+04</pdfrwt>
<totfact> 0.20269867E+01</totfact>
</mgrwt>
</event>
<event>
 6    1  0.9364335E-007  0.1027144E+04  0.7818608E-02  0.9279264E-01
         -1   -1    0    0    0  501 -0.00000000000E+00  0.00000000000E+00  0.40055333009E+03  0.40055333009E+03  0.00000000000E+00 0.  1.
          1   -1    0    0  501    0  0.00000000000E+00 -0.00000000000E+00 -0.65848024150E+03  0.65848024150E+03  0.00000000000E+00 0. -1.
         23    2    1    2    0    0 -0.28671642469E+02  0.16352015830E+03  0.36654856548E+03  0.41286755075E+03  0.92416764482E+02 0.  0.
         13    1    3    3    0    0 -0.95906246073E+01  0.15370689649E+03  0.24459380700E+03  0.28903965218E+03  0.00000000000E+00 0. -1.
        -13    1    3    3    0    0 -0.19081017861E+02  0.98132618167E+01  0.12195475848E+03  0.12382789858E+03  0.00000000000E+00 0.  1.
         22    1    1    2    0    0  0.28671642469E+02 -0.16352015830E+03 -0.62447547689E+03  0.64616602084E+03  0.00000000000E+00 0. -1.
<mgrwt>
<rscale>  0 0.10271445E+04</rscale>
<asrwt>0</asrwt>
<pdfrwt beam="1">  1        1 0.10130465E+00 0.10271445E+04</pdfrwt>
<pdfrwt beam="2">  1       -1 0.61623589E-01 0.10271445E+04</pdfrwt>
<totfact> 0.79888768E+01</totfact>
</mgrwt>
</event>
<event>
 6    1  0.9364335E-007  0.2851611E+04  0.7818608E-02  0.8287422E-01
         -2   -1    0    0    0  501 -0.00000000000E+00  0.00000000000E+00  0.20394209380E+04  0.20394209380E+04  0.00000000000E+00 0.  1.
          2   -1    0    0  501    0  0.00000000000E+00 -0.00000000000E+00 -0.99681272476E+03  0.99681272476E+03  0.00000000000E+00 0. -1.
         23    2    1    2    0    0 -0.61924545300E+03 -0.68398940942E+03 -0.63348831169E+03  0.11229626406E+04  0.91821609248E+02 0.  0.
         11    1    3    3    0    0 -0.38854208499E+03 -0.46921890185E+03 -0.37540421252E+03  0.71558343499E+03  0.00000000000E+00 0. -1.
        -11    1    3    3    0    0 -0.23070336801E+03 -0.21477050757E+03 -0.25808409917E+03  0.40737920563E+03  0.00000000000E+00 0.  1.
         22    1    1    2    0    0  0.61924545300E+03  0.68398940942E+03  0.16760965250E+04  0.19132710222E+04  0.00000000000E+00 0.  1.
<mgrwt>
<rscale>  0 0.28516106E+04</rscale>
<asrwt>0</asrwt>
<pdfrwt beam="1">  1        2 0.15335580E+00 0.28516106E+04</pdfrwt>
<pdfrwt beam="2">  1       -2 0.31375707E+00 0.28516106E+04</pdfrwt>
<totfact> 0.57373696E-01</totfact>
</mgrwt>
</event>
<event>
 6    1  0.9364335E-007  0.1910931E+04  0.7818608E-02  0.8649434E-01
          1   -1    0    0  501    0  0.00000000000E+00  0.00000000000E+00  0.73350352312E+03  0.73350352312E+03  0.00000000000E+00 0. -1.
         -1   -1    0    0    0  501 -0.00000000000E+00 -0.00000000000E+00 -0.12445948897E+04  0.12445948897E+04  0.00000000000E+00 0.  1.
         23    2    1    2    0    0  0.70340326224E+03  0.58521657580E+03 -0.53278960696E+03  0.10628250091E+04  0.92074126727E+02 0.  0.
         11    1    3    3    0    0  0.42741565483E+03  0.37269333568E+03 -0.37886577258E+03  0.68199980798E+03  0.00000000000E+00 0. -1.
        -11    1    3    3    0    0  0.27598760741E+03  0.21252324012E+03 -0.15392383439E+03  0.38082520114E+03  0.00000000000E+00 0.  1.
         22    1    1    2    0    0 -0.70340326224E+03 -0.58521657580E+03  0.21698240359E+02  0.91527340372E+03  0.00000000000E+00 0. -1.
<mgrwt>
<rscale>  0 0.19109314E+04</rscale>
<asrwt>0</asrwt>
<pdfrwt beam="1">  1        1 0.11284670E+00 0.19109314E+04</pdfrwt>
<pdfrwt beam="2">  1       -1 0.19147613E+00 0.19109314E+04</pdfrwt>
<totfact> 0.40887680E+00</totfact>
</mgrwt>
</event>
<event>
 6    1  0.9364335E-007  0.3220676E+04  0.7818608E-02  0.8183378E-01
          2   -1    0    0  501    0  0.00000000000E+00  0.00000000000E+00  0.24818867241E+04  0.24818867241E+04  0.00000000000E+00 0. -1.
         -2   -1    0    0    0  501 -0.00000000000E+00 -0.00000000000E+00 -0.10448455826E+04  0.10448455826E+04  0.00000000000E+00 0.  1.
         23    2    1    2    0    0  0.13952316667E+04 -0.79810536567E+03  0.63825681776E+03  0.17318228454E+04  0.90526370859E+02 0.  0.
         11    1    3    3    0    0  0.63482546164E+03 -0.35254647719E+03  0.33585887223E+03  0.80005847747E+03  0.00000000000E+00 0. -1.
        -11    1    3    3    0    0  0.76040620510E+03 -0.44555888849E+03  0.30239794553E+03  0.93176436792E+03  0.00000000000E+00 0.  1.
         22    1    1    2    0    0 -0.13952316667E+04  0.79810536567E+03  0.79878432368E+03  0.17949094613E+04  0.00000000000E+00 0. -1.
<mgrwt>
<rscale>  0 0.32206759E+04</rscale>
<asrwt>0</asrwt>
<pdfrwt beam="1">  1        2 0.38182873E+00 0.32206759E+04</pdfrwt>
<pdfrwt beam="2">  1       -2 0.16074547E+00 0.32206759E+04</pdfrwt>
<totfact> 0.74550496E-01</totfact>
</mgrwt>
</event>
<event>
 6    1  0.9364335E-007  0.2642595E+04  0.7818608E-02  0.8353875E-01
          1   -1    0    0  501    0  0.00000000000E+00  0.00000000000E+00  0.16507566810E+04  0.16507566810E+04  0.00000000000E+00 0. -1.
         -1   -1    0    0    0  501 -0.00000000000E+00 -0.00000000000E+00 -0.10575923157E+04  0.10575923157E+04  0.00000000000E+00 0.  1.
         23    2    1    2    0    0  0.44766629769E+03 -0.47990398312E+03 -0.87667511094E+03  0.10986468402E+04  0.88049316616E+02 0.  0.
         11    1    3    3    0    0  0.65997353488E+02 -0.71101521095E+02 -0.18734404323E+03  0.21097124805E+03  0.00000000000E+00 0. -1.
        -11    1    3    3    0    0  0.38166894420E+03 -0.40880246203E+03 -0.68933106772E+03  0.88767559212E+03  0.00000000000E+00 0.  1.
         22    1    1    2    0    0 -0.44766629769E+03  0.47990398312E+03  0.14698394762E+04  0.16097021566E+04  0.00000000000E+00 0. -1.
<mgrwt>
<rscale>  0 0.26425954E+04</rscale>
<asrwt>0</asrwt>
<pdfrwt beam="1">  1        1 0.25396257E+00 0.26425954E+04</pdfrwt>
<pdfrwt beam="2">  1       -1 0.16270651E+00 0.26425954E+04</pdfrwt>
<totfact> 0.12600251E+00</totfact>
</mgrwt>
</event>
<event>
 6    1  0.9364335E-007  0.4616620E+04  0.7818608E-02  0.7890532E-01
         -2   -1    0    0    0  501 -0.00000000000E+00  0.00000000000E+00  0.13178522846E+04  0.13178522846E+04  0.00000000000E+00 0.  1.
          2   -1    0    0  501    0  0.00000000000E+00 -0.00000000000E+00 -0.40431662456E+04  0.40431662456E+04  0.00000000000E+00 0. -1.
         23    2    1    2    0    0  0.35331218921E+03 -0.11380198634E+04 -0.36577080016E+04  0.38479827211E+04  0.90688941201E+02 0.  0.
         11    1    3    3    0    0  0.25053900654E+03 -0.75236077956E+03 -0.25577092242E+04  0.26778149697E+04  0.00000000000E+00 0. -1.
        -11    1    3    3    0    0  0.10277318267E+03 -0.38565908387E+03 -0.10999987774E+04  0.11701677514E+04  0.00000000000E+00 0.  1.
         22    1    1    2    0    0 -0.35331218921E+03  0.11380198634E+04  0.93239404068E+03  0.15130358091E+04  0.00000000000E+00 0.  1.
<mgrwt>
<rscale>  0 0.46166204E+04</rscale>
<asrwt>0</asrwt>
<pdfrwt beam="1">  1        2 0.62202557E+00 0.46166204E+04</pdfrwt>
<pdfrwt beam="2">  1       -2 0.20274651E+00 0.46166204E+04</pdfrwt>
<totfact> 0.30075426E-02</totfact>
</mgrwt>
</event>
<event>
 6    1  0.9364335E-007  0.4877601E+03  0.7818608E-02  0.1017024E+00
          2   -1    0    0  501    0  0.00000000000E+00  0.00000000000E+00  0.41565253830E+03  0.41565253830E+03  0.00000000000E+00 0. -1.
         -2   -1    0    0    0  501 -0.00000000000E+00 -0.00000000000E+00 -0.14309422320E+03  0.14309422320E+03  0.00000000000E+00 0.  1.
         23    2    1    2    0    0  0.10320515570E+03 -0.17331676191E+03  0.28135995517E+03  0.35683719514E+03  0.86483266243E+02 0.  0.
         13    1    3    3    0    0  0.84389825390E+02 -0.12599494194E+03  0.13925996163E+03  0.20588760268E+03  0.00000000000E+00 0.  1.
        -13    1    3    3    0    0  0.18815330307E+02 -0.47321819968E+02  0.14209999354E+03  0.15094959246E+03  0.00000000000E+00 0. -1.
         22    1    1    2    0    0 -0.10320515570E+03  0.17331676191E+03 -0.88016400651E+01  0.20190956636E+03  0.00000000000E+00 0.  1.
<mgrwt>
<rscale>  0 0.48776009E+03</rscale>
<asrwt>0</asrwt>
<pdfrwt beam="1">  1        2 0.63946544E-01 0.48776009E+03</pdfrwt>
<pdfrwt beam="2">  1       -2 0.22014496E-01 0.48776009E+03</pdfrwt>
<totfact> 0.13693866E+03</totfact>
</mgrwt>
</event>
<event>
 6    1  0.9364335E-007  0.9245856E+03  0.7818608E-02  0.9395360E-01
         -1   -1    0    0    0  501 -0.00000000000E+00  0.00000000000E+00  0.15482534655E+03  0.15482534655E+03  0.00000000000E+00 0.  1.
          1   -1    0    0  501    0  0.00000000000E+00 -0.00000000000E+00 -0.13803595356E+04  0.13803595356E+04  0.00000000000E+00 0. -1.
         23    2    1    2    0    0 -0.38936272814E+03  0.31608229108E+02 -0.10161680043E+04  0.10919731793E+04  0.84885789020E+02 0.  0.
         11    1    3    3    0    0 -0.10224766974E+03 -0.22804106885E+02 -0.32819136545E+03  0.34450571202E+03  0.00000000000E+00 0.  1.
        -11    1    3    3    0    0 -0.28711505840E+03  0.54412335993E+02 -0.68797663881E+03  0.74746746726E+03  0.00000000000E+00 0. -1.
         22    1    1    2    0    0  0.38936272814E+03 -0.31608229108E+02 -0.20936618476E+03  0.44321170284E+03  0.00000000000E+00 0.  1.
<mgrwt>
<rscale>  0 0.92458562E+03</rscale>
<asrwt>0</asrwt>
<pdfrwt beam="1">  1        1 0.21236300E+00 0.92458562E+03</pdfrwt>
<pdfrwt beam="2">  1       -1 0.23819285E-01 0.92458562E+03</pdfrwt>
<totfact> 0.12146212E+02</totfact>
</mgrwt>
</event>
<event>
 6    1  0.9364335E-007  0.2546081E+04  0.7818608E-02  0.8386751E-01
          2   -1    0    0  501    0  0.00000000000E+00  0.00000000000E+00  0.21675385755E+04  0.21675385755E+04  0.00000000000E+00 0. -1.
         -2   -1    0    0    0  501 -0.00000000000E+00 -0.00000000000E+00 -0.74768295251E+03  0.74768295251E+03  0.00000000000E+00 0.  1.
         23    2    1    2    0    0  0.60133594191E+03 -0.10603966007E+04  0.11242769874E+04  0.16608640847E+04  0.91787240923E+02 0.  0.
         11    1    3    3    0    0  0.29071088023E+03 -0.46392967809E+03  0.55750732481E+03  0.78138209559E+03  0.00000000000E+00 0. -1.
        -11    1    3    3    0    0  0.31062506169E+03 -0.59646692259E+03  0.56676966263E+03  0.87948198911E+03  0.00000000000E+00 0.  1.
         22    1    1    2    0    0 -0.60133594191E+03  0.10603966007E+04  0.29557863555E+03  0.12543574433E+04  0.00000000000E+00 0.  1.
<mgrwt>
<rscale>  0 0.25460806E+04</rscale>
<asrwt>0</asrwt>
<pdfrwt beam="1">  1        2 0.33346747E+00 0.25460806E+04</pdfrwt>
<pdfrwt beam="2">  1       -2 0.11502815E+00 0.25460806E+04</pdfrwt>
<totfact> 0.28195332E+00</totfact>
</mgrwt>
</event>
<event>
 6    1  0.9364335E-007  0.2337673E+04  0.7818608E-02  0.8463214E-01
         -1   -1    0    0    0  501 -0.00000000000E+00  0.00000000000E+00  0.98658844059E+03  0.98658844059E+03  0.00000000000E+00 0.  1.
          1   -1    0    0  501    0  0.00000000000E+00 -0.00000000000E+00 -0.13847505735E+04  0.13847505735E+04  0.00000000000E+00 0. -1.
         23    2    1    2    0    0  0.75860413315E+03  0.21584964923E+03 -0.10720555756E+04  0.13339366458E+04  0.89512657370E+02 0.  0.
         13    1    3    3    0    0  0.20356792016E+03  0.19665626408E+02 -0.29899561025E+03  0.36224992744E+03  0.00000000000E+00 0.  1.
        -13    1    3    3    0    0  0.55503621299E+03  0.19618402283E+03 -0.77305996534E+03  0.97168671832E+03  0.00000000000E+00 0. -1.
         22    1    1    2    0    0 -0.75860413315E+03 -0.21584964923E+03  0.67389344264E+03  0.10374023684E+04  0.00000000000E+00 0.  1.
<mgrwt>
<rscale>  0 0.23376731E+04</rscale>
<asrwt>0</asrwt>
<pdfrwt beam="1">  1        1 0.21303855E+00 0.23376731E+04</pdfrwt>
<pdfrwt beam="2">  1       -1 0.15178284E+00 0.23376731E+04</pdfrwt>
<totfact> 0.23977240E+00</totfact>
</mgrwt>
</event>
<event>
 6    1  0.9364335E-007  0.1905426E+04  0.7818608E-02  0.8652160E-01
         -1   -1    0    0    0  501 -0.00000000000E+00  0.00000000000E+00  0.12099989304E+04  0.12099989304E+04  0.00000000000E+00 0.  1.
          1   -1    0    0  501    0  0.00000000000E+00 -0.00000000000E+00 -0.75013460812E+03  0.75013460812E+03  0.00000000000E+00 0. -1.
         23    2    1    2    0    0  0.77400473271E+03  0.50261083785E+03 -0.28616363928E+01  0.92774974677E+03  0.94923248422E+02 0.  0.
         13    1    3    3    0    0  0.24737052421E+03  0.15500051961E+03  0.43013686964E+02  0.29507204984E+03  0.00000000000E+00 0. -1.
        -13    1    3    3    0    0  0.52663420850E+03  0.34761031823E+03 -0.45875323357E+02  0.63267769694E+03  0.00000000000E+00 0.  1.
         22    1    1    2    0    0 -0.77400473271E+03 -0.50261083785E+03  0.46272595862E+03  0.10323837917E+04  0.00000000000E+00 0.  1.
<mgrwt>
<rscale>  0 0.19054260E+04</rscale>
<asrwt>0</asrwt>
<pdfrwt beam="1">  1        1 0.11540532E+00 0.19054260E+04</pdfrwt>
<pdfrwt beam="2">  1       -1 0.18615368E+00 0.19054260E+04</pdfrwt>
<totfact> 0.43066505E+00</totfact>
</mgrwt>
</event>
<event>
 6    1  0.9364335E-007  0.7050338E+03  0.7818608E-02  0.9708662E-01
          1   -1    0    0  501    0  0.00000000000E+00  0.00000000000E+00  0.11534648851E+04  0.11534648851E+04  0.00000000000E+00 0. -1.
         -1   -1    0    0    0  501 -0.00000000000E+00 -0.00000000000E+00 -0.10773466089E+03  0.10773466089E+03  0.00000000000E+00 0.  1.
         23    2    1    2    0    0 -0.32783582448E+03 -0.36403393818E+02  0.34109014562E+03  0.48317694013E+03  0.91191738343E+02 0.  0.
         13    1    3    3    0    0 -0.95344530656E+02  0.16546728099E+01  0.46854082093E+02  0.10624792928E+03  0.00000000000E+00 0. -1.
        -13    1    3    3    0    0 -0.23249129382E+03 -0.38058066628E+02  0.29423606353E+03  0.37692901085E+03  0.00000000000E+00 0.  1.
         22    1    1    2    0    0  0.32783582448E+03  0.36403393818E+02  0.70464007863E+03  0.77802260591E+03  0.00000000000E+00 0.  1.
<mgrwt>
<rscale>  0 0.70503375E+03</rscale>
<asrwt>0</asrwt>
<pdfrwt beam="1">  1        1 0.17745613E+00 0.70503375E+03</pdfrwt>
<pdfrwt beam="2">  1       -1 0.16574564E-01 0.70503375E+03</pdfrwt>
<totfact> 0.32772539E+02</totfact>
</mgrwt>
</event>
<event>
 6    1  0.9364335E-007  0.3401421E+04  0.7818608E-02  0.8137558E-01
         -2   -1    0    0    0  501 -0.00000000000E+00  0.00000000000E+00  0.11995117112E+04  0.11995117112E+04  0.00000000000E+00 0.  1.
          2   -1    0    0  501    0  0.00000000000E+00 -0.00000000000E+00 -0.24113281504E+04  0.24113281504E+04  0.00000000000E+00 0. -1.
         23    2    1    2    0    0  0.12686179523E+04  0.14398235019E+03  0.58439290001E+03  0.14070952266E+04  0.90991697429E+02 0.  0.
         13    1    3    3    0    0  0.10576515354E+04  0.10345807292E+03  0.45259401873E+03  0.11550635000E+04  0.00000000000E+00 0. -1.
        -13    1    3    3    0    0  0.21096641696E+03  0.40524277273E+02  0.13179888127E+03  0.25203172665E+03  0.00000000000E+00 0.  1.
         22    1    1    2    0    0 -0.12686179523E+04 -0.14398235019E+03 -0.17962093392E+04  0.22037446350E+04  0.00000000000E+00 0. -1.
<mgrwt>
<rscale>  0 0.34014211E+04</rscale>
<asrwt>0</asrwt>
<pdfrwt beam="1">  1        2 0.37097356E+00 0.34014211E+04</pdfrwt>
<pdfrwt beam="2">  1       -2 0.18454026E+00 0.34014211E+04</pdfrwt>
<totfact> 0.54745494E-01</totfact>
</mgrwt>
</event>
<event>
 6    1  0.9364335E-007  0.5493859E+03  0.7818608E-02  0.1001636E+00
          2   -1    0    0  501    0  0.00000000000E+00  0.00000000000E+00  0.57468616387E+03  0.57468616387E+03  0.00000000000E+00 0. -1.
         -2   -1    0    0    0  501 -0.00000000000E+00 -0.00000000000E+00 -0.13129986754E+03  0.13129986754E+03  0.00000000000E+00 0.  1.
         23    2    1    2    0    0  0.69205486448E+02 -0.47173223064E+02  0.55460605006E+03  0.56675763650E+03  0.81311963655E+02 0.  0.
         11    1    3    3    0    0  0.12357036560E+02 -0.45783998221E+02  0.13036455635E+03  0.13872198238E+03  0.00000000000E+00 0.  1.
        -11    1    3    3    0    0  0.56848449887E+02 -0.13892248434E+01  0.42424149372E+03  0.42803565411E+03  0.00000000000E+00 0. -1.
         22    1    1    2    0    0 -0.69205486448E+02  0.47173223064E+02 -0.11121975374E+03  0.13922839491E+03  0.00000000000E+00 0.  1.
<mgrwt>
<rscale>  0 0.54938590E+03</rscale>
<asrwt>0</asrwt>
<pdfrwt beam="1">  1        2 0.88413255E-01 0.54938590E+03</pdfrwt>
<pdfrwt beam="2">  1       -2 0.20199980E-01 0.54938590E+03</pdfrwt>
<totfact> 0.10983620E+03</totfact>
</mgrwt>
</event>
<event>
 6    1  0.9364335E-007  0.3571636E+04  0.7818608E-02  0.8097020E-01
          1   -1    0    0  501    0  0.00000000000E+00  0.00000000000E+00  0.28029499162E+04  0.28029499162E+04  0.00000000000E+00 0. -1.
         -1   -1    0    0    0  501 -0.00000000000E+00 -0.00000000000E+00 -0.11377818809E+04  0.11377818809E+04  0.00000000000E+00 0.  1.
         23    2    1    2    0    0  0.16869695157E+04 -0.29361838695E+03  0.27822734741E+03  0.17371705032E+04  0.90956014255E+02 0.  0.
         13    1    3    3    0    0  0.79533515482E+03 -0.18303709702E+03  0.12079177379E+03  0.82501590287E+03  0.00000000000E+00 0.  1.
        -13    1    3    3    0    0  0.89163436085E+03 -0.11058128992E+03  0.15743557362E+03  0.91215460037E+03  0.00000000000E+00 0. -1.
         22    1    1    2    0    0 -0.16869695157E+04  0.29361838695E+03  0.13869406879E+04  0.22035612939E+04  0.00000000000E+00 0.  1.
<mgrwt>
<rscale>  0 0.35716358E+04</rscale>
<asrwt>0</asrwt>
<pdfrwt beam="1">  1        1 0.43122306E+00 0.35716358E+04</pdfrwt>
<pdfrwt beam="2">  1       -1 0.17504337E+00 0.35716358E+04</pdfrwt>
<totfact> 0.15195204E-01</totfact>
</mgrwt>
</event>
<event>
 6    1  0.9364335E-007  0.1396447E+04  0.7818608E-02  0.8956394E-01
         -2   -1    0    0    0  501 -0.00000000000E+00  0.00000000000E+00  0.86769245375E+03  0.86769245375E+03  0.00000000000E+00 0.  1.
          2   -1    0    0  501    0  0.00000000000E+00 -0.00000000000E+00 -0.56185344738E+03  0.56185344738E+03  0.00000000000E+00 0. -1.
         23    2    1    2    0    0 -0.19016841127E+03  0.90045197728E+02  0.83187187151E+03  0.86299251663E+03  0.92049502228E+02 0.  0.
         11    1    3    3    0    0 -0.49721021993E+02 -0.15217271251E+02  0.24399611038E+03  0.24947514356E+03  0.00000000000E+00 0. -1.
        -11    1    3    3    0    0 -0.14044738928E+03  0.10526246898E+03  0.58787576113E+03  0.61351737307E+03  0.00000000000E+00 0.  1.
         22    1    1    2    0    0  0.19016841127E+03 -0.90045197728E+02 -0.52603286515E+03  0.56655338451E+03  0.00000000000E+00 0. -1.
<mgrwt>
<rscale>  0 0.13964469E+04</rscale>
<asrwt>0</asrwt>
<pdfrwt beam="1">  1        2 0.86438992E-01 0.13964469E+04</pdfrwt>
<pdfrwt beam="2">  1       -2 0.13349115E+00 0.13964469E+04</pdfrwt>
<totfact> 0.21203708E+01</totfact>
</mgrwt>
</event>
<event>
 6    1  0.9364335E-007  0.5068186E+04  0.7818608E-02  0.7818074E-01
         -1   -1    0    0    0  501 -0.00000000000E+00  0.00000000000E+00  0.27494972803E+04  0.27494972803E+04  0.00000000000E+00 0.  1.
          1   -1    0    0  501    0  0.00000000000E+00 -0.00000000000E+00 -0.23355644874E+04  0.23355644874E+04  0.00000000000E+00 0. -1.
         23    2    1    2    0    0 -0.23009364037E+04 -0.10570258901E+04  0.27835028807E+03  0.25493183497E+04  0.99664935325E+02 0.  0.
         11    1    3    3    0    0 -0.14000634341E+04 -0.69013420011E+03  0.19459907776E+03  0.15730008374E+04  0.00000000000E+00 0. -1.
        -11    1    3    3    0    0 -0.90087296962E+03 -0.36689168998E+03  0.83751210308E+02  0.97631751229E+03  0.00000000000E+00 0.  1.
         22    1    1    2    0    0  0.23009364037E+04  0.10570258901E+04  0.13558250475E+03  0.25357434180E+04  0.00000000000E+00 0.  1.
<mgrwt>
<rscale>  0 0.50681863E+04</rscale>
<asrwt>0</asrwt>
<pdfrwt beam="1">  1        1 0.35931761E+00 0.50681863E+04</pdfrwt>
<pdfrwt beam="2">  1       -1 0.42299958E+00 0.50681863E+04</pdfrwt>
<totfact> 0.62879415E-03</totfact>
</mgrwt>
</event>
<event>
 6    1  0.9364335E-007  0.1564759E+04  0.7818608E-02  0.8842495E-01
         -1   -1    0    0    0  501 -0.00000000000E+00  0.00000000000E+00  0.11992384635E+04  0.11992384635E+04  0.00000000000E+00 0.  1.
          1   -1    0    0  501    0  0.00000000000E+00 -0.00000000000E+00 -0.51042197117E+03  0.51042197117E+03  0.00000000000E+00 0. -1.
         23    2    1    2    0    0 -0.50633015723E+02 -0.27738375292E+03  0.11399459387E+04  0.11776611620E+04  0.88902309304E+02 0.  0.
         11    1    3    3    0    0 -0.72678493160E+02 -0.15450125895E+03  0.67053948442E+03  0.69193641511E+03  0.00000000000E+00 0. -1.
        -11    1    3    3    0    0  0.22045477437E+02 -0.12288249397E+03  0.46940645429E+03  0.48572474687E+03  0.00000000000E+00 0.  1.
         22    1    1    2    0    0  0.50633015723E+02  0.27738375292E+03 -0.45112944643E+03  0.53199927265E+03  0.00000000000E+00 0. -1.
<mgrwt>
<rscale>  0 0.15647590E+04</rscale>
<asrwt>0</asrwt>
<pdfrwt beam="1">  1        1 0.78526458E-01 0.15647590E+04</pdfrwt>
<pdfrwt beam="2">  1       -1 0.18449822E+00 0.15647590E+04</pdfrwt>
<totfact> 0.80086963E+00</totfact>
</mgrwt>
</event>
<event>
 6    1  0.9364335E-007  0.3470510E+04  0.7818608E-02  0.8120814E-01
         -2   -1    0    0    0  501 -0.00000000000E+00  0.00000000000E+00  0.19948954192E+04  0.19948954192E+04  0.00000000000E+00 0.  1.
          2   -1    0    0  501    0  0.00000000000E+00 -0.00000000000E+00 -0.15094075933E+04  0.15094075933E+04  0.00000000000E+00 0. -1.
         23    2    1    2    0    0 -0.11640265127E+04  0.26549494245E+03  0.15127753765E+04  0.19292585692E+04  0.90022220076E+02 0.  0.
         13    1    3    3    0    0 -0.34915577544E+03  0.64411957939E+02  0.51307325072E+03  0.62394135658E+03  0.00000000000E+00 0.  1.
        -13    1    3    3    0    0 -0.81487073728E+03  0.20108298451E+03  0.99970212579E+03  0.13053172126E+04  0.00000000000E+00 0. -1.
         22    1    1    2    0    0  0.11640265127E+04 -0.26549494245E+03 -0.10272875506E+04  0.15750444433E+04  0.00000000000E+00 0. -1.
<mgrwt>
<rscale>  0 0.34705102E+04</rscale>
<asrwt>0</asrwt>
<pdfrwt beam="1">  1        2 0.23221655E+00 0.34705102E+04</pdfrwt>
<pdfrwt beam="2">  1       -2 0.30690699E+00 0.34705102E+04</pdfrwt>
<totfact> 0.29773185E-01</totfact>
</mgrwt>
</event>
<event>
 6    1  0.9364335E-007  0.2485282E+04  0.7818608E-02  0.8408248E-01
          2   -1    0    0  501    0  0.00000000000E+00  0.00000000000E+00  0.39755431020E+04  0.39755431020E+04  0.00000000000E+00 0. -1.
         -2   -1    0    0    0  501 -0.00000000000E+00 -0.00000000000E+00 -0.38841397920E+03  0.38841397920E+03  0.00000000000E+00 0.  1.
         23    2    1    2    0    0 -0.10871582756E+04 -0.55934066861E+02  0.74969447096E+03  0.13248655821E+04  0.90472508875E+02 0.  0.
         11    1    3    3    0    0 -0.61530107496E+03 -0.54365106581E+02  0.47166789773E+03  0.77718825480E+03  0.00000000000E+00 0. -1.
        -11    1    3    3    0    0 -0.47185720067E+03 -0.15689602798E+01  0.27802657324E+03  0.54767732734E+03  0.00000000000E+00 0.  1.
         22    1    1    2    0    0  0.10871582756E+04  0.55934066861E+02  0.28374346518E+04  0.30390914990E+04  0.00000000000E+00 0. -1.
<mgrwt>
<rscale>  0 0.24852819E+04</rscale>
<asrwt>0</asrwt>
<pdfrwt beam="1">  1        2 0.61162199E+00 0.24852819E+04</pdfrwt>
<pdfrwt beam="2">  1       -2 0.59756000E-01 0.24852819E+04</pdfrwt>
<totfact> 0.83811039E-01</totfact>
</mgrwt>
</event>
<event>
 6    1  0.9364335E-007  0.1600440E+04  0.7818608E-02  0.8820278E-01
          1   -1    0    0  501    0  0.00000000000E+00  0.00000000000E+00  0.14799943543E+04  0.14799943543E+04  0.00000000000E+00 0. -1.
         -1   -1    0    0    0  501 -0.00000000000E+00 -0.00000000000E+00 -0.43267190529E+03  0.43267190529E+03  0.00000000000E+00 0.  1.
         23    2    1    2    0    0  0.13215310654E+03  0.77676449287E+03  0.67324121711E+03  0.10404482312E+04  0.91930759362E+02 0.  0.
         11    1    3    3    0    0  0.16276499172E+02  0.18400121179E+03  0.11240678581E+03  0.21623287415E+03  0.00000000000E+00 0. -1.
        -11    1    3    3    0    0  0.11587660737E+03  0.59276328108E+03  0.56083443130E+03  0.82421535709E+03  0.00000000000E+00 0.  1.
         22    1    1    2    0    0 -0.13215310654E+03 -0.77676449287E+03  0.37408123195E+03  0.87221802839E+03  0.00000000000E+00 0.  1.
<mgrwt>
<rscale>  0 0.16004399E+04</rscale>
<asrwt>0</asrwt>
<pdfrwt beam="1">  1        1 0.22769144E+00 0.16004399E+04</pdfrwt>
<pdfrwt beam="2">  1       -1 0.66564909E-01 0.16004399E+04</pdfrwt>
<totfact> 0.14819575E+01</totfact>
</mgrwt>
</event>
<event>
 6    1  0.9364335E-007  0.1215022E+04  0.7818608E-02  0.9099808E-01
         -2   -1    0    0    0  501 -0.00000000000E+00  0.00000000000E+00  0.11366772105E+03  0.11366772105E+03  0.00000000000E+00 0.  1.
          2   -1    0    0  501    0  0.00000000000E+00 -0.00000000000E+00 -0.32469178353E+04  0.32469178353E+04  0.00000000000E+00 0. -1.
         23    2    1    2    0    0 -0.57800124935E+03  0.29530110038E+02 -0.20549134295E+04  0.21367524479E+04  0.89913009443E+02 0.  0.
         11    1    3    3    0    0 -0.31282228977E+03 -0.23172790943E+02 -0.11832135726E+04  0.12240870564E+04  0.00000000000E+00 0. -1.
        -11    1    3    3    0    0 -0.26517895958E+03  0.52702900980E+02 -0.87169985687E+03  0.91266539150E+03  0.00000000000E+00 0.  1.
         22    1    1    2    0    0  0.57800124935E+03 -0.29530110038E+02 -0.10783366848E+04  0.12238331085E+04  0.00000000000E+00 0.  1.
<mgrwt>
<rscale>  0 0.12150222E+04</rscale>
<asrwt>0</asrwt>
<pdfrwt beam="1">  1        2 0.49952581E+00 0.12150222E+04</pdfrwt>
<pdfrwt beam="2">  1       -2 0.17487342E-01 0.12150222E+04</pdfrwt>
<totfact> 0.32780953E+01</totfact>
</mgrwt>
</event>
<event>
 6    1  0.9364335E-007  0.2146055E+04  0.7818608E-02  0.8541223E-01
          1   -1    0    0  501    0  0.00000000000E+00  0.00000000000E+00  0.10741813651E+04  0.10741813651E+04  0.00000000000E+00 0. -1.
         -1   -1    0    0    0  501 -0.00000000000E+00 -0.00000000000E+00 -0.10718748369E+04  0.10718748369E+04  0.00000000000E+00 0.  1.
         23    2    1    2    0    0  0.58793863794E+02 -0.37615691883E+03  0.10022859869E+04  0.10760516862E+04  0.91429130770E+02 0.  0.
         11    1    3    3    0    0  0.44493422438E+02 -0.13609177629E+03  0.48310980018E+03  0.50388065575E+03  0.00000000000E+00 0.  1.
        -11    1    3    3    0    0  0.14300441356E+02 -0.24006514254E+03  0.51917618669E+03  0.57217103047E+03  0.00000000000E+00 0. -1.
         22    1    1    2    0    0 -0.58793863794E+02  0.37615691883E+03 -0.99997945869E+03  0.10700045158E+04  0.00000000000E+00 0.  1.
<mgrwt>
<rscale>  0 0.21460550E+04</rscale>
<asrwt>0</asrwt>
<pdfrwt beam="1">  1        1 0.16525867E+00 0.21460550E+04</pdfrwt>
<pdfrwt beam="2">  1       -1 0.16490382E+00 0.21460550E+04</pdfrwt>
<totfact> 0.32612852E+00</totfact>
</mgrwt>
</event>
<event>
 6    1  0.9364335E-007  0.2414287E+03  0.7818608E-02  0.1118845E+00
         -2   -1    0    0    0  501 -0.00000000000E+00  0.00000000000E+00  0.14178448396E+03  0.14178448396E+03  0.00000000000E+00 0.  1.
          2   -1    0    0  501    0  0.00000000000E+00 -0.00000000000E+00 -0.10277540733E+03  0.10277540733E+03  0.00000000000E+00 0. -1.
         23    2    1    2    0    0  0.10321156223E+03  0.13326818177E+02  0.28972288530E+02  0.14000862264E+03  0.89066212740E+02 0.  0.
         13    1    3    3    0    0  0.33733949831E+02  0.27524862875E+02 -0.25618417973E+02  0.50516341781E+02  0.00000000000E+00 0. -1.
        -13    1    3    3    0    0  0.69477612394E+02 -0.14198044698E+02  0.54590706503E+02  0.89492280861E+02  0.00000000000E+00 0.  1.
         22    1    1    2    0    0 -0.10321156223E+03 -0.13326818177E+02  0.10036788102E+02  0.10455126864E+03  0.00000000000E+00 0. -1.
<mgrwt>
<rscale>  0 0.24142873E+03</rscale>
<asrwt>0</asrwt>
<pdfrwt beam="1">  1        2 0.15811601E-01 0.24142873E+03</pdfrwt>
<pdfrwt beam="2">  1       -2 0.21812998E-01 0.24142873E+03</pdfrwt>
<totfact> 0.65139073E+03</totfact>
</mgrwt>
</event>
<event>
 6    1  0.9364335E-007  0.2745502E+04  0.7818608E-02  0.8320390E-01
         -2   -1    0    0    0  501 -0.00000000000E+00  0.00000000000E+00  0.10916883904E+04  0.10916883904E+04  0.00000000000E+00 0.  1.
          2   -1    0    0  501    0  0.00000000000E+00 -0.00000000000E+00 -0.17261757062E+04  0.17261757062E+04  0.00000000000E+00 0. -1.
         23    2    1    2    0    0 -0.26437274204E+03 -0.18277719431E+02 -0.16984282954E+04  0.17214164555E+04  0.91591030353E+02 0.  0.
         11    1    3    3    0    0 -0.20208362421E+03 -0.53044453779E+02 -0.12878084470E+04  0.13046463511E+04  0.00000000000E+00 0.  1.
        -11    1    3    3    0    0 -0.62289117828E+02  0.34766734348E+02 -0.41061984837E+03  0.41677010437E+03  0.00000000000E+00 0. -1.
         22    1    1    2    0    0  0.26437274204E+03  0.18277719431E+02  0.10639409795E+04  0.10964476411E+04  0.00000000000E+00 0.  1.
<mgrwt>
<rscale>  0 0.27455025E+04</rscale>
<asrwt>0</asrwt>
<pdfrwt beam="1">  1        2 0.26556549E+00 0.27455025E+04</pdfrwt>
<pdfrwt beam="2">  1       -2 0.16795206E+00 0.27455025E+04</pdfrwt>
<totfact> 0.18274936E+00</totfact>
</mgrwt>
</event>
<event>
 6    1  0.9364335E-007  0.1523601E+04  0.7818608E-02  0.8868909E-01
          2   -1    0    0  501    0  0.00000000000E+00  0.00000000000E+00  0.32798513864E+03  0.32798513864E+03  0.00000000000E+00 0. -1.
         -2   -1    0    0    0  501 -0.00000000000E+00 -0.00000000000E+00 -0.17694087273E+04  0.17694087273E+04  0.00000000000E+00 0.  1.
         23    2    1    2    0    0 -0.55656611725E+03  0.50323662611E+03 -0.88121255492E+03  0.11609915234E+04  0.91393685645E+02 0.  0.
         13    1    3    3    0    0 -0.36010160316E+03  0.32103274650E+03 -0.63181454007E+03  0.79493697987E+03  0.00000000000E+00 0.  1.
        -13    1    3    3    0    0 -0.19646451409E+03  0.18220387961E+03 -0.24939801485E+03  0.36605454355E+03  0.00000000000E+00 0. -1.
         22    1    1    2    0    0  0.55656611725E+03 -0.50323662611E+03 -0.56021103370E+03  0.93640234249E+03  0.00000000000E+00 0. -1.
<mgrwt>
<rscale>  0 0.15236007E+04</rscale>
<asrwt>0</asrwt>
<pdfrwt beam="1">  1        2 0.50459251E-01 0.15236007E+04</pdfrwt>
<pdfrwt beam="2">  1       -2 0.27221673E+00 0.15236007E+04</pdfrwt>
<totfact> 0.45107919E+00</totfact>
</mgrwt>
</event>
<event>
 6    1  0.9364335E-007  0.1332647E+04  0.7818608E-02  0.9004069E-01
         -1   -1    0    0    0  501 -0.00000000000E+00  0.00000000000E+00  0.37758025872E+03  0.37758025872E+03  0.00000000000E+00 0.  1.
          1   -1    0    0  501    0  0.00000000000E+00 -0.00000000000E+00 -0.11758737297E+04  0.11758737297E+04  0.00000000000E+00 0. -1.
         23    2    1    2    0    0  0.23341760006E+03 -0.18414411349E+03 -0.10921002019E+04  0.11354644841E+04  0.90575454977E+02 0.  0.
         13    1    3    3    0    0  0.20211716239E+03 -0.10975772015E+03 -0.79557845867E+03  0.82815649992E+03  0.00000000000E+00 0.  1.
        -13    1    3    3    0    0  0.31300437671E+02 -0.74386393339E+02 -0.29652174325E+03  0.30730798417E+03  0.00000000000E+00 0. -1.
         22    1    1    2    0    0 -0.23341760006E+03  0.18414411349E+03  0.29380673097E+03  0.41798950431E+03  0.00000000000E+00 0.  1.
<mgrwt>
<rscale>  0 0.13326466E+04</rscale>
<asrwt>0</asrwt>
<pdfrwt beam="1">  1        1 0.18090365E+00 0.13326466E+04</pdfrwt>
<pdfrwt beam="2">  1       -1 0.58089272E-01 0.13326466E+04</pdfrwt>
<totfact> 0.32753237E+01</totfact>
</mgrwt>
</event>
<event>
 6    1  0.9364335E-007  0.2971520E+04  0.7818608E-02  0.8251911E-01
         -4   -1    0    0    0  501 -0.00000000000E+00  0.00000000000E+00  0.28820875721E+04  0.28820875721E+04  0.00000000000E+00 0.  1.
          4   -1    0    0  501    0  0.00000000000E+00 -0.00000000000E+00 -0.76593166711E+03  0.76593166711E+03  0.00000000000E+00 0. -1.
         23    2    1    2    0    0  0.13780751763E+04 -0.54518756879E+03  0.95662663278E+03  0.17663102262E+04  0.91633095130E+02 0.  0.
         11    1    3    3    0    0  0.93351077502E+03 -0.38787406508E+03  0.69820620538E+03  0.12285685014E+04  0.00000000000E+00 0.  1.
        -11    1    3    3    0    0  0.44456440124E+03 -0.15731350371E+03  0.25842042740E+03  0.53774172480E+03  0.00000000000E+00 0. -1.
         22    1    1    2    0    0 -0.13780751763E+04  0.54518756879E+03  0.11595292722E+04  0.18817090130E+04  0.00000000000E+00 0.  1.
<mgrwt>
<rscale>  0 0.29715196E+04</rscale>
<asrwt>0</asrwt>
<pdfrwt beam="1">  1        4 0.11783564E+00 0.29715196E+04</pdfrwt>
<pdfrwt beam="2">  1       -4 0.44339808E+00 0.29715196E+04</pdfrwt>
<totfact> 0.31270407E-03</totfact>
</mgrwt>
</event>
<event>
 6    1  0.9488936E-007  0.2831538E+04  0.7818608E-02  0.8293544E-01
          2   -1    0    0  501    0  0.00000000000E+00  0.00000000000E+00  0.25976284705E+04  0.25976284705E+04  0.00000000000E+00 0. -1.
         -2   -1    0    0    0  501 -0.00000000000E+00 -0.00000000000E+00 -0.77162740521E+03  0.77162740521E+03  0.00000000000E+00 0.  1.
         23    2    1    2    0    0  0.12089030456E+04  0.43560499427E+02  0.17861901133E+04  0.21589133611E+04  0.84188413997E+02 0.  0.
         11    1    3    3    0    0  0.56631334262E+03  0.61302674907E+01  0.76591502840E+03  0.95256192079E+03  0.00000000000E+00 0. -1.
        -11    1    3    3    0    0  0.64258970299E+03  0.37430231936E+02  0.10202750849E+04  0.12063514403E+04  0.00000000000E+00 0.  1.
         22    1    1    2    0    0 -0.12089030456E+04 -0.43560499427E+02  0.39810951983E+02  0.12103425146E+04  0.00000000000E+00 0.  1.
<mgrwt>
<rscale>  0 0.28315376E+04</rscale>
<asrwt>0</asrwt>
<pdfrwt beam="1">  1        2 0.39963514E+00 0.28315376E+04</pdfrwt>
<pdfrwt beam="2">  1       -2 0.11871191E+00 0.28315376E+04</pdfrwt>
<totfact> 0.14448585E+00</totfact>
</mgrwt>
</event>
<event>
 6    1  0.9364335E-007  0.1070540E+04  0.7818608E-02  0.9234391E-01
          1   -1    0    0  501    0  0.00000000000E+00  0.00000000000E+00  0.28766317959E+04  0.28766317959E+04  0.00000000000E+00 0. -1.
         -1   -1    0    0    0  501 -0.00000000000E+00 -0.00000000000E+00 -0.99600585177E+02  0.99600585177E+02  0.00000000000E+00 0.  1.
         23    2    1    2    0    0  0.13679841183E+03 -0.46296190125E+03  0.20151650086E+04  0.20742968859E+04  0.93648446603E+02 0.  0.
         11    1    3    3    0    0  0.56538174791E+02 -0.69507672280E+02  0.32976022180E+03  0.34171579653E+03  0.00000000000E+00 0. -1.
        -11    1    3    3    0    0  0.80260237042E+02 -0.39345422897E+03  0.16854047868E+04  0.17325810894E+04  0.00000000000E+00 0.  1.
         22    1    1    2    0    0 -0.13679841183E+03  0.46296190125E+03  0.76186620211E+03  0.90193549514E+03  0.00000000000E+00 0.  1.
<mgrwt>
<rscale>  0 0.10705404E+04</rscale>
<asrwt>0</asrwt>
<pdfrwt beam="1">  1        1 0.44255867E+00 0.10705404E+04</pdfrwt>
<pdfrwt beam="2">  1       -1 0.15323169E-01 0.10705404E+04</pdfrwt>
<totfact> 0.23685034E+01</totfact>
</mgrwt>
</event>
<event>
 6    1  0.9364335E-007  0.1570405E+04  0.7818608E-02  0.8838938E-01
         -2   -1    0    0    0  501 -0.00000000000E+00  0.00000000000E+00  0.13341724558E+04  0.13341724558E+04  0.00000000000E+00 0.  1.
          2   -1    0    0  501    0  0.00000000000E+00 -0.00000000000E+00 -0.46211655765E+03  0.46211655765E+03  0.00000000000E+00 0. -1.
         23    2    1    2    0    0 -0.66411002665E+03 -0.39424717103E+03  0.29324536217E+03  0.83114933656E+03  0.91342311505E+02 0.  0.
         13    1    3    3    0    0 -0.11364124363E+03 -0.34814331990E+02  0.27161815181E+02  0.12191855548E+03  0.00000000000E+00 0.  1.
        -13    1    3    3    0    0 -0.55046878302E+03 -0.35943283904E+03  0.26608354699E+03  0.70923078108E+03  0.00000000000E+00 0. -1.
         22    1    1    2    0    0  0.66411002665E+03  0.39424717103E+03  0.57881053601E+03  0.96513967692E+03  0.00000000000E+00 0.  1.
<mgrwt>
<rscale>  0 0.15704053E+04</rscale>
<asrwt>0</asrwt>
<pdfrwt beam="1">  1        2 0.71094856E-01 0.15704053E+04</pdfrwt>
<pdfrwt beam="2">  1       -2 0.20525730E+00 0.15704053E+04</pdfrwt>
<totfact> 0.79597356E+00</totfact>
</mgrwt>
</event>
<event>
 6    1  0.9364335E-007  0.3092287E+04  0.7818608E-02  0.8217858E-01
         -2   -1    0    0    0  501 -0.00000000000E+00  0.00000000000E+00  0.18810952958E+04  0.18810952958E+04  0.00000000000E+00 0.  1.
          2   -1    0    0  501    0  0.00000000000E+00 -0.00000000000E+00 -0.12708342665E+04  0.12708342665E+04  0.00000000000E+00 0. -1.
         23    2    1    2    0    0  0.34250728686E+03  0.81106754377E+03 -0.98843517559E+03  0.13268346723E+04  0.91347409277E+02 0.  0.
         11    1    3    3    0    0  0.16494750300E+03  0.42361608322E+03 -0.57566032696E+03  0.73351419669E+03  0.00000000000E+00 0. -1.
        -11    1    3    3    0    0  0.17755978386E+03  0.38745146054E+03 -0.41277484863E+03  0.59332047562E+03  0.00000000000E+00 0.  1.
         22    1    1    2    0    0 -0.34250728686E+03 -0.81106754377E+03  0.15986962048E+04  0.18250948900E+04  0.00000000000E+00 0.  1.
<mgrwt>
<rscale>  0 0.30922874E+04</rscale>
<asrwt>0</asrwt>
<pdfrwt beam="1">  1        2 0.19551296E+00 0.30922874E+04</pdfrwt>
<pdfrwt beam="2">  1       -2 0.28939928E+00 0.30922874E+04</pdfrwt>
<totfact> 0.53900184E-01</totfact>
</mgrwt>
</event>
<event>
 6    1  0.9364335E-007  0.4882948E+04  0.7818608E-02  0.7846822E-01
         -1   -1    0    0    0  501 -0.00000000000E+00  0.00000000000E+00  0.20342668548E+04  0.20342668548E+04  0.00000000000E+00 0.  1.
          1   -1    0    0  501    0  0.00000000000E+00 -0.00000000000E+00 -0.29301932358E+04  0.29301932358E+04  0.00000000000E+00 0. -1.
         23    2    1    2    0    0  0.18734726222E+02 -0.16744782331E+04 -0.22532937707E+04  0.28088454280E+04  0.89730030615E+02 0.  0.
         11    1    3    3    0    0 -0.54961503777E+00 -0.14210264912E+04 -0.18633450405E+04  0.23433675194E+04  0.00000000000E+00 0. -1.
        -11    1    3    3    0    0  0.19284341259E+02 -0.25345174190E+03 -0.38994873014E+03  0.46547790863E+03  0.00000000000E+00 0.  1.
         22    1    1    2    0    0 -0.18734726222E+02  0.16744782331E+04  0.13573673896E+04  0.21556146626E+04  0.00000000000E+00 0.  1.
<mgrwt>
<rscale>  0 0.48829479E+04</rscale>
<asrwt>0</asrwt>
<pdfrwt beam="1">  1        1 0.45079896E+00 0.48829479E+04</pdfrwt>
<pdfrwt beam="2">  1       -1 0.31296413E+00 0.48829479E+04</pdfrwt>
<totfact> 0.13316143E-02</totfact>
</mgrwt>
</event>
<event>
 6    1  0.9364335E-007  0.4055869E+04  0.7818608E-02  0.7993370E-01
          1   -1    0    0  501    0  0.00000000000E+00  0.00000000000E+00  0.25499827807E+04  0.25499827807E+04  0.00000000000E+00 0. -1.
         -1   -1    0    0    0  501 -0.00000000000E+00 -0.00000000000E+00 -0.16127634842E+04  0.16127634842E+04  0.00000000000E+00 0.  1.
         23    2    1    2    0    0 -0.10423013610E+04 -0.12711249765E+04  0.16859040340E+04  0.23564573431E+04  0.92021545267E+02 0.  0.
         11    1    3    3    0    0 -0.71907506227E+03 -0.84004391980E+03  0.11848925134E+04  0.16207137319E+04  0.00000000000E+00 0. -1.
        -11    1    3    3    0    0 -0.32322629877E+03 -0.43108105667E+03  0.50101152063E+03  0.73574361122E+03  0.00000000000E+00 0.  1.
         22    1    1    2    0    0  0.10423013610E+04  0.12711249765E+04 -0.74868473755E+03  0.18062889219E+04  0.00000000000E+00 0.  1.
<mgrwt>
<rscale>  0 0.40558694E+04</rscale>
<asrwt>0</asrwt>
<pdfrwt beam="1">  1        1 0.39230504E+00 0.40558694E+04</pdfrwt>
<pdfrwt beam="2">  1       -1 0.24811746E+00 0.40558694E+04</pdfrwt>
<totfact> 0.69876942E-02</totfact>
</mgrwt>
</event>
<event>
 6    1  0.9364335E-007  0.1649222E+04  0.7818608E-02  0.8790867E-01
         -2   -1    0    0    0  501 -0.00000000000E+00  0.00000000000E+00  0.81884962643E+03  0.81884962643E+03  0.00000000000E+00 0.  1.
          2   -1    0    0  501    0  0.00000000000E+00 -0.00000000000E+00 -0.83041316663E+03  0.83041316663E+03  0.00000000000E+00 0. -1.
         23    2    1    2    0    0 -0.21406394537E+03  0.71681138419E+03  0.33451553594E+03  0.82499787197E+03  0.95283323608E+02 0.  0.
         11    1    3    3    0    0 -0.16773414997E+03  0.58694088198E+03  0.31108739903E+03  0.68513481436E+03  0.00000000000E+00 0.  1.
        -11    1    3    3    0    0 -0.46329795405E+02  0.12987050220E+03  0.23428136906E+02  0.13986305761E+03  0.00000000000E+00 0. -1.
         22    1    1    2    0    0  0.21406394537E+03 -0.71681138419E+03 -0.34607907613E+03  0.82426492109E+03  0.00000000000E+00 0. -1.
<mgrwt>
<rscale>  0 0.16492223E+04</rscale>
<asrwt>0</asrwt>
<pdfrwt beam="1">  1        2 0.12775587E+00 0.16492223E+04</pdfrwt>
<pdfrwt beam="2">  1       -2 0.12597687E+00 0.16492223E+04</pdfrwt>
<totfact> 0.14714265E+01</totfact>
</mgrwt>
</event>
<event>
 6    1  0.9364335E-007  0.9736053E+03  0.7818608E-02  0.9337977E-01
          1   -1    0    0  501    0  0.00000000000E+00  0.00000000000E+00  0.20098216672E+04  0.20098216672E+04  0.00000000000E+00 0. -1.
         -1   -1    0    0    0  501 -0.00000000000E+00 -0.00000000000E+00 -0.11790936464E+03  0.11790936464E+03  0.00000000000E+00 0.  1.
         23    2    1    2    0    0  0.15442599035E+03 -0.39664806303E+03  0.14507351016E+04  0.15146940060E+04  0.92133188184E+02 0.  0.
         13    1    3    3    0    0 -0.25711353241E+01 -0.89250880305E+02  0.25767794122E+03  0.27270909732E+03  0.00000000000E+00 0. -1.
        -13    1    3    3    0    0  0.15699712568E+03 -0.30739718272E+03  0.11930571604E+04  0.12419849087E+04  0.00000000000E+00 0.  1.
         22    1    1    2    0    0 -0.15442599035E+03  0.39664806303E+03  0.44117720090E+03  0.61303702580E+03  0.00000000000E+00 0. -1.
<mgrwt>
<rscale>  0 0.97360525E+03</rscale>
<asrwt>0</asrwt>
<pdfrwt beam="1">  1        1 0.30920331E+00 0.97360525E+03</pdfrwt>
<pdfrwt beam="2">  1       -1 0.18139904E-01 0.97360525E+03</pdfrwt>
<totfact> 0.71330609E+01</totfact>
</mgrwt>
</event>
<event>
 6    1  0.9364335E-007  0.1387196E+04  0.7818608E-02  0.8963139E-01
          2   -1    0    0  501    0  0.00000000000E+00  0.00000000000E+00  0.94307417038E+03  0.94307417038E+03  0.00000000000E+00 0. -1.
         -2   -1    0    0    0  501 -0.00000000000E+00 -0.00000000000E+00 -0.51011720867E+03  0.51011720867E+03  0.00000000000E+00 0.  1.
         23    2    1    2    0    0  0.39946478605E+03 -0.49957707307E+03  0.48838908327E+03  0.81114614129E+03  0.10141399633E+03 0.  0.
         11    1    3    3    0    0  0.29476158390E+03 -0.30514429458E+03  0.35469293997E+03  0.55299594350E+03  0.00000000000E+00 0.  1.
        -11    1    3    3    0    0  0.10470320215E+03 -0.19443277848E+03  0.13369614330E+03  0.25815019779E+03  0.00000000000E+00 0. -1.
         22    1    1    2    0    0 -0.39946478605E+03  0.49957707307E+03 -0.55432121558E+02  0.64204523776E+03  0.00000000000E+00 0.  1.
<mgrwt>
<rscale>  0 0.13871963E+04</rscale>
<asrwt>0</asrwt>
<pdfrwt beam="1">  1        2 0.14508833E+00 0.13871963E+04</pdfrwt>
<pdfrwt beam="2">  1       -2 0.78479571E-01 0.13871963E+04</pdfrwt>
<totfact> 0.38587384E+01</totfact>
</mgrwt>
</event>
<event>
 6    1  0.9364335E-007  0.2378226E+04  0.7818608E-02  0.8447701E-01
         -2   -1    0    0    0  501 -0.00000000000E+00  0.00000000000E+00  0.11406002904E+04  0.11406002904E+04  0.00000000000E+00 0.  1.
          2   -1    0    0  501    0  0.00000000000E+00 -0.00000000000E+00 -0.12396891922E+04  0.12396891922E+04  0.00000000000E+00 0. -1.
         23    2    1    2    0    0 -0.58808432909E+03  0.52988745011E+03  0.83615826062E+03  0.11550094563E+04  0.90897301648E+02 0.  0.
         13    1    3    3    0    0 -0.17565437316E+03  0.21488826246E+03  0.30626883066E+03  0.41331830444E+03  0.00000000000E+00 0.  1.
        -13    1    3    3    0    0 -0.41242995593E+03  0.31499918765E+03  0.52988942996E+03  0.74169115187E+03  0.00000000000E+00 0. -1.
         22    1    1    2    0    0  0.58808432909E+03 -0.52988745011E+03 -0.93524716247E+03  0.12252800263E+04  0.00000000000E+00 0. -1.
<mgrwt>
<rscale>  0 0.23782261E+04</rscale>
<asrwt>0</asrwt>
<pdfrwt beam="1">  1        2 0.19072142E+00 0.23782261E+04</pdfrwt>
<pdfrwt beam="2">  1       -2 0.17547697E+00 0.23782261E+04</pdfrwt>
<totfact> 0.31506465E+00</totfact>
</mgrwt>
</event>
<event>
 6    1  0.9364335E-007  0.8845471E+03  0.7818608E-02  0.9445107E-01
          2   -1    0    0  501    0  0.00000000000E+00  0.00000000000E+00  0.47978778193E+03  0.47978778193E+03  0.00000000000E+00 0. -1.
         -2   -1    0    0    0  501 -0.00000000000E+00 -0.00000000000E+00 -0.40769256086E+03  0.40769256086E+03  0.00000000000E+00 0.  1.
         23    2    1    2    0    0 -0.16652030512E+03 -0.45241631464E+02  0.43969619895E+03  0.48139378038E+03  0.92905366802E+02 0.  0.
         13    1    3    3    0    0 -0.75193182973E+02  0.24827680944E+02  0.14896531265E+03  0.16870415786E+03  0.00000000000E+00 0. -1.
        -13    1    3    3    0    0 -0.91327122150E+02 -0.70069312408E+02  0.29073088630E+03  0.31268962252E+03  0.00000000000E+00 0.  1.
         22    1    1    2    0    0  0.16652030512E+03  0.45241631464E+02 -0.36760097788E+03  0.40608656241E+03  0.00000000000E+00 0.  1.
<mgrwt>
<rscale>  0 0.88454714E+03</rscale>
<asrwt>0</asrwt>
<pdfrwt beam="1">  1        2 0.73813505E-01 0.88454714E+03</pdfrwt>
<pdfrwt beam="2">  1       -2 0.62721932E-01 0.88454714E+03</pdfrwt>
<totfact> 0.15295259E+02</totfact>
</mgrwt>
</event>
<event>
 6    1  0.9364335E-007  0.6509101E+03  0.7818608E-02  0.9805073E-01
          2   -1    0    0  501    0  0.00000000000E+00  0.00000000000E+00  0.11768916138E+04  0.11768916138E+04  0.00000000000E+00 0. -1.
         -2   -1    0    0    0  501 -0.00000000000E+00 -0.00000000000E+00 -0.90000630004E+02  0.90000630004E+02  0.00000000000E+00 0.  1.
         23    2    1    2    0    0 -0.25861585154E+03  0.16318377805E+02  0.19526161494E+03  0.33837117268E+03  0.96018248824E+02 0.  0.
         13    1    3    3    0    0 -0.13028986244E+03 -0.37878415336E+02  0.11313405800E+03  0.17666221352E+03  0.00000000000E+00 0.  1.
        -13    1    3    3    0    0 -0.12832598910E+03  0.54196793141E+02  0.82127556939E+02  0.16170895916E+03  0.00000000000E+00 0. -1.
         22    1    1    2    0    0  0.25861585154E+03 -0.16318377805E+02  0.89162936885E+03  0.92852107113E+03  0.00000000000E+00 0. -1.
<mgrwt>
<rscale>  0 0.65091009E+03</rscale>
<asrwt>0</asrwt>
<pdfrwt beam="1">  1        2 0.18106024E+00 0.65091009E+03</pdfrwt>
<pdfrwt beam="2">  1       -2 0.13846252E-01 0.65091009E+03</pdfrwt>
<totfact> 0.79227994E+02</totfact>
</mgrwt>
</event>
<event>
 6    1  0.9364335E-007  0.3987645E+04  0.7818608E-02  0.8007044E-01
         -3   -1    0    0    0  501 -0.00000000000E+00  0.00000000000E+00  0.20986319561E+04  0.20986319561E+04  0.00000000000E+00 0.  1.
          3   -1    0    0  501    0  0.00000000000E+00 -0.00000000000E+00 -0.18942474379E+04  0.18942474379E+04  0.00000000000E+00 0. -1.
         23    2    1    2    0    0  0.13529095133E+04  0.10775019285E+04 -0.88890184755E+03  0.19467489888E+04  0.91162347661E+02 0.  0.
         11    1    3    3    0    0  0.50980120184E+02  0.61213706449E+02 -0.29820571939E+02  0.85060901841E+02  0.00000000000E+00 0. -1.
        -11    1    3    3    0    0  0.13019293931E+04  0.10162882221E+04 -0.85908127561E+03  0.18616880870E+04  0.00000000000E+00 0.  1.
         22    1    1    2    0    0 -0.13529095133E+04 -0.10775019285E+04  0.10932863658E+04  0.20461304051E+04  0.00000000000E+00 0.  1.
<mgrwt>
<rscale>  0 0.39876450E+04</rscale>
<asrwt>0</asrwt>
<pdfrwt beam="1">  1        3 0.29142268E+00 0.39876450E+04</pdfrwt>
<pdfrwt beam="2">  1       -3 0.32286646E+00 0.39876450E+04</pdfrwt>
<totfact> 0.24825968E-03</totfact>
</mgrwt>
</event>
<event>
 6    1  0.9364335E-007  0.2070040E+04  0.7818608E-02  0.8574557E-01
          1   -1    0    0  501    0  0.00000000000E+00  0.00000000000E+00  0.76843979150E+03  0.76843979150E+03  0.00000000000E+00 0. -1.
         -1   -1    0    0    0  501 -0.00000000000E+00 -0.00000000000E+00 -0.13940798903E+04  0.13940798903E+04  0.00000000000E+00 0.  1.
         23    2    1    2    0    0 -0.36365533744E+03  0.77370093104E+03 -0.91919291966E+03  0.12586216821E+04  0.91403391658E+02 0.  0.
         13    1    3    3    0    0 -0.28386082386E+03  0.50714084460E+03 -0.60468434139E+03  0.83869658179E+03  0.00000000000E+00 0. -1.
        -13    1    3    3    0    0 -0.79794513576E+02  0.26656008644E+03 -0.31450857828E+03  0.41992510033E+03  0.00000000000E+00 0.  1.
         22    1    1    2    0    0  0.36365533744E+03 -0.77370093104E+03  0.29355282088E+03  0.90389799966E+03  0.00000000000E+00 0. -1.
<mgrwt>
<rscale>  0 0.20700401E+04</rscale>
<asrwt>0</asrwt>
<pdfrwt beam="1">  1        1 0.11822151E+00 0.20700401E+04</pdfrwt>
<pdfrwt beam="2">  1       -1 0.21447383E+00 0.20700401E+04</pdfrwt>
<totfact> 0.26058564E+00</totfact>
</mgrwt>
</event>
<event>
 6    1  0.9364335E-007  0.2462330E+04  0.7818608E-02  0.8416530E-01
         -2   -1    0    0    0  501 -0.00000000000E+00  0.00000000000E+00  0.36176641133E+03  0.36176641133E+03  0.00000000000E+00 0.  1.
          2   -1    0    0  501    0  0.00000000000E+00 -0.00000000000E+00 -0.41899072350E+04  0.41899072350E+04  0.00000000000E+00 0. -1.
         23    2    1    2    0    0  0.70874800997E+03  0.88331781625E+03 -0.28013180164E+04  0.30229685788E+04  0.91554862636E+02 0.  0.
         13    1    3    3    0    0  0.46755190216E+03  0.52898537162E+03 -0.16650101604E+04  0.18085046692E+04  0.00000000000E+00 0. -1.
        -13    1    3    3    0    0  0.24119610781E+03  0.35433244463E+03 -0.11363078561E+04  0.12144639095E+04  0.00000000000E+00 0.  1.
         22    1    1    2    0    0 -0.70874800997E+03 -0.88331781625E+03 -0.10268228072E+04  0.15287050676E+04  0.00000000000E+00 0.  1.
<mgrwt>
<rscale>  0 0.24623304E+04</rscale>
<asrwt>0</asrwt>
<pdfrwt beam="1">  1        2 0.64460110E+00 0.24623304E+04</pdfrwt>
<pdfrwt beam="2">  1       -2 0.55656372E-01 0.24623304E+04</pdfrwt>
<totfact> 0.64695691E-01</totfact>
</mgrwt>
</event>
<event>
 6    1  0.9364335E-007  0.1506479E+04  0.7818608E-02  0.8880156E-01
          1   -1    0    0  501    0  0.00000000000E+00  0.00000000000E+00  0.23425199174E+04  0.23425199174E+04  0.00000000000E+00 0. -1.
         -1   -1    0    0    0  501 -0.00000000000E+00 -0.00000000000E+00 -0.24220496779E+03  0.24220496779E+03  0.00000000000E+00 0.  1.
         23    2    1    2    0    0  0.48433169664E+03  0.43676937102E+03  0.16910668878E+04  0.18147712165E+04  0.91338236405E+02 0.  0.
         13    1    3    3    0    0  0.30844322144E+02  0.22018753036E+02  0.17154768208E+03  0.17568382088E+03  0.00000000000E+00 0.  1.
        -13    1    3    3    0    0  0.45348737449E+03  0.41475061798E+03  0.15195192057E+04  0.16390873956E+04  0.00000000000E+00 0. -1.
         22    1    1    2    0    0 -0.48433169664E+03 -0.43676937102E+03  0.40924806182E+03  0.76995366869E+03  0.00000000000E+00 0.  1.
<mgrwt>
<rscale>  0 0.15064793E+04</rscale>
<asrwt>0</asrwt>
<pdfrwt beam="1">  1        1 0.36038767E+00 0.15064793E+04</pdfrwt>
<pdfrwt beam="2">  1       -1 0.37262304E-01 0.15064793E+04</pdfrwt>
<totfact> 0.11682565E+01</totfact>
</mgrwt>
</event>
<event>
 6    1  0.9364335E-007  0.2477449E+04  0.7818608E-02  0.8411064E-01
         -2   -1    0    0    0  501 -0.00000000000E+00  0.00000000000E+00  0.98312438794E+03  0.98312438794E+03  0.00000000000E+00 0.  1.
          2   -1    0    0  501    0  0.00000000000E+00 -0.00000000000E+00 -0.15607779902E+04  0.15607779902E+04  0.00000000000E+00 0. -1.
         23    2    1    2    0    0  0.24574731001E+03  0.11174965976E+03  0.95039055233E+03  0.99219407270E+03  0.91253214253E+02 0.  0.
         11    1    3    3    0    0  0.11837234518E+03  0.55823908028E+01  0.42938390605E+03  0.44543654314E+03  0.00000000000E+00 0.  1.
        -11    1    3    3    0    0  0.12737496483E+03  0.10616726895E+03  0.52100664628E+03  0.54675752956E+03  0.00000000000E+00 0. -1.
         22    1    1    2    0    0 -0.24574731001E+03 -0.11174965976E+03 -0.15280441546E+04  0.15517083054E+04  0.00000000000E+00 0. -1.
<mgrwt>
<rscale>  0 0.24774494E+04</rscale>
<asrwt>0</asrwt>
<pdfrwt beam="1">  1        2 0.24011969E+00 0.24774494E+04</pdfrwt>
<pdfrwt beam="2">  1       -2 0.15124991E+00 0.24774494E+04</pdfrwt>
<totfact> 0.30727236E+00</totfact>
</mgrwt>
</event>
<event>
 6    1  0.9364335E-007  0.2842001E+04  0.7818608E-02  0.8290346E-01
          1   -1    0    0  501    0  0.00000000000E+00  0.00000000000E+00  0.14027920792E+04  0.14027920792E+04  0.00000000000E+00 0. -1.
         -1   -1    0    0    0  501 -0.00000000000E+00 -0.00000000000E+00 -0.14394452385E+04  0.14394452385E+04  0.00000000000E+00 0.  1.
         23    2    1    2    0    0  0.88428280845E+02  0.39231176375E+03  0.13430692883E+04  0.14051005416E+04  0.93511164031E+02 0.  0.
         13    1    3    3    0    0  0.10254991129E+03  0.26510825580E+03  0.96167764102E+03  0.10028074376E+04  0.00000000000E+00 0.  1.
        -13    1    3    3    0    0 -0.14121630446E+02  0.12720350795E+03  0.38139164732E+03  0.40229310400E+03  0.00000000000E+00 0. -1.
         22    1    1    2    0    0 -0.88428280845E+02 -0.39231176375E+03 -0.13797224477E+04  0.14371367762E+04  0.00000000000E+00 0.  1.
<mgrwt>
<rscale>  0 0.28420010E+04</rscale>
<asrwt>0</asrwt>
<pdfrwt beam="1">  1        1 0.21581416E+00 0.28420010E+04</pdfrwt>
<pdfrwt beam="2">  1       -1 0.22145312E+00 0.28420010E+04</pdfrwt>
<totfact> 0.70998644E-01</totfact>
</mgrwt>
</event>
<event>
 6    1  0.9364335E-007  0.1686442E+04  0.7818608E-02  0.8769135E-01
          2   -1    0    0  501    0  0.00000000000E+00  0.00000000000E+00  0.92457311503E+03  0.92457311503E+03  0.00000000000E+00 0. -1.
         -2   -1    0    0    0  501 -0.00000000000E+00 -0.00000000000E+00 -0.76902673547E+03  0.76902673547E+03  0.00000000000E+00 0.  1.
         23    2    1    2    0    0  0.11491704758E+03 -0.83217189922E+03  0.11695129391E+03  0.85264469217E+03  0.87231692910E+02 0.  0.
         13    1    3    3    0    0  0.33173090186E+02 -0.17923270919E+03  0.61090621109E+02  0.19224172789E+03  0.00000000000E+00 0. -1.
        -13    1    3    3    0    0  0.81743957399E+02 -0.65293919004E+03  0.55860672801E+02  0.66040296428E+03  0.00000000000E+00 0.  1.
         22    1    1    2    0    0 -0.11491704758E+03  0.83217189922E+03  0.38595085651E+02  0.84095515833E+03  0.00000000000E+00 0.  1.
<mgrwt>
<rscale>  0 0.16864418E+04</rscale>
<asrwt>0</asrwt>
<pdfrwt beam="1">  1        2 0.14224202E+00 0.16864418E+04</pdfrwt>
<pdfrwt beam="2">  1       -2 0.11831181E+00 0.16864418E+04</pdfrwt>
<totfact> 0.14788618E+01</totfact>
</mgrwt>
</event>
<event>
 6    1  0.9364335E-007  0.1531796E+04  0.7818608E-02  0.8863580E-01
         -1   -1    0    0    0  501 -0.00000000000E+00  0.00000000000E+00  0.13187053518E+04  0.13187053518E+04  0.00000000000E+00 0.  1.
          1   -1    0    0  501    0  0.00000000000E+00 -0.00000000000E+00 -0.44482976494E+03  0.44482976494E+03  0.00000000000E+00 0. -1.
         23    2    1    2    0    0  0.70325790312E+03 -0.65428428613E+02  0.77121033099E+03  0.10498175870E+04  0.92190204118E+02 0.  0.
         11    1    3    3    0    0  0.10256919134E+03  0.19411771815E+02  0.92172105193E+02  0.13925858276E+03  0.00000000000E+00 0.  1.
        -11    1    3    3    0    0  0.60068871177E+03 -0.84840200428E+02  0.67903822580E+03  0.91055900421E+03  0.00000000000E+00 0. -1.
         22    1    1    2    0    0 -0.70325790312E+03  0.65428428613E+02  0.10266525590E+03  0.71371752979E+03  0.00000000000E+00 0. -1.
<mgrwt>
<rscale>  0 0.15317955E+04</rscale>
<asrwt>0</asrwt>
<pdfrwt beam="1">  1        1 0.68435349E-01 0.15317955E+04</pdfrwt>
<pdfrwt beam="2">  1       -1 0.20287774E+00 0.15317955E+04</pdfrwt>
<totfact> 0.72149684E+00</totfact>
</mgrwt>
</event>
<event>
 6    1  0.9364335E-007  0.2162677E+04  0.7818608E-02  0.8534125E-01
         -2   -1    0    0    0  501 -0.00000000000E+00  0.00000000000E+00  0.97685880062E+03  0.97685880062E+03  0.00000000000E+00 0.  1.
          2   -1    0    0  501    0  0.00000000000E+00 -0.00000000000E+00 -0.11969927913E+04  0.11969927913E+04  0.00000000000E+00 0. -1.
         23    2    1    2    0    0 -0.53912795051E+03 -0.81299225012E+03 -0.57483041517E+03  0.11358607926E+04  0.90190843486E+02 0.  0.
         11    1    3    3    0    0 -0.42029813541E+03 -0.56898009544E+03 -0.39367656628E+03  0.80954932554E+03  0.00000000000E+00 0. -1.
        -11    1    3    3    0    0 -0.11882981509E+03 -0.24401215468E+03 -0.18115384889E+03  0.32631146709E+03  0.00000000000E+00 0.  1.
         22    1    1    2    0    0  0.53912795051E+03  0.81299225012E+03  0.35469642453E+03  0.10379907993E+04  0.00000000000E+00 0. -1.
<mgrwt>
<rscale>  0 0.21626770E+04</rscale>
<asrwt>0</asrwt>
<pdfrwt beam="1">  1        2 0.18415274E+00 0.21626770E+04</pdfrwt>
<pdfrwt beam="2">  1       -2 0.15028597E+00 0.21626770E+04</pdfrwt>
<totfact> 0.51987781E+00</totfact>
</mgrwt>
</event>
<event>
 6    1  0.9364335E-007  0.4207701E+04  0.7818608E-02  0.7963909E-01
         -2   -1    0    0    0  501 -0.00000000000E+00  0.00000000000E+00  0.15242573593E+04  0.15242573593E+04  0.00000000000E+00 0.  1.
          2   -1    0    0  501    0  0.00000000000E+00 -0.00000000000E+00 -0.29038319680E+04  0.29038319680E+04  0.00000000000E+00 0. -1.
         23    2    1    2    0    0 -0.14490007949E+04  0.11335643468E+03  0.90913631167E+03  0.17168809874E+04  0.93265786312E+02 0.  0.
         13    1    3    3    0    0 -0.10254077851E+04  0.43924317461E+02  0.66715387840E+03  0.12241261246E+04  0.00000000000E+00 0.  1.
        -13    1    3    3    0    0 -0.42359300980E+03  0.69432117224E+02  0.24198243326E+03  0.49275486285E+03  0.00000000000E+00 0. -1.
         22    1    1    2    0    0  0.14490007949E+04 -0.11335643468E+03 -0.22887109204E+04  0.27112083399E+04  0.00000000000E+00 0. -1.
<mgrwt>
<rscale>  0 0.42077012E+04</rscale>
<asrwt>0</asrwt>
<pdfrwt beam="1">  1        2 0.44674338E+00 0.42077012E+04</pdfrwt>
<pdfrwt beam="2">  1       -2 0.23450113E+00 0.42077012E+04</pdfrwt>
<totfact> 0.12417651E-01</totfact>
</mgrwt>
</event>
<event>
 6    1  0.9364335E-007  0.2118589E+04  0.7818608E-02  0.8553099E-01
         -2   -1    0    0    0  501 -0.00000000000E+00  0.00000000000E+00  0.55756906276E+03  0.55756906276E+03  0.00000000000E+00 0.  1.
          2   -1    0    0  501    0  0.00000000000E+00 -0.00000000000E+00 -0.20124948465E+04  0.20124948465E+04  0.00000000000E+00 0. -1.
         23    2    1    2    0    0 -0.74417967125E+03  0.74941785383E+03 -0.78979396022E+03  0.13219329685E+04  0.91114053602E+02 0.  0.
         11    1    3    3    0    0 -0.68742698424E+03  0.65367886940E+03 -0.69970049753E+03  0.11787420028E+04  0.00000000000E+00 0. -1.
        -11    1    3    3    0    0 -0.56752687006E+02  0.95738984429E+02 -0.90093462685E+02  0.14319096564E+03  0.00000000000E+00 0.  1.
         22    1    1    2    0    0  0.74417967125E+03 -0.74941785383E+03 -0.66513182354E+03  0.12481309408E+04  0.00000000000E+00 0. -1.
<mgrwt>
<rscale>  0 0.21185890E+04</rscale>
<asrwt>0</asrwt>
<pdfrwt beam="1">  1        2 0.30961459E+00 0.21185890E+04</pdfrwt>
<pdfrwt beam="2">  1       -2 0.85779857E-01 0.21185890E+04</pdfrwt>
<totfact> 0.71387490E+00</totfact>
</mgrwt>
</event>
<event>
 6    1  0.9364335E-007  0.2692511E+04  0.7818608E-02  0.8337439E-01
          2   -1    0    0  501    0  0.00000000000E+00  0.00000000000E+00  0.22166684680E+04  0.22166684680E+04  0.00000000000E+00 0. -1.
         -2   -1    0    0    0  501 -0.00000000000E+00 -0.00000000000E+00 -0.81762515833E+03  0.81762515833E+03  0.00000000000E+00 0.  1.
         23    2    1    2    0    0  0.73067786788E+03  0.97085612278E+03  0.13493686817E+04  0.18181853555E+04  0.92468318280E+02 0.  0.
         11    1    3    3    0    0  0.42670408248E+03  0.60848980638E+03  0.76798922421E+03  0.10687112178E+04  0.00000000000E+00 0. -1.
        -11    1    3    3    0    0  0.30397378540E+03  0.36236631640E+03  0.58137945753E+03  0.74947413772E+03  0.00000000000E+00 0.  1.
         22    1    1    2    0    0 -0.73067786788E+03 -0.97085612278E+03  0.49674627920E+02  0.12161082708E+04  0.00000000000E+00 0.  1.
<mgrwt>
<rscale>  0 0.26925110E+04</rscale>
<asrwt>0</asrwt>
<pdfrwt beam="1">  1        2 0.34102592E+00 0.26925110E+04</pdfrwt>
<pdfrwt beam="2">  1       -2 0.12578849E+00 0.26925110E+04</pdfrwt>
<totfact> 0.20934450E+00</totfact>
</mgrwt>
</event>
<event>
 6    1  0.9364335E-007  0.7199017E+03  0.7818608E-02  0.9683790E-01
          1   -1    0    0  501    0  0.00000000000E+00  0.00000000000E+00  0.70772970622E+03  0.70772970622E+03  0.00000000000E+00 0. -1.
         -1   -1    0    0    0  501 -0.00000000000E+00 -0.00000000000E+00 -0.18307075032E+03  0.18307075032E+03  0.00000000000E+00 0.  1.
         23    2    1    2    0    0  0.20776561065E+03  0.13891920533E+03 -0.42655871177E+02  0.27087206744E+03  0.95326066709E+02 0.  0.
         11    1    3    3    0    0  0.14658382040E+03  0.13979824291E+03 -0.13270923964E+02  0.20299379928E+03  0.00000000000E+00 0. -1.
        -11    1    3    3    0    0  0.61181790250E+02 -0.87903757993E+00 -0.29384947213E+02  0.67878268157E+02  0.00000000000E+00 0.  1.
         22    1    1    2    0    0 -0.20776561065E+03 -0.13891920533E+03  0.56731482708E+03  0.61992838909E+03  0.00000000000E+00 0. -1.
<mgrwt>
<rscale>  0 0.71990168E+03</rscale>
<asrwt>0</asrwt>
<pdfrwt beam="1">  1        1 0.10888149E+00 0.71990168E+03</pdfrwt>
<pdfrwt beam="2">  1       -1 0.28164731E-01 0.71990168E+03</pdfrwt>
<totfact> 0.30870049E+02</totfact>
</mgrwt>
</event>
<event>
 6    1  0.9364335E-007  0.2985945E+04  0.7818608E-02  0.8247756E-01
          1   -1    0    0  501    0  0.00000000000E+00  0.00000000000E+00  0.15186965182E+04  0.15186965182E+04  0.00000000000E+00 0. -1.
         -1   -1    0    0    0  501 -0.00000000000E+00 -0.00000000000E+00 -0.14676838782E+04  0.14676838782E+04  0.00000000000E+00 0.  1.
         23    2    1    2    0    0  0.12133418467E+04 -0.26229353324E+03  0.85246730457E+03  0.15087722231E+04  0.93256535472E+02 0.  0.
         13    1    3    3    0    0  0.24671321151E+03 -0.29858818402E+02  0.20703396686E+03  0.32345327515E+03  0.00000000000E+00 0. -1.
        -13    1    3    3    0    0  0.96662863514E+03 -0.23243471484E+03  0.64543333772E+03  0.11853189479E+04  0.00000000000E+00 0.  1.
         22    1    1    2    0    0 -0.12133418467E+04  0.26229353324E+03 -0.80145466464E+03  0.14776081733E+04  0.00000000000E+00 0.  1.
<mgrwt>
<rscale>  0 0.29859447E+04</rscale>
<asrwt>0</asrwt>
<pdfrwt beam="1">  1        1 0.23364562E+00 0.29859447E+04</pdfrwt>
<pdfrwt beam="2">  1       -1 0.22579752E+00 0.29859447E+04</pdfrwt>
<totfact> 0.54460952E-01</totfact>
</mgrwt>
</event>
<event>
 6    1  0.9364335E-007  0.1403895E+04  0.7818608E-02  0.8951004E-01
         -2   -1    0    0    0  501 -0.00000000000E+00  0.00000000000E+00  0.19044063532E+03  0.19044063532E+03  0.00000000000E+00 0.  1.
          2   -1    0    0  501    0  0.00000000000E+00 -0.00000000000E+00 -0.25873158372E+04  0.25873158372E+04  0.00000000000E+00 0. -1.
         23    2    1    2    0    0 -0.68013195062E+03 -0.69511331972E+02 -0.14877630648E+04  0.16402609018E+04  0.98008130142E+02 0.  0.
         13    1    3    3    0    0 -0.11057480120E+03 -0.37154260854E+02 -0.19509108746E+03  0.22730542925E+03  0.00000000000E+00 0.  1.
        -13    1    3    3    0    0 -0.56955714943E+03 -0.32357071117E+02 -0.12926719773E+04  0.14129554725E+04  0.00000000000E+00 0. -1.
         22    1    1    2    0    0  0.68013195062E+03  0.69511331972E+02 -0.90911213712E+03  0.11374955707E+04  0.00000000000E+00 0.  1.
<mgrwt>
<rscale>  0 0.14038947E+04</rscale>
<asrwt>0</asrwt>
<pdfrwt beam="1">  1        2 0.39804854E+00 0.14038947E+04</pdfrwt>
<pdfrwt beam="2">  1       -2 0.29298563E-01 0.14038947E+04</pdfrwt>
<totfact> 0.32426612E+01</totfact>
</mgrwt>
</event>
<event>
 6    1  0.9364335E-007  0.2737581E+04  0.7818608E-02  0.8322913E-01
         -2   -1    0    0    0  501 -0.00000000000E+00  0.00000000000E+00  0.53393968678E+03  0.53393968678E+03  0.00000000000E+00 0.  1.
          2   -1    0    0  501    0  0.00000000000E+00 -0.00000000000E+00 -0.35089863875E+04  0.35089863875E+04  0.00000000000E+00 0. -1.
         23    2    1    2    0    0  0.89396877137E+03 -0.11915728367E+03  0.28375240790E+02  0.90701759648E+03  0.92179952266E+02 0.  0.
         11    1    3    3    0    0  0.29163385376E+03 -0.71299061513E+02  0.38625051835E+02  0.30269746523E+03  0.00000000000E+00 0. -1.
        -11    1    3    3    0    0  0.60233491761E+03 -0.47858222158E+02 -0.10249811046E+02  0.60432013125E+03  0.00000000000E+00 0.  1.
         22    1    1    2    0    0 -0.89396877137E+03  0.11915728367E+03 -0.30034219415E+04  0.31359084778E+04  0.00000000000E+00 0. -1.
<mgrwt>
<rscale>  0 0.27375808E+04</rscale>
<asrwt>0</asrwt>
<pdfrwt beam="1">  1        2 0.53984404E+00 0.27375808E+04</pdfrwt>
<pdfrwt beam="2">  1       -2 0.82144570E-01 0.27375808E+04</pdfrwt>
<totfact> 0.91261020E-01</totfact>
</mgrwt>
</event>
<event>
 6    1  0.9364335E-007  0.2207963E+04  0.7818608E-02  0.8515121E-01
          2   -1    0    0  501    0  0.00000000000E+00  0.00000000000E+00  0.16659696732E+04  0.16659696732E+04  0.00000000000E+00 0. -1.
         -2   -1    0    0    0  501 -0.00000000000E+00 -0.00000000000E+00 -0.73157076202E+03  0.73157076202E+03  0.00000000000E+00 0.  1.
         23    2    1    2    0    0  0.88435732684E+03  0.29978837843E+01  0.11819586463E+04  0.14791817410E+04  0.94103732383E+02 0.  0.
         13    1    3    3    0    0  0.22565018533E+03  0.41363959922E+02  0.29431131428E+03  0.37315966158E+03  0.00000000000E+00 0.  1.
        -13    1    3    3    0    0  0.65870714152E+03 -0.38366076138E+02  0.88764733205E+03  0.11060220794E+04  0.00000000000E+00 0. -1.
         22    1    1    2    0    0 -0.88435732684E+03 -0.29978837843E+01 -0.24755973512E+03  0.91835869425E+03  0.00000000000E+00 0.  1.
<mgrwt>
<rscale>  0 0.22079626E+04</rscale>
<asrwt>0</asrwt>
<pdfrwt beam="1">  1        2 0.25630303E+00 0.22079626E+04</pdfrwt>
<pdfrwt beam="2">  1       -2 0.11254935E+00 0.22079626E+04</pdfrwt>
<totfact> 0.58160297E+00</totfact>
</mgrwt>
</event>
<event>
 6    1  0.9364335E-007  0.3200747E+04  0.7818608E-02  0.8188620E-01
         -2   -1    0    0    0  501 -0.00000000000E+00  0.00000000000E+00  0.11503076181E+04  0.11503076181E+04  0.00000000000E+00 0.  1.
          2   -1    0    0  501    0  0.00000000000E+00 -0.00000000000E+00 -0.22265313071E+04  0.22265313071E+04  0.00000000000E+00 0. -1.
         23    2    1    2    0    0  0.61598222800E+03  0.10902103352E+04  0.51090052510E+03  0.13552168163E+04  0.87181376624E+02 0.  0.
         11    1    3    3    0    0  0.51595583133E+03  0.96201071355E+03  0.46239521464E+03  0.11855312596E+04  0.00000000000E+00 0. -1.
        -11    1    3    3    0    0  0.10002639667E+03  0.12819962166E+03  0.48505310461E+02  0.16968555675E+03  0.00000000000E+00 0.  1.
         22    1    1    2    0    0 -0.61598222800E+03 -0.10902103352E+04 -0.15871242141E+04  0.20216221089E+04  0.00000000000E+00 0. -1.
<mgrwt>
<rscale>  0 0.32007474E+04</rscale>
<asrwt>0</asrwt>
<pdfrwt beam="1">  1        2 0.34254328E+00 0.32007474E+04</pdfrwt>
<pdfrwt beam="2">  1       -2 0.17697040E+00 0.32007474E+04</pdfrwt>
<totfact> 0.79955246E-01</totfact>
</mgrwt>
</event>
<event>
 6    1  0.9364335E-007  0.9324418E+03  0.7818608E-02  0.9385912E-01
          1   -1    0    0  501    0  0.00000000000E+00  0.00000000000E+00  0.11682258250E+03  0.11682258250E+03  0.00000000000E+00 0. -1.
         -1   -1    0    0    0  501 -0.00000000000E+00 -0.00000000000E+00 -0.18606155610E+04  0.18606155610E+04  0.00000000000E+00 0.  1.
         23    2    1    2    0    0  0.14236264919E+03  0.31576481414E+03 -0.23276405009E+03  0.42721784812E+03  0.91440937275E+02 0.  0.
         11    1    3    3    0    0  0.19501952441E+02  0.85922237164E+02 -0.18969296888E+02  0.90126528906E+02  0.00000000000E+00 0. -1.
        -11    1    3    3    0    0  0.12286069675E+03  0.22984257697E+03 -0.21379475320E+03  0.33709131922E+03  0.00000000000E+00 0.  1.
         22    1    1    2    0    0 -0.14236264919E+03 -0.31576481414E+03 -0.15110289284E+04  0.15502202954E+04  0.00000000000E+00 0.  1.
<mgrwt>
<rscale>  0 0.93244177E+03</rscale>
<asrwt>0</asrwt>
<pdfrwt beam="1">  1        1 0.17972707E-01 0.93244177E+03</pdfrwt>
<pdfrwt beam="2">  1       -1 0.28624852E+00 0.93244177E+03</pdfrwt>
<totfact> 0.12514560E+01</totfact>
</mgrwt>
</event>
<event>
 6    1  0.9364335E-007  0.3030775E+04  0.7818608E-02  0.8234997E-01
         -1   -1    0    0    0  501 -0.00000000000E+00  0.00000000000E+00  0.89907865624E+03  0.89907865624E+03  0.00000000000E+00 0.  1.
          1   -1    0    0  501    0  0.00000000000E+00 -0.00000000000E+00 -0.25541693101E+04  0.25541693101E+04  0.00000000000E+00 0. -1.
         23    2    1    2    0    0  0.13142284320E+04  0.50341353209E+03 -0.14643407560E+04  0.20330342222E+04  0.91174245469E+02 0.  0.
         13    1    3    3    0    0  0.50967564733E+03  0.21767527344E+03 -0.63355991806E+03  0.84175409706E+03  0.00000000000E+00 0. -1.
        -13    1    3    3    0    0  0.80455278465E+03  0.28573825865E+03 -0.83078083796E+03  0.11912801251E+04  0.00000000000E+00 0.  1.
         22    1    1    2    0    0 -0.13142284320E+04 -0.50341353209E+03 -0.19074989788E+03  0.14202137442E+04  0.00000000000E+00 0.  1.
<mgrwt>
<rscale>  0 0.30307749E+04</rscale>
<asrwt>0</asrwt>
<pdfrwt beam="1">  1        1 0.39294912E+00 0.30307749E+04</pdfrwt>
<pdfrwt beam="2">  1       -1 0.13831979E+00 0.30307749E+04</pdfrwt>
<totfact> 0.45590703E-01</totfact>
</mgrwt>
</event>
<event>
 6    1  0.9364335E-007  0.1508381E+04  0.7818608E-02  0.8878899E-01
         -1   -1    0    0    0  501 -0.00000000000E+00  0.00000000000E+00  0.17757007484E+03  0.17757007484E+03  0.00000000000E+00 0.  1.
          1   -1    0    0  501    0  0.00000000000E+00 -0.00000000000E+00 -0.32032608395E+04  0.32032608395E+04  0.00000000000E+00 0. -1.
         23    2    1    2    0    0  0.60266442993E+03  0.64044350576E+02 -0.52298018429E+03  0.80578405205E+03  0.92052003978E+02 0.  0.
         11    1    3    3    0    0  0.21841558000E+03  0.67625448780E+02 -0.20208919291E+03  0.30515341847E+03  0.00000000000E+00 0.  1.
        -11    1    3    3    0    0  0.38424884992E+03 -0.35810982045E+01 -0.32089099138E+03  0.50063063358E+03  0.00000000000E+00 0. -1.
         22    1    1    2    0    0 -0.60266442993E+03 -0.64044350576E+02 -0.25027105804E+04  0.25750468623E+04  0.00000000000E+00 0. -1.
<mgrwt>
<rscale>  0 0.15083809E+04</rscale>
<asrwt>0</asrwt>
<pdfrwt beam="1">  1        1 0.49280933E+00 0.15083809E+04</pdfrwt>
<pdfrwt beam="2">  1       -1 0.27318474E-01 0.15083809E+04</pdfrwt>
<totfact> 0.49503760E+00</totfact>
</mgrwt>
</event>
<event>
 6    1  0.9364335E-007  0.4890492E+04  0.7818608E-02  0.7845625E-01
         -1   -1    0    0    0  501 -0.00000000000E+00  0.00000000000E+00  0.22219114074E+04  0.22219114074E+04  0.00000000000E+00 0.  1.
          1   -1    0    0  501    0  0.00000000000E+00 -0.00000000000E+00 -0.26910286830E+04  0.26910286830E+04  0.00000000000E+00 0. -1.
         23    2    1    2    0    0 -0.10447706988E+04  0.22037798587E+04 -0.39853195248E+03  0.24730274348E+04  0.94050505498E+02 0.  0.
         11    1    3    3    0    0 -0.28383055600E+03  0.50569080201E+03 -0.90889630978E+02  0.58697861696E+03  0.00000000000E+00 0. -1.
        -11    1    3    3    0    0 -0.76094014276E+03  0.16980890567E+04 -0.30764232150E+03  0.18860488179E+04  0.00000000000E+00 0.  1.
         22    1    1    2    0    0  0.10447706988E+04 -0.22037798587E+04 -0.70585323129E+02  0.24399126555E+04  0.00000000000E+00 0. -1.
<mgrwt>
<rscale>  0 0.48904917E+04</rscale>
<asrwt>0</asrwt>
<pdfrwt beam="1">  1        1 0.41400441E+00 0.48904917E+04</pdfrwt>
<pdfrwt beam="2">  1       -1 0.34183253E+00 0.48904917E+04</pdfrwt>
<totfact> 0.12762142E-02</totfact>
</mgrwt>
</event>
<event>
 6    1  0.9364335E-007  0.1637919E+04  0.7818608E-02  0.8797586E-01
          2   -1    0    0  501    0  0.00000000000E+00  0.00000000000E+00  0.16179298656E+04  0.16179298656E+04  0.00000000000E+00 0. -1.
         -2   -1    0    0    0  501 -0.00000000000E+00 -0.00000000000E+00 -0.41453889896E+03  0.41453889896E+03  0.00000000000E+00 0.  1.
         23    2    1    2    0    0  0.50640362917E+03 -0.23109920270E+03  0.13446185781E+04  0.14581894637E+04  0.92010402843E+02 0.  0.
         13    1    3    3    0    0  0.31265170197E+03 -0.13247412867E+03  0.92957307766E+03  0.98964973007E+03  0.00000000000E+00 0.  1.
        -13    1    3    3    0    0  0.19375192720E+03 -0.98625074025E+02  0.41504550048E+03  0.46853973363E+03  0.00000000000E+00 0. -1.
         22    1    1    2    0    0 -0.50640362917E+03  0.23109920270E+03 -0.14122761152E+03  0.57427930085E+03  0.00000000000E+00 0.  1.
<mgrwt>
<rscale>  0 0.16379192E+04</rscale>
<asrwt>0</asrwt>
<pdfrwt beam="1">  1        2 0.24891228E+00 0.16379192E+04</pdfrwt>
<pdfrwt beam="2">  1       -2 0.63775216E-01 0.16379192E+04</pdfrwt>
<totfact> 0.23693042E+01</totfact>
</mgrwt>
</event>
<event>
 6    1  0.9364335E-007  0.3368031E+04  0.7818608E-02  0.8145797E-01
         -1   -1    0    0    0  501 -0.00000000000E+00  0.00000000000E+00  0.13532338472E+04  0.13532338472E+04  0.00000000000E+00 0.  1.
          1   -1    0    0  501    0  0.00000000000E+00 -0.00000000000E+00 -0.20956530952E+04  0.20956530952E+04  0.00000000000E+00 0. -1.
         23    2    1    2    0    0 -0.14663992917E+04 -0.13986486549E+03  0.46119770667E+03  0.15466296420E+04  0.97318351199E+02 0.  0.
         11    1    3    3    0    0 -0.10252269766E+04 -0.68767984095E+02  0.28540779911E+03  0.10664319017E+04  0.00000000000E+00 0.  1.
        -11    1    3    3    0    0 -0.44117231518E+03 -0.71096881400E+02  0.17578990756E+03  0.48019774034E+03  0.00000000000E+00 0. -1.
         22    1    1    2    0    0  0.14663992917E+04  0.13986486549E+03 -0.12036169546E+04  0.19022573004E+04  0.00000000000E+00 0. -1.
<mgrwt>
<rscale>  0 0.33680313E+04</rscale>
<asrwt>0</asrwt>
<pdfrwt beam="1">  1        1 0.32240817E+00 0.33680313E+04</pdfrwt>
<pdfrwt beam="2">  1       -1 0.20818982E+00 0.33680313E+04</pdfrwt>
<totfact> 0.27994043E-01</totfact>
</mgrwt>
</event>
<event>
 6    1  0.9364335E-007  0.2158689E+04  0.7818608E-02  0.8535822E-01
          1   -1    0    0  501    0  0.00000000000E+00  0.00000000000E+00  0.67094814839E+03  0.67094814839E+03  0.00000000000E+00 0. -1.
         -1   -1    0    0    0  501 -0.00000000000E+00 -0.00000000000E+00 -0.17363251637E+04  0.17363251637E+04  0.00000000000E+00 0.  1.
         23    2    1    2    0    0  0.10697663193E+04  0.10775030958E+03 -0.61665574139E+03  0.12422149921E+04  0.82605544986E+02 0.  0.
         13    1    3    3    0    0  0.57418478127E+03  0.16942135542E+02 -0.33608786145E+03  0.66553005163E+03  0.00000000000E+00 0.  1.
        -13    1    3    3    0    0  0.49558153808E+03  0.90808174043E+02 -0.28056787994E+03  0.57668494051E+03  0.00000000000E+00 0. -1.
         22    1    1    2    0    0 -0.10697663193E+04 -0.10775030958E+03 -0.44872127391E+03  0.11650583200E+04  0.00000000000E+00 0.  1.
<mgrwt>
<rscale>  0 0.21586886E+04</rscale>
<asrwt>0</asrwt>
<pdfrwt beam="1">  1        1 0.10322279E+00 0.21586886E+04</pdfrwt>
<pdfrwt beam="2">  1       -1 0.26712695E+00 0.21586886E+04</pdfrwt>
<totfact> 0.14336427E+00</totfact>
</mgrwt>
</event>
<event>
 6    1  0.9364335E-007  0.1405743E+04  0.7818608E-02  0.8949672E-01
          1   -1    0    0  501    0  0.00000000000E+00  0.00000000000E+00  0.85896854718E+03  0.85896854718E+03  0.00000000000E+00 0. -1.
         -1   -1    0    0    0  501 -0.00000000000E+00 -0.00000000000E+00 -0.57514174875E+03  0.57514174875E+03  0.00000000000E+00 0.  1.
         23    2    1    2    0    0  0.35133982085E+03 -0.51143742788E+03 -0.18768886860E+03  0.65479332793E+03  0.92299937981E+02 0.  0.
         11    1    3    3    0    0  0.67037205557E+02 -0.58298691314E+02 -0.51886218024E+02  0.10288296243E+03  0.00000000000E+00 0. -1.
        -11    1    3    3    0    0  0.28430261529E+03 -0.45313873657E+03 -0.13580265058E+03  0.55191036550E+03  0.00000000000E+00 0.  1.
         22    1    1    2    0    0 -0.35133982085E+03  0.51143742788E+03  0.47151566703E+03  0.77931696799E+03  0.00000000000E+00 0. -1.
<mgrwt>
<rscale>  0 0.14057435E+04</rscale>
<asrwt>0</asrwt>
<pdfrwt beam="1">  1        1 0.13214901E+00 0.14057435E+04</pdfrwt>
<pdfrwt beam="2">  1       -1 0.88483346E-01 0.14057435E+04</pdfrwt>
<totfact> 0.24065186E+01</totfact>
</mgrwt>
</event>
<event>
 6    1  0.9364335E-007  0.4736239E+04  0.7818608E-02  0.7870535E-01
          2   -1    0    0  501    0  0.00000000000E+00  0.00000000000E+00  0.20926333085E+04  0.20926333085E+04  0.00000000000E+00 0. -1.
         -2   -1    0    0    0  501 -0.00000000000E+00 -0.00000000000E+00 -0.26798725852E+04  0.26798725852E+04  0.00000000000E+00 0.  1.
         23    2    1    2    0    0 -0.23164965826E+04 -0.46424840468E+03 -0.14435458854E+03  0.23687942126E+04  0.93084777307E+02 0.  0.
         11    1    3    3    0    0 -0.17694346529E+04 -0.39171738323E+03 -0.95584075916E+02  0.18147941522E+04  0.00000000000E+00 0. -1.
        -11    1    3    3    0    0 -0.54706192971E+03 -0.72531021454E+02 -0.48770512623E+02  0.55400006039E+03  0.00000000000E+00 0.  1.
         22    1    1    2    0    0  0.23164965826E+04  0.46424840468E+03 -0.44288468816E+03  0.24037116810E+04  0.00000000000E+00 0.  1.
<mgrwt>
<rscale>  0 0.47362393E+04</rscale>
<asrwt>0</asrwt>
<pdfrwt beam="1">  1        2 0.32194359E+00 0.47362393E+04</pdfrwt>
<pdfrwt beam="2">  1       -2 0.41228809E+00 0.47362393E+04</pdfrwt>
<totfact> 0.27201872E-02</totfact>
</mgrwt>
</event>
<event>
 6    1  0.9364335E-007  0.1702929E+04  0.7818608E-02  0.8759696E-01
         -2   -1    0    0    0  501 -0.00000000000E+00  0.00000000000E+00  0.84354128690E+03  0.84354128690E+03  0.00000000000E+00 0.  1.
          2   -1    0    0  501    0  0.00000000000E+00 -0.00000000000E+00 -0.85946188690E+03  0.85946188690E+03  0.00000000000E+00 0. -1.
         23    2    1    2    0    0 -0.34845790460E+03  0.70926371356E+03  0.30241277530E+03  0.85105595449E+03  0.91459413687E+02 0.  0.
         11    1    3    3    0    0 -0.11480654349E+03  0.16460838152E+03  0.49593184641E+02  0.20672674152E+03  0.00000000000E+00 0. -1.
        -11    1    3    3    0    0 -0.23365136111E+03  0.54465533204E+03  0.25281959066E+03  0.64432921297E+03  0.00000000000E+00 0.  1.
         22    1    1    2    0    0  0.34845790460E+03 -0.70926371356E+03 -0.31833337530E+03  0.85194721931E+03  0.00000000000E+00 0. -1.
<mgrwt>
<rscale>  0 0.17029288E+04</rscale>
<asrwt>0</asrwt>
<pdfrwt beam="1">  1        2 0.13222491E+00 0.17029288E+04</pdfrwt>
<pdfrwt beam="2">  1       -2 0.12977558E+00 0.17029288E+04</pdfrwt>
<totfact> 0.12970825E+01</totfact>
</mgrwt>
</event>
<event>
 6    1  0.9364335E-007  0.2539232E+04  0.7818608E-02  0.8389141E-01
         -2   -1    0    0    0  501 -0.00000000000E+00  0.00000000000E+00  0.16111487407E+04  0.16111487407E+04  0.00000000000E+00 0.  1.
          2   -1    0    0  501    0  0.00000000000E+00 -0.00000000000E+00 -0.10004813199E+04  0.10004813199E+04  0.00000000000E+00 0. -1.
         23    2    1    2    0    0  0.10768367032E+04  0.66662646025E+03  0.37074796303E+03  0.13226267755E+04  0.88991079321E+02 0.  0.
         11    1    3    3    0    0  0.36494234465E+03  0.25585357501E+03  0.95079901785E+02  0.45572376994E+03  0.00000000000E+00 0.  1.
        -11    1    3    3    0    0  0.71189435856E+03  0.41077288524E+03  0.27566806124E+03  0.86690300553E+03  0.00000000000E+00 0. -1.
         22    1    1    2    0    0 -0.10768367032E+04 -0.66662646025E+03  0.23991945770E+03  0.12890032851E+04  0.00000000000E+00 0. -1.
<mgrwt>
<rscale>  0 0.25392316E+04</rscale>
<asrwt>0</asrwt>
<pdfrwt beam="1">  1        2 0.15392020E+00 0.25392316E+04</pdfrwt>
<pdfrwt beam="2">  1       -2 0.24786904E+00 0.25392316E+04</pdfrwt>
<totfact> 0.14819243E+00</totfact>
</mgrwt>
</event>
<event>
 6    1  0.9364335E-007  0.8745518E+03  0.7818608E-02  0.9457964E-01
         -1   -1    0    0    0  501 -0.00000000000E+00  0.00000000000E+00  0.28803515562E+03  0.28803515562E+03  0.00000000000E+00 0.  1.
          1   -1    0    0  501    0  0.00000000000E+00 -0.00000000000E+00 -0.66384325143E+03  0.66384325143E+03  0.00000000000E+00 0. -1.
         23    2    1    2    0    0  0.42818864553E+03 -0.32227715246E+02 -0.16783610754E+03  0.47476574771E+03  0.11335525755E+03 0.  0.
         11    1    3    3    0    0  0.64549530100E+02 -0.21539098324E+02  0.11754281560E+02  0.69056047727E+02  0.00000000000E+00 0.  1.
        -11    1    3    3    0    0  0.36363911543E+03 -0.10688616922E+02 -0.17959038910E+03  0.40570969999E+03  0.00000000000E+00 0. -1.
         22    1    1    2    0    0 -0.42818864553E+03  0.32227715246E+02 -0.20797198827E+03  0.47711265934E+03  0.00000000000E+00 0. -1.
<mgrwt>
<rscale>  0 0.87455176E+03</rscale>
<asrwt>0</asrwt>
<pdfrwt beam="1">  1        1 0.10212973E+00 0.87455176E+03</pdfrwt>
<pdfrwt beam="2">  1       -1 0.44313101E-01 0.87455176E+03</pdfrwt>
<totfact> 0.14998662E+02</totfact>
</mgrwt>
</event>
<event>
 6    1  0.9364335E-007  0.2251379E+04  0.7818608E-02  0.8497342E-01
         -2   -1    0    0    0  501 -0.00000000000E+00  0.00000000000E+00  0.13648693186E+04  0.13648693186E+04  0.00000000000E+00 0.  1.
          2   -1    0    0  501    0  0.00000000000E+00 -0.00000000000E+00 -0.92842380986E+03  0.92842380986E+03  0.00000000000E+00 0. -1.
         23    2    1    2    0    0 -0.10310914855E+04  0.42896163568E+03  0.34675692859E+03  0.11729352491E+04  0.91536848842E+02 0.  0.
         13    1    3    3    0    0 -0.45171040010E+03  0.13921290846E+03  0.15103293364E+03  0.49621917182E+03  0.00000000000E+00 0.  1.
        -13    1    3    3    0    0 -0.57938108540E+03  0.28974872722E+03  0.19572399495E+03  0.67671607728E+03  0.00000000000E+00 0. -1.
         22    1    1    2    0    0  0.10310914855E+04 -0.42896163568E+03  0.89688580100E+02  0.11203578793E+04  0.00000000000E+00 0. -1.
<mgrwt>
<rscale>  0 0.22513793E+04</rscale>
<asrwt>0</asrwt>
<pdfrwt beam="1">  1        2 0.14283443E+00 0.22513793E+04</pdfrwt>
<pdfrwt beam="2">  1       -2 0.20997990E+00 0.22513793E+04</pdfrwt>
<totfact> 0.29245613E+00</totfact>
</mgrwt>
</event>
<event>
 6    1  0.9364335E-007  0.2653022E+04  0.7818608E-02  0.8350411E-01
          2   -1    0    0  501    0  0.00000000000E+00  0.00000000000E+00  0.23977243070E+04  0.23977243070E+04  0.00000000000E+00 0. -1.
         -2   -1    0    0    0  501 -0.00000000000E+00 -0.00000000000E+00 -0.73387564798E+03  0.73387564798E+03  0.00000000000E+00 0.  1.
         23    2    1    2    0    0 -0.10843705974E+04 -0.68458067488E+03  0.43952299520E+03  0.13586127514E+04  0.90210044843E+02 0.  0.
         13    1    3    3    0    0 -0.59002688642E+03 -0.32036065004E+03  0.21970361870E+03  0.70642221997E+03  0.00000000000E+00 0.  1.
        -13    1    3    3    0    0 -0.49434371094E+03 -0.36422002484E+03  0.21981937649E+03  0.65219053146E+03  0.00000000000E+00 0. -1.
         22    1    1    2    0    0  0.10843705974E+04  0.68458067488E+03  0.12243256638E+04  0.17729872035E+04  0.00000000000E+00 0. -1.
<mgrwt>
<rscale>  0 0.26530220E+04</rscale>
<asrwt>0</asrwt>
<pdfrwt beam="1">  1        2 0.36888066E+00 0.26530220E+04</pdfrwt>
<pdfrwt beam="2">  1       -2 0.11290395E+00 0.26530220E+04</pdfrwt>
<totfact> 0.21653110E+00</totfact>
</mgrwt>
</event>
<event>
 6    1  0.9364335E-007  0.1732870E+04  0.7818608E-02  0.8742836E-01
          1   -1    0    0  501    0  0.00000000000E+00  0.00000000000E+00  0.13490746974E+04  0.13490746974E+04  0.00000000000E+00 0. -1.
         -1   -1    0    0    0  501 -0.00000000000E+00 -0.00000000000E+00 -0.55646288718E+03  0.55646288718E+03  0.00000000000E+00 0.  1.
         23    2    1    2    0    0 -0.17627175514E+03 -0.11551270836E+03  0.13189083178E+04  0.13386134880E+04  0.89173998588E+02 0.  0.
         13    1    3    3    0    0 -0.42252240628E+02  0.10447114424E+02  0.19911689694E+03  0.20381838162E+03  0.00000000000E+00 0. -1.
        -13    1    3    3    0    0 -0.13401951452E+03 -0.12595982279E+03  0.11197914208E+04  0.11347951063E+04  0.00000000000E+00 0.  1.
         22    1    1    2    0    0  0.17627175514E+03  0.11551270836E+03 -0.52629650756E+03  0.56692409661E+03  0.00000000000E+00 0.  1.
<mgrwt>
<rscale>  0 0.17328705E+04</rscale>
<asrwt>0</asrwt>
<pdfrwt beam="1">  1        1 0.20754995E+00 0.17328705E+04</pdfrwt>
<pdfrwt beam="2">  1       -1 0.85609675E-01 0.17328705E+04</pdfrwt>
<totfact> 0.10676650E+01</totfact>
</mgrwt>
</event>
<event>
 6    1  0.9364335E-007  0.2082561E+04  0.7818608E-02  0.8568965E-01
         -1   -1    0    0    0  501 -0.00000000000E+00  0.00000000000E+00  0.10527873535E+04  0.10527873535E+04  0.00000000000E+00 0.  1.
          1   -1    0    0  501    0  0.00000000000E+00 -0.00000000000E+00 -0.10298992758E+04  0.10298992758E+04  0.00000000000E+00 0. -1.
         23    2    1    2    0    0  0.71999841623E+03  0.57045287307E+03  0.49747828914E+03  0.10487378547E+04  0.92478321370E+02 0.  0.
         13    1    3    3    0    0  0.56868490912E+03  0.40637258486E+03  0.35503820939E+03  0.78396003324E+03  0.00000000000E+00 0. -1.
        -13    1    3    3    0    0  0.15131350711E+03  0.16408028821E+03  0.14244007975E+03  0.26477782145E+03  0.00000000000E+00 0.  1.
         22    1    1    2    0    0 -0.71999841623E+03 -0.57045287307E+03 -0.47459021148E+03  0.10339487747E+04  0.00000000000E+00 0. -1.
<mgrwt>
<rscale>  0 0.20825609E+04</rscale>
<asrwt>0</asrwt>
<pdfrwt beam="1">  1        1 0.15844604E+00 0.20825609E+04</pdfrwt>
<pdfrwt beam="2">  1       -1 0.16196728E+00 0.20825609E+04</pdfrwt>
<totfact> 0.37306235E+00</totfact>
</mgrwt>
</event>
<event>
 6    1  0.9364335E-007  0.1575556E+04  0.7818608E-02  0.8835707E-01
         -2   -1    0    0    0  501 -0.00000000000E+00  0.00000000000E+00  0.58371207980E+03  0.58371207980E+03  0.00000000000E+00 0.  1.
          2   -1    0    0  501    0  0.00000000000E+00 -0.00000000000E+00 -0.10631852147E+04  0.10631852147E+04  0.00000000000E+00 0. -1.
         23    2    1    2    0    0  0.47186845636E+03 -0.29712378472E+03  0.33745922961E+03  0.65779625228E+03  0.88740037798E+02 0.  0.
         11    1    3    3    0    0  0.19003516927E+03 -0.12679302545E+03  0.18932896077E+03  0.29670741859E+03  0.00000000000E+00 0.  1.
        -11    1    3    3    0    0  0.28183328709E+03 -0.17033075928E+03  0.14813026885E+03  0.36108883369E+03  0.00000000000E+00 0. -1.
         22    1    1    2    0    0 -0.47186845636E+03  0.29712378472E+03 -0.81693236456E+03  0.98910104227E+03  0.00000000000E+00 0. -1.
<mgrwt>
<rscale>  0 0.15755558E+04</rscale>
<asrwt>0</asrwt>
<pdfrwt beam="1">  1        2 0.16356696E+00 0.15755558E+04</pdfrwt>
<pdfrwt beam="2">  1       -2 0.89801859E-01 0.15755558E+04</pdfrwt>
<totfact> 0.23441290E+01</totfact>
</mgrwt>
</event>
<event>
 6    1  0.9364335E-007  0.6671315E+03  0.7818608E-02  0.9775154E-01
         -2   -1    0    0    0  501 -0.00000000000E+00  0.00000000000E+00  0.28605095935E+03  0.28605095935E+03  0.00000000000E+00 0.  1.
          2   -1    0    0  501    0  0.00000000000E+00 -0.00000000000E+00 -0.38897307888E+03  0.38897307888E+03  0.00000000000E+00 0. -1.
         23    2    1    2    0    0  0.20892256310E+03  0.16504637615E+03  0.14113231024E+03  0.31384332398E+03  0.87694694043E+02 0.  0.
         13    1    3    3    0    0  0.11991632958E+03  0.14045089176E+03  0.11620075110E+03  0.21819485249E+03  0.00000000000E+00 0. -1.
        -13    1    3    3    0    0  0.89006233523E+02  0.24595484389E+02  0.24931559134E+02  0.95648471494E+02  0.00000000000E+00 0.  1.
         22    1    1    2    0    0 -0.20892256310E+03 -0.16504637615E+03 -0.24405442976E+03  0.36118071424E+03  0.00000000000E+00 0. -1.
<mgrwt>
<rscale>  0 0.66713154E+03</rscale>
<asrwt>0</asrwt>
<pdfrwt beam="1">  1        2 0.59842012E-01 0.66713154E+03</pdfrwt>
<pdfrwt beam="2">  1       -2 0.44007840E-01 0.66713154E+03</pdfrwt>
<totfact> 0.40536694E+02</totfact>
</mgrwt>
</event>
<event>
 6    1  0.9364335E-007  0.1472836E+04  0.7818608E-02  0.8902720E-01
          1   -1    0    0  501    0  0.00000000000E+00  0.00000000000E+00  0.57581065509E+03  0.57581065509E+03  0.00000000000E+00 0. -1.
         -1   -1    0    0    0  501 -0.00000000000E+00 -0.00000000000E+00 -0.94182282276E+03  0.94182282276E+03  0.00000000000E+00 0.  1.
         23    2    1    2    0    0 -0.13350863907E+02  0.69899551496E+03 -0.41290707209E+03  0.81693945935E+03  0.90137975140E+02 0.  0.
         11    1    3    3    0    0 -0.31678626433E+02  0.16550092718E+03 -0.12980546055E+03  0.21270531225E+03  0.00000000000E+00 0.  1.
        -11    1    3    3    0    0  0.18327762526E+02  0.53349458778E+03 -0.28310161155E+03  0.60423414711E+03  0.00000000000E+00 0. -1.
         22    1    1    2    0    0  0.13350863907E+02 -0.69899551496E+03  0.46894904425E+02  0.70069401850E+03  0.00000000000E+00 0.  1.
<mgrwt>
<rscale>  0 0.14728362E+04</rscale>
<asrwt>0</asrwt>
<pdfrwt beam="1">  1        1 0.88586254E-01 0.14728362E+04</pdfrwt>
<pdfrwt beam="2">  1       -1 0.14489582E+00 0.14728362E+04</pdfrwt>
<totfact> 0.13488015E+01</totfact>
</mgrwt>
</event>
<event>
 6    1  0.9364335E-007  0.1349841E+04  0.7818608E-02  0.8990948E-01
         -1   -1    0    0    0  501 -0.00000000000E+00  0.00000000000E+00  0.18971498671E+03  0.18971498671E+03  0.00000000000E+00 0.  1.
          1   -1    0    0  501    0  0.00000000000E+00 -0.00000000000E+00 -0.24010648692E+04  0.24010648692E+04  0.00000000000E+00 0. -1.
         23    2    1    2    0    0  0.65794857253E+03  0.11684738904E+03 -0.97778081835E+03  0.11878392754E+04  0.91417607958E+02 0.  0.
         13    1    3    3    0    0  0.42629407935E+03  0.95106304063E+02 -0.70467610503E+03  0.82905986766E+03  0.00000000000E+00 0. -1.
        -13    1    3    3    0    0  0.23165449318E+03  0.21741084976E+02 -0.27310471332E+03  0.35877940775E+03  0.00000000000E+00 0.  1.
         22    1    1    2    0    0 -0.65794857253E+03 -0.11684738904E+03 -0.12335690642E+04  0.14029405805E+04  0.00000000000E+00 0. -1.
<mgrwt>
<rscale>  0 0.13498415E+04</rscale>
<asrwt>0</asrwt>
<pdfrwt beam="1">  1        1 0.36939457E+00 0.13498415E+04</pdfrwt>
<pdfrwt beam="2">  1       -1 0.29186923E-01 0.13498415E+04</pdfrwt>
<totfact> 0.16678767E+01</totfact>
</mgrwt>
</event>
<event>
 6    1  0.9364335E-007  0.1016566E+04  0.7818608E-02  0.9290560E-01
          2   -1    0    0  501    0  0.00000000000E+00  0.00000000000E+00  0.15822161654E+04  0.15822161654E+04  0.00000000000E+00 0. -1.
         -2   -1    0    0    0  501 -0.00000000000E+00 -0.00000000000E+00 -0.16328456281E+03  0.16328456281E+03  0.00000000000E+00 0.  1.
         23    2    1    2    0    0  0.38989570805E+03  0.77783008558E+02  0.18357169281E+03  0.44773997742E+03  0.93293415655E+02 0.  0.
         11    1    3    3    0    0  0.49382690345E+02  0.12362751807E+02 -0.81036966850E+01  0.51547624950E+02  0.00000000000E+00 0. -1.
        -11    1    3    3    0    0  0.34051301771E+03  0.65420256751E+02  0.19167538949E+03  0.39619235247E+03  0.00000000000E+00 0.  1.
         22    1    1    2    0    0 -0.38989570805E+03 -0.77783008558E+02  0.12353599098E+04  0.12977607508E+04  0.00000000000E+00 0. -1.
<mgrwt>
<rscale>  0 0.10165657E+04</rscale>
<asrwt>0</asrwt>
<pdfrwt beam="1">  1        2 0.24341786E+00 0.10165657E+04</pdfrwt>
<pdfrwt beam="2">  1       -2 0.25120703E-01 0.10165657E+04</pdfrwt>
<totfact> 0.16179819E+02</totfact>
</mgrwt>
</event>
<event>
 6    1  0.9364335E-007  0.2814215E+04  0.7818608E-02  0.8298869E-01
         -1   -1    0    0    0  501 -0.00000000000E+00  0.00000000000E+00  0.15112187464E+04  0.15112187464E+04  0.00000000000E+00 0.  1.
          1   -1    0    0  501    0  0.00000000000E+00 -0.00000000000E+00 -0.13101687894E+04  0.13101687894E+04  0.00000000000E+00 0. -1.
         23    2    1    2    0    0  0.10465179250E+04 -0.71135800425E+03 -0.51296464238E+03  0.13684433437E+04  0.90964184268E+02 0.  0.
         13    1    3    3    0    0  0.69239424014E+03 -0.47107715007E+03 -0.38548928597E+03  0.92191401698E+03  0.00000000000E+00 0. -1.
        -13    1    3    3    0    0  0.35412368490E+03 -0.24028085417E+03 -0.12747535640E+03  0.44652932668E+03  0.00000000000E+00 0.  1.
         22    1    1    2    0    0 -0.10465179250E+04  0.71135800425E+03  0.71401459937E+03  0.14529441922E+04  0.00000000000E+00 0.  1.
<mgrwt>
<rscale>  0 0.28142151E+04</rscale>
<asrwt>0</asrwt>
<pdfrwt beam="1">  1        1 0.20156443E+00 0.28142151E+04</pdfrwt>
<pdfrwt beam="2">  1       -1 0.23249519E+00 0.28142151E+04</pdfrwt>
<totfact> 0.69890201E-01</totfact>
</mgrwt>
</event>
<event>
 6    1  0.9364335E-007  0.4199089E+04  0.7818608E-02  0.7965546E-01
         -2   -1    0    0    0  501 -0.00000000000E+00  0.00000000000E+00  0.12858194955E+04  0.12858194955E+04  0.00000000000E+00 0.  1.
          2   -1    0    0  501    0  0.00000000000E+00 -0.00000000000E+00 -0.34282319718E+04  0.34282319718E+04  0.00000000000E+00 0. -1.
         23    2    1    2    0    0  0.20736253568E+03 -0.19685005221E+04 -0.28902043399E+03  0.20023996480E+04  0.89877762484E+02 0.  0.
         13    1    3    3    0    0  0.41316382975E+02 -0.21962585901E+03 -0.54948731611E+02  0.23013457922E+03  0.00000000000E+00 0. -1.
        -13    1    3    3    0    0  0.16604615270E+03 -0.17488746631E+04 -0.23407170238E+03  0.17722650687E+04  0.00000000000E+00 0.  1.
         22    1    1    2    0    0 -0.20736253568E+03  0.19685005221E+04 -0.18533920423E+04  0.27116518193E+04  0.00000000000E+00 0. -1.
<mgrwt>
<rscale>  0 0.41990892E+04</rscale>
<asrwt>0</asrwt>
<pdfrwt beam="1">  1        2 0.52742029E+00 0.41990892E+04</pdfrwt>
<pdfrwt beam="2">  1       -2 0.19781839E+00 0.41990892E+04</pdfrwt>
<totfact> 0.97157359E-02</totfact>
</mgrwt>
</event>
<event>
 6    1  0.9364335E-007  0.1069938E+04  0.7818608E-02  0.9234998E-01
         -2   -1    0    0    0  501 -0.00000000000E+00  0.00000000000E+00  0.66279616260E+03  0.66279616260E+03  0.00000000000E+00 0.  1.
          2   -1    0    0  501    0  0.00000000000E+00 -0.00000000000E+00 -0.43179443701E+03  0.43179443701E+03  0.00000000000E+00 0. -1.
         23    2    1    2    0    0  0.11668557465E+03  0.11533267013E+03 -0.40076571860E+03  0.44186764791E+03  0.87844800274E+02 0.  0.
         13    1    3    3    0    0 -0.41369866405E+01  0.88955293288E+01 -0.10203039103E+03  0.10250095509E+03  0.00000000000E+00 0. -1.
        -13    1    3    3    0    0  0.12082256129E+03  0.10643714080E+03 -0.29873532757E+03  0.33936669282E+03  0.00000000000E+00 0.  1.
         22    1    1    2    0    0 -0.11668557465E+03 -0.11533267013E+03  0.63176744420E+03  0.65272295170E+03  0.00000000000E+00 0.  1.
<mgrwt>
<rscale>  0 0.10699377E+04</rscale>
<asrwt>0</asrwt>
<pdfrwt beam="1">  1        2 0.66429913E-01 0.10699377E+04</pdfrwt>
<pdfrwt beam="2">  1       -2 0.10196864E+00 0.10699377E+04</pdfrwt>
<totfact> 0.57190559E+01</totfact>
</mgrwt>
</event>
<event>
 6    1  0.9364335E-007  0.1394890E+04  0.7818608E-02  0.8957526E-01
          1   -1    0    0  501    0  0.00000000000E+00  0.00000000000E+00  0.15709534810E+04  0.15709534810E+04  0.00000000000E+00 0. -1.
         -1   -1    0    0    0  501 -0.00000000000E+00 -0.00000000000E+00 -0.30963966084E+03  0.30963966084E+03  0.00000000000E+00 0.  1.
         23    2    1    2    0    0 -0.39005372925E+03 -0.38320076583E+03  0.56249811716E+02  0.55727760763E+03  0.91703609608E+02 0.  0.
         11    1    3    3    0    0 -0.19996000950E+03 -0.24457626032E+03  0.24010471736E+01  0.31592296140E+03  0.00000000000E+00 0.  1.
        -11    1    3    3    0    0 -0.19009371975E+03 -0.13862450552E+03  0.53848764542E+02  0.24135464623E+03  0.00000000000E+00 0. -1.
         22    1    1    2    0    0  0.39005372925E+03  0.38320076583E+03  0.12050640085E+04  0.13233155343E+04  0.00000000000E+00 0. -1.
<mgrwt>
<rscale>  0 0.13948900E+04</rscale>
<asrwt>0</asrwt>
<pdfrwt beam="1">  1        1 0.24168515E+00 0.13948900E+04</pdfrwt>
<pdfrwt beam="2">  1       -1 0.47636872E-01 0.13948900E+04</pdfrwt>
<totfact> 0.25078423E+01</totfact>
</mgrwt>
</event>
<event>
 6    1  0.9364335E-007  0.3087779E+04  0.7818608E-02  0.8219100E-01
         -1   -1    0    0    0  501 -0.00000000000E+00  0.00000000000E+00  0.16558481645E+04  0.16558481645E+04  0.00000000000E+00 0.  1.
          1   -1    0    0  501    0  0.00000000000E+00 -0.00000000000E+00 -0.14395008197E+04  0.14395008197E+04  0.00000000000E+00 0. -1.
         23    2    1    2    0    0 -0.58441762553E+03 -0.14233720344E+04 -0.97741892496E+00  0.15413985467E+04  0.91523849377E+02 0.  0.
         13    1    3    3    0    0 -0.20952462423E+03 -0.62050963120E+03 -0.17587102531E+02  0.65516568648E+03  0.00000000000E+00 0.  1.
        -13    1    3    3    0    0 -0.37489300130E+03 -0.80286240323E+03  0.16609683606E+02  0.88623286022E+03  0.00000000000E+00 0. -1.
         22    1    1    2    0    0  0.58441762553E+03  0.14233720344E+04  0.21732476368E+03  0.15539504375E+04  0.00000000000E+00 0. -1.
<mgrwt>
<rscale>  0 0.30877790E+04</rscale>
<asrwt>0</asrwt>
<pdfrwt beam="1">  1        1 0.22146167E+00 0.30877790E+04</pdfrwt>
<pdfrwt beam="2">  1       -1 0.25474587E+00 0.30877790E+04</pdfrwt>
<totfact> 0.39526823E-01</totfact>
</mgrwt>
</event>
<event>
 6    1  0.9364335E-007  0.4762826E+04  0.7818608E-02  0.7866173E-01
         -2   -1    0    0    0  501 -0.00000000000E+00  0.00000000000E+00  0.21125631400E+04  0.21125631400E+04  0.00000000000E+00 0.  1.
          2   -1    0    0  501    0  0.00000000000E+00 -0.00000000000E+00 -0.26844775466E+04  0.26844775466E+04  0.00000000000E+00 0. -1.
         23    2    1    2    0    0  0.20482090595E+04  0.12070988910E+04 -0.16374664907E+03  0.23848116340E+04  0.90914685913E+02 0.  0.
         13    1    3    3    0    0  0.44932310726E+03  0.25643382056E+03 -0.72608511522E+02  0.52241894586E+03  0.00000000000E+00 0. -1.
        -13    1    3    3    0    0  0.15988859523E+04  0.95066507046E+03 -0.91138137545E+02  0.18623926881E+04  0.00000000000E+00 0.  1.
         22    1    1    2    0    0 -0.20482090595E+04 -0.12070988910E+04 -0.40816775746E+03  0.24122290527E+04  0.00000000000E+00 0.  1.
<mgrwt>
<rscale>  0 0.47628262E+04</rscale>
<asrwt>0</asrwt>
<pdfrwt beam="1">  1        2 0.41299655E+00 0.47628262E+04</pdfrwt>
<pdfrwt beam="2">  1       -2 0.32500971E+00 0.47628262E+04</pdfrwt>
<totfact> 0.44859890E-02</totfact>
</mgrwt>
</event>
<event>
 6    1  0.9364335E-007  0.2494151E+04  0.7818608E-02  0.8405072E-01
         -1   -1    0    0    0  501 -0.00000000000E+00  0.00000000000E+00  0.26619721114E+04  0.26619721114E+04  0.00000000000E+00 0.  1.
          1   -1    0    0  501    0  0.00000000000E+00 -0.00000000000E+00 -0.58422767000E+03  0.58422767000E+03  0.00000000000E+00 0. -1.
         23    2    1    2    0    0  0.25519572940E+03  0.63448741879E+03  0.23949810851E+04  0.24923176732E+04  0.89520059206E+02 0.  0.
         13    1    3    3    0    0  0.10335806376E+03  0.34597133630E+03  0.11499841087E+04  0.12053391661E+04  0.00000000000E+00 0.  1.
        -13    1    3    3    0    0  0.15183766564E+03  0.28851608248E+03  0.12449969764E+04  0.12869785071E+04  0.00000000000E+00 0. -1.
         22    1    1    2    0    0 -0.25519572940E+03 -0.63448741879E+03 -0.31723664376E+03  0.75388210819E+03  0.00000000000E+00 0. -1.
<mgrwt>
<rscale>  0 0.24941514E+04</rscale>
<asrwt>0</asrwt>
<pdfrwt beam="1">  1        1 0.89881182E-01 0.24941514E+04</pdfrwt>
<pdfrwt beam="2">  1       -1 0.40953416E+00 0.24941514E+04</pdfrwt>
<totfact> 0.19469051E-01</totfact>
</mgrwt>
</event>
<event>
 6    1  0.9364335E-007  0.9840199E+03  0.7818608E-02  0.9326247E-01
          1   -1    0    0  501    0  0.00000000000E+00  0.00000000000E+00  0.52411778517E+03  0.52411778517E+03  0.00000000000E+00 0. -1.
         -1   -1    0    0    0  501 -0.00000000000E+00 -0.00000000000E+00 -0.46186908789E+03  0.46186908789E+03  0.00000000000E+00 0.  1.
         23    2    1    2    0    0 -0.18069096749E+03 -0.23547952590E+03 -0.35583627822E+03  0.47325411656E+03  0.96177799392E+02 0.  0.
         11    1    3    3    0    0 -0.16946608872E+03 -0.21171148148E+03 -0.26682143885E+03  0.38043946541E+03  0.00000000000E+00 0.  1.
        -11    1    3    3    0    0 -0.11224878775E+02 -0.23768044413E+02 -0.89014839378E+02  0.92814651151E+02  0.00000000000E+00 0. -1.
         22    1    1    2    0    0  0.18069096749E+03  0.23547952590E+03  0.41808497550E+03  0.51273275650E+03  0.00000000000E+00 0. -1.
<mgrwt>
<rscale>  0 0.98401993E+03</rscale>
<asrwt>0</asrwt>
<pdfrwt beam="1">  1        1 0.80633505E-01 0.98401993E+03</pdfrwt>
<pdfrwt beam="2">  1       -1 0.71056783E-01 0.98401993E+03</pdfrwt>
<totfact> 0.83376480E+01</totfact>
</mgrwt>
</event>
<event>
 6    1  0.9364335E-007  0.1712611E+04  0.7818608E-02  0.8754204E-01
         -1   -1    0    0    0  501 -0.00000000000E+00  0.00000000000E+00  0.82582558935E+03  0.82582558935E+03  0.00000000000E+00 0.  1.
          1   -1    0    0  501    0  0.00000000000E+00 -0.00000000000E+00 -0.88791056432E+03  0.88791056432E+03  0.00000000000E+00 0. -1.
         23    2    1    2    0    0  0.25990100408E+03  0.35546062543E+03 -0.76283159931E+03  0.88612113467E+03  0.96942396605E+02 0.  0.
         13    1    3    3    0    0  0.12463159552E+03  0.95839061657E+02 -0.29396594137E+03  0.33336786742E+03  0.00000000000E+00 0. -1.
        -13    1    3    3    0    0  0.13526940856E+03  0.25962156378E+03 -0.46886565793E+03  0.55275326725E+03  0.00000000000E+00 0.  1.
         22    1    1    2    0    0 -0.25990100408E+03 -0.35546062543E+03  0.70074662433E+03  0.82761501899E+03  0.00000000000E+00 0.  1.
<mgrwt>
<rscale>  0 0.17126112E+04</rscale>
<asrwt>0</asrwt>
<pdfrwt beam="1">  1        1 0.13660163E+00 0.17126112E+04</pdfrwt>
<pdfrwt beam="2">  1       -1 0.12705009E+00 0.17126112E+04</pdfrwt>
<totfact> 0.95121160E+00</totfact>
</mgrwt>
</event>
<event>
 6    1  0.9364335E-007  0.4166504E+04  0.7818608E-02  0.7971775E-01
          2   -1    0    0  501    0  0.00000000000E+00  0.00000000000E+00  0.24972850203E+04  0.24972850203E+04  0.00000000000E+00 0. -1.
         -2   -1    0    0    0  501 -0.00000000000E+00 -0.00000000000E+00 -0.17378630698E+04  0.17378630698E+04  0.00000000000E+00 0.  1.
         23    2    1    2    0    0 -0.90055596042E+03 -0.17798967398E+04 -0.22746180051E+03  0.20096205167E+04  0.88330675942E+02 0.  0.
         13    1    3    3    0    0 -0.34794259597E+03 -0.60200109053E+03 -0.95899745538E+02  0.70190179106E+03  0.00000000000E+00 0.  1.
        -13    1    3    3    0    0 -0.55261336445E+03 -0.11778956493E+04 -0.13156205497E+03  0.13077187256E+04  0.00000000000E+00 0. -1.
         22    1    1    2    0    0  0.90055596042E+03  0.17798967398E+04  0.98688375098E+03  0.22255275734E+04  0.00000000000E+00 0. -1.
<mgrwt>
<rscale>  0 0.41665042E+04</rscale>
<asrwt>0</asrwt>
<pdfrwt beam="1">  1        2 0.38419769E+00 0.41665042E+04</pdfrwt>
<pdfrwt beam="2">  1       -2 0.26736355E+00 0.41665042E+04</pdfrwt>
<totfact> 0.13678484E-01</totfact>
</mgrwt>
</event>
<event>
 6    1  0.9430833E-007  0.3422249E+04  0.7818608E-02  0.8132467E-01
          1   -1    0    0  501    0  0.00000000000E+00  0.00000000000E+00  0.27459488303E+04  0.27459488303E+04  0.00000000000E+00 0. -1.
         -1   -1    0    0    0  501 -0.00000000000E+00 -0.00000000000E+00 -0.10662789608E+04  0.10662789608E+04  0.00000000000E+00 0.  1.
         23    2    1    2    0    0 -0.11476588687E+03 -0.22937667910E+03  0.27236621708E+04  0.27371906778E+04  0.89957301267E+02 0.  0.
         11    1    3    3    0    0 -0.50612402736E+01 -0.81735027343E+02  0.59729333494E+03  0.60288104864E+03  0.00000000000E+00 0. -1.
        -11    1    3    3    0    0 -0.10970464659E+03 -0.14764165176E+03  0.21263688359E+04  0.21343096292E+04  0.00000000000E+00 0.  1.
         22    1    1    2    0    0  0.11476588687E+03  0.22937667910E+03 -0.10439923013E+04  0.10750371133E+04  0.00000000000E+00 0.  1.
<mgrwt>
<rscale>  0 0.34222492E+04</rscale>
<asrwt>0</asrwt>
<pdfrwt beam="1">  1        1 0.42245366E+00 0.34222492E+04</pdfrwt>
<pdfrwt beam="2">  1       -1 0.16404292E+00 0.34222492E+04</pdfrwt>
<totfact> 0.20361288E-01</totfact>
</mgrwt>
</event>
<event>
 6    1  0.9364335E-007  0.3199739E+04  0.7818608E-02  0.8188886E-01
          2   -1    0    0  501    0  0.00000000000E+00  0.00000000000E+00  0.18537640727E+04  0.18537640727E+04  0.00000000000E+00 0. -1.
         -2   -1    0    0    0  501 -0.00000000000E+00 -0.00000000000E+00 -0.13807483634E+04  0.13807483634E+04  0.00000000000E+00 0.  1.
         23    2    1    2    0    0 -0.76370284916E+03  0.92755143391E+03  0.13025685876E+04  0.17744604910E+04  0.91822680184E+02 0.  0.
         13    1    3    3    0    0 -0.36961981398E+03  0.47812366199E+03  0.59300846362E+03  0.84668771160E+03  0.00000000000E+00 0. -1.
        -13    1    3    3    0    0 -0.39408303518E+03  0.44942777192E+03  0.70956012395E+03  0.92777277945E+03  0.00000000000E+00 0.  1.
         22    1    1    2    0    0  0.76370284916E+03 -0.92755143391E+03 -0.82955287827E+03  0.14600519450E+04  0.00000000000E+00 0.  1.
<mgrwt>
<rscale>  0 0.31997386E+04</rscale>
<asrwt>0</asrwt>
<pdfrwt beam="1">  1        2 0.28519447E+00 0.31997386E+04</pdfrwt>
<pdfrwt beam="2">  1       -2 0.21242283E+00 0.31997386E+04</pdfrwt>
<totfact> 0.74946336E-01</totfact>
</mgrwt>
</event>
<event>
 6    1  0.9364335E-007  0.1201563E+04  0.7818608E-02  0.9111489E-01
          3   -1    0    0  501    0  0.00000000000E+00  0.00000000000E+00  0.40051460372E+03  0.40051460372E+03  0.00000000000E+00 0. -1.
         -3   -1    0    0    0  501 -0.00000000000E+00 -0.00000000000E+00 -0.90118687089E+03  0.90118687089E+03  0.00000000000E+00 0.  1.
         23    2    1    2    0    0  0.51320002039E+03 -0.97942758617E+01  0.79639816904E+02  0.52695486850E+03  0.88705942453E+02 0.  0.
         11    1    3    3    0    0  0.13016096905E+03  0.16862247552E+02  0.54666239295E+02  0.14217809597E+03  0.00000000000E+00 0. -1.
        -11    1    3    3    0    0  0.38303905134E+03 -0.26656523414E+02  0.24973577608E+02  0.38477677252E+03  0.00000000000E+00 0.  1.
         22    1    1    2    0    0 -0.51320002039E+03  0.97942758617E+01 -0.58031208407E+03  0.77474660612E+03  0.00000000000E+00 0.  1.
<mgrwt>
<rscale>  0 0.12015632E+04</rscale>
<asrwt>0</asrwt>
<pdfrwt beam="1">  1        3 0.61617632E-01 0.12015632E+04</pdfrwt>
<pdfrwt beam="2">  1       -3 0.13864413E+00 0.12015632E+04</pdfrwt>
<totfact> 0.26204658E+00</totfact>
</mgrwt>
</event>
<event>
 6    1  0.9364335E-007  0.1000918E+04  0.7818608E-02  0.9307539E-01
         -2   -1    0    0    0  501 -0.00000000000E+00  0.00000000000E+00  0.60570041916E+03  0.60570041916E+03  0.00000000000E+00 0.  1.
          2   -1    0    0  501    0  0.00000000000E+00 -0.00000000000E+00 -0.41350305769E+03  0.41350305769E+03  0.00000000000E+00 0. -1.
         23    2    1    2    0    0  0.41727319667E+02  0.45111199343E+03 -0.10806519730E+03  0.47569560752E+03  0.96773055805E+02 0.  0.
         11    1    3    3    0    0  0.15992506631E+02  0.72028938741E+02  0.16944242497E+02  0.75703603866E+02  0.00000000000E+00 0.  1.
        -11    1    3    3    0    0  0.25734813035E+02  0.37908305469E+03 -0.12500943979E+03  0.39999200366E+03  0.00000000000E+00 0. -1.
         22    1    1    2    0    0 -0.41727319667E+02 -0.45111199343E+03  0.30026255877E+03  0.54350786932E+03  0.00000000000E+00 0.  1.
<mgrwt>
<rscale>  0 0.10009175E+04</rscale>
<asrwt>0</asrwt>
<pdfrwt beam="1">  1        2 0.63615855E-01 0.10009175E+04</pdfrwt>
<pdfrwt beam="2">  1       -2 0.93184680E-01 0.10009175E+04</pdfrwt>
<totfact> 0.74576558E+01</totfact>
</mgrwt>
</event>
<event>
 6    1  0.9364335E-007  0.1847791E+04  0.7818608E-02  0.8681290E-01
         -2   -1    0    0    0  501 -0.00000000000E+00  0.00000000000E+00  0.88076394330E+03  0.88076394330E+03  0.00000000000E+00 0.  1.
          2   -1    0    0  501    0  0.00000000000E+00 -0.00000000000E+00 -0.96913914482E+03  0.96913914482E+03  0.00000000000E+00 0. -1.
         23    2    1    2    0    0 -0.24131041212E+03 -0.44716742700E+03  0.72525717084E+03  0.89063927659E+03  0.95136398886E+02 0.  0.
         11    1    3    3    0    0 -0.96412023792E+02 -0.10267725576E+03  0.23815307076E+03  0.27668534890E+03  0.00000000000E+00 0.  1.
        -11    1    3    3    0    0 -0.14489838833E+03 -0.34449017124E+03  0.48710410008E+03  0.61395392770E+03  0.00000000000E+00 0. -1.
         22    1    1    2    0    0  0.24131041212E+03  0.44716742700E+03 -0.81363237236E+03  0.95926381153E+03  0.00000000000E+00 0. -1.
<mgrwt>
<rscale>  0 0.18477909E+04</rscale>
<asrwt>0</asrwt>
<pdfrwt beam="1">  1        2 0.14909833E+00 0.18477909E+04</pdfrwt>
<pdfrwt beam="2">  1       -2 0.13550215E+00 0.18477909E+04</pdfrwt>
<totfact> 0.96931628E+00</totfact>
</mgrwt>
</event>
<event>
 6    1  0.9364335E-007  0.2482804E+04  0.7818608E-02  0.8409137E-01
          2   -1    0    0  501    0  0.00000000000E+00  0.00000000000E+00  0.11745496599E+04  0.11745496599E+04  0.00000000000E+00 0. -1.
         -2   -1    0    0    0  501 -0.00000000000E+00 -0.00000000000E+00 -0.13120592377E+04  0.13120592377E+04  0.00000000000E+00 0.  1.
         23    2    1    2    0    0 -0.23191519814E+03  0.11064319077E+04  0.44052783053E+03  0.12169225305E+04  0.94124652527E+02 0.  0.
         13    1    3    3    0    0 -0.10865164757E+03  0.61703783436E+03  0.19860467505E+03  0.65725541954E+03  0.00000000000E+00 0. -1.
        -13    1    3    3    0    0 -0.12326355057E+03  0.48939407331E+03  0.24192315548E+03  0.55966711092E+03  0.00000000000E+00 0.  1.
         22    1    1    2    0    0  0.23191519814E+03 -0.11064319077E+04 -0.57803740835E+03  0.12696863671E+04  0.00000000000E+00 0.  1.
<mgrwt>
<rscale>  0 0.24828038E+04</rscale>
<asrwt>0</asrwt>
<pdfrwt beam="1">  1        2 0.18069995E+00 0.24828038E+04</pdfrwt>
<pdfrwt beam="2">  1       -2 0.20185527E+00 0.24828038E+04</pdfrwt>
<totfact> 0.22660534E+00</totfact>
</mgrwt>
</event>
<event>
 6    1  0.2844667E-006  0.3231117E+04  0.7818608E-02  0.8180647E-01
          2   -1    0    0  501    0  0.00000000000E+00  0.00000000000E+00  0.21008222617E+04  0.21008222617E+04  0.00000000000E+00 0. -1.
         -2   -1    0    0    0  501 -0.00000000000E+00 -0.00000000000E+00 -0.12423849022E+04  0.12423849022E+04  0.00000000000E+00 0.  1.
         23    2    1    2    0    0 -0.10721695952E+03  0.30011158783E+03  0.20669688719E+04  0.20933628303E+04  0.90802976268E+02 0.  0.
         13    1    3    3    0    0 -0.10273088487E+02  0.78387892478E+02  0.76688492294E+03  0.77094920913E+03  0.00000000000E+00 0.  1.
        -13    1    3    3    0    0 -0.96943871032E+02  0.22172369535E+03  0.13000839490E+04  0.13224136212E+04  0.00000000000E+00 0. -1.
         22    1    1    2    0    0  0.10721695952E+03 -0.30011158783E+03 -0.12085315125E+04  0.12498443336E+04  0.00000000000E+00 0.  1.
<mgrwt>
<rscale>  0 0.32311174E+04</rscale>
<asrwt>0</asrwt>
<pdfrwt beam="1">  1        2 0.32320342E+00 0.32311174E+04</pdfrwt>
<pdfrwt beam="2">  1       -2 0.19113614E+00 0.32311174E+04</pdfrwt>
<totfact> 0.75089330E-01</totfact>
</mgrwt>
</event>
<event>
 6    1  0.9364335E-007  0.1016858E+04  0.7818608E-02  0.9290247E-01
         -2   -1    0    0    0  501 -0.00000000000E+00  0.00000000000E+00  0.24384029579E+04  0.24384029579E+04  0.00000000000E+00 0.  1.
          2   -1    0    0  501    0  0.00000000000E+00 -0.00000000000E+00 -0.10601194674E+03  0.10601194674E+03  0.00000000000E+00 0. -1.
         23    2    1    2    0    0 -0.13868022293E+03 -0.18154784980E+03  0.23007244964E+04  0.23137753717E+04  0.89618281738E+02 0.  0.
         11    1    3    3    0    0 -0.12239021288E+03 -0.91480272195E+02  0.13315874551E+04  0.13403257645E+04  0.00000000000E+00 0.  1.
        -11    1    3    3    0    0 -0.16290010054E+02 -0.90067577604E+02  0.96913704132E+03  0.97344960723E+03  0.00000000000E+00 0. -1.
         22    1    1    2    0    0  0.13868022293E+03  0.18154784980E+03  0.31666514777E+02  0.23063953294E+03  0.00000000000E+00 0. -1.
<mgrwt>
<rscale>  0 0.10168576E+04</rscale>
<asrwt>0</asrwt>
<pdfrwt beam="1">  1        2 0.16309532E-01 0.10168576E+04</pdfrwt>
<pdfrwt beam="2">  1       -2 0.37513888E+00 0.10168576E+04</pdfrwt>
<totfact> 0.40004316E+00</totfact>
</mgrwt>
</event>
<event>
 6    1  0.9364335E-007  0.1469007E+04  0.7818608E-02  0.8905329E-01
         -2   -1    0    0    0  501 -0.00000000000E+00  0.00000000000E+00  0.49355652244E+03  0.49355652244E+03  0.00000000000E+00 0.  1.
          2   -1    0    0  501    0  0.00000000000E+00 -0.00000000000E+00 -0.10930769729E+04  0.10930769729E+04  0.00000000000E+00 0. -1.
         23    2    1    2    0    0 -0.60121853503E+03 -0.39334667137E+03 -0.15122928992E+03  0.73978622729E+03  0.90708506924E+02 0.  0.
         11    1    3    3    0    0 -0.50155868642E+03 -0.29316841436E+03 -0.10011490124E+03  0.58951830214E+03  0.00000000000E+00 0.  1.
        -11    1    3    3    0    0 -0.99659848605E+02 -0.10017825700E+03 -0.51114388683E+02  0.15026792516E+03  0.00000000000E+00 0. -1.
         22    1    1    2    0    0  0.60121853503E+03  0.39334667137E+03 -0.44829116051E+03  0.84684726800E+03  0.00000000000E+00 0.  1.
<mgrwt>
<rscale>  0 0.14690068E+04</rscale>
<asrwt>0</asrwt>
<pdfrwt beam="1">  1        2 0.16816569E+00 0.14690068E+04</pdfrwt>
<pdfrwt beam="2">  1       -2 0.75931772E-01 0.14690068E+04</pdfrwt>
<totfact> 0.33108929E+01</totfact>
</mgrwt>
</event>
<event>
 6    1  0.9364335E-007  0.3585823E+04  0.7818608E-02  0.8093747E-01
          1   -1    0    0  501    0  0.00000000000E+00  0.00000000000E+00  0.18369005205E+04  0.18369005205E+04  0.00000000000E+00 0. -1.
         -1   -1    0    0    0  501 -0.00000000000E+00 -0.00000000000E+00 -0.17499755843E+04  0.17499755843E+04  0.00000000000E+00 0.  1.
         23    2    1    2    0    0 -0.11499929995E+04  0.89512169395E+03  0.10861853323E+04  0.18198876823E+04  0.92010075872E+02 0.  0.
         11    1    3    3    0    0 -0.94121671245E+02  0.83481574882E+02  0.64650728584E+02  0.14144885666E+03  0.00000000000E+00 0.  1.
        -11    1    3    3    0    0 -0.10558713283E+04  0.81164011907E+03  0.10215346037E+04  0.16784388256E+04  0.00000000000E+00 0. -1.
         22    1    1    2    0    0  0.11499929995E+04 -0.89512169395E+03 -0.99926039608E+03  0.17669884225E+04  0.00000000000E+00 0.  1.
<mgrwt>
<rscale>  0 0.35858227E+04</rscale>
<asrwt>0</asrwt>
<pdfrwt beam="1">  1        1 0.28260008E+00 0.35858227E+04</pdfrwt>
<pdfrwt beam="2">  1       -1 0.26922701E+00 0.35858227E+04</pdfrwt>
<totfact> 0.16281160E-01</totfact>
</mgrwt>
</event>
<event>
 6    1  0.9364335E-007  0.1071033E+04  0.7818608E-02  0.9233894E-01
          2   -1    0    0  501    0  0.00000000000E+00  0.00000000000E+00  0.24558214395E+04  0.24558214395E+04  0.00000000000E+00 0. -1.
         -2   -1    0    0    0  501 -0.00000000000E+00 -0.00000000000E+00 -0.11677468494E+03  0.11677468494E+03  0.00000000000E+00 0.  1.
         23    2    1    2    0    0  0.92955507081E+02  0.44015998851E+03  0.18581432040E+04  0.19140752313E+04  0.92770052482E+02 0.  0.
         13    1    3    3    0    0  0.25580216890E+02  0.31992789157E+03  0.12556072208E+04  0.12959775061E+04  0.00000000000E+00 0.  1.
        -13    1    3    3    0    0  0.67375290191E+02  0.12023209694E+03  0.60253598320E+03  0.61809772522E+03  0.00000000000E+00 0. -1.
         22    1    1    2    0    0 -0.92955507081E+02 -0.44015998851E+03  0.48090355050E+03  0.65852089311E+03  0.00000000000E+00 0.  1.
<mgrwt>
<rscale>  0 0.10710327E+04</rscale>
<asrwt>0</asrwt>
<pdfrwt beam="1">  1        2 0.37781864E+00 0.10710327E+04</pdfrwt>
<pdfrwt beam="2">  1       -2 0.17965338E-01 0.10710327E+04</pdfrwt>
<totfact> 0.95504187E+01</totfact>
</mgrwt>
</event>
